 Gaussian 16, Revision A.03,
 Gaussian 16:  ES64L-G16RevA.03 25-Dec-2016

 ----------------------------------------------------------------------
 # td=(NStates=1) iop(3/107=0140000000,3/108=0140000000) iop(3/107=0140
 000000,3/108=0140000000) CAM-B3LYP/6-31G(d,p)
 ----------------------------------------------------------------------

 --
 TD
 --
 Symbolic Z-matrix:
 Charge =  0 Multiplicity = 1

                         Standard orientation:
 ---------------------------------------------------------------------
 Center     Atomic      Atomic             Coordinates (Angstroms)
 Number     Number       Type             X           Y           Z
 ---------------------------------------------------------------------
      1         12           0       -5.701247    1.159519    0.201013
      2          6           0       -5.087910   -2.147720   -0.296685
      3          6           0       -3.546567    1.100226    2.923215
      4          6           0       -6.185007    4.445219    0.696986
      5          6           0       -8.085569    1.109587   -2.361203
      6          7           0       -4.529036   -0.378755    1.159523
      7          6           0       -4.453151   -1.659517    0.826410
      8          6           0       -3.294709   -2.259534    1.483025
      9          6           0       -3.032678   -1.444808    2.689821
     10          6           0       -3.705356   -0.162956    2.232822
     11          6           0       -3.531601   -1.805698    3.977197
     12          6           0       -2.033934   -2.647227    0.706797
     13          6           0       -1.017494   -3.534373    1.444370
     14          6           0        0.150855   -3.747063    0.597221
     15          8           0        0.492192   -3.263190   -0.452317
     16          8           0        1.035397   -4.572035    1.301136
     17          7           0       -5.006785    2.511103    1.502975
     18          6           0       -4.098696    2.324910    2.520878
     19          6           0       -3.843802    3.562290    3.216627
     20          6           0       -4.513101    4.510296    2.568260
     21          6           0       -5.258623    3.925239    1.484627
     22          6           0       -2.899732    3.630479    4.368204
     23          6           0       -4.726148    5.931703    2.867771
     24          8           0       -4.120441    6.472247    3.834747
     25          7           0       -6.940611    2.543114   -0.642520
     26          6           0       -7.059669    3.900043   -0.361642
     27          6           0       -7.984666    4.542205   -1.157619
     28          6           0       -8.503124    3.552488   -2.089019
     29          6           0       -7.828327    2.374077   -1.725211
     30          6           0       -8.383885    5.999626   -1.178559
     31          6           0       -9.511143    3.803472   -3.267973
     32          6           0       -8.816780    4.263470   -4.519885
     33          7           0       -6.421789   -0.178894   -1.109869
     34          6           0       -7.379509   -0.018941   -1.983195
     35          6           0       -7.521172   -1.329067   -2.777754
     36          6           0       -6.655056   -2.195037   -2.141750
     37          6           0       -5.979436   -1.443465   -1.086545
     38          6           0       -8.313250   -1.599585   -3.902182
     39          6           0       -6.078765   -3.518620   -2.080578
     40          8           0       -6.498764   -4.502695   -2.764421
     41          6           0       -5.102413   -3.541297   -0.912563
     42          6           0       -5.352085   -4.691461    0.080609
     43          8           0       -5.799091   -4.460555    1.170770
     44          8           0       -4.977760   -5.825521   -0.510182
     45          6           0       -5.261564   -6.997561    0.352041
     46          6           0        2.262046   -4.833267    0.746887
     47          6           0        3.326251   -3.841953    1.136326
     48          6           0        4.079257   -3.193703    0.181548
     49          6           0        3.891823   -3.142274   -1.315880
     50          6           0        5.241780   -2.171811    0.598396
     51          6           0        6.615297   -2.669594   -0.019585
     52          6           0        7.709259   -1.710152    0.498618
     53          6           0        9.134277   -1.983767   -0.119455
     54          6           0        9.611634   -3.339541    0.201279
     55          6           0       10.114268   -0.868400    0.510710
     56          6           0       11.420918   -0.888742   -0.227293
     57          6           0       12.328394    0.203408    0.235967
     58          6           0       13.700239    0.395892   -0.515333
     59          6           0       14.751797   -0.758159   -0.474310
     60          6           0       14.387360    1.802570   -0.114017
     61          6           0       15.575287    2.142494   -1.027571
     62          6           0       16.231894    3.521478   -0.589189
     63          6           0       17.374738    3.846509   -1.446120
     64          6           0       17.107849    4.042763   -2.825636
     65          6           0       17.996712    5.174338   -0.783282
     66          1           0       -2.668099    1.024897    3.628603
     67          1           0       -6.513110    5.488843    0.776415
     68          1           0       -8.697387    1.035909   -3.136786
     69          1           0       -3.587920   -3.272307    1.966261
     70          1           0       -2.018626   -1.210287    2.850986
     71          1           0       -3.061791   -2.741530    4.413130
     72          1           0       -3.584062   -0.845123    4.774896
     73          1           0       -4.611769   -2.026981    3.630156
     74          1           0       -2.190477   -3.190953   -0.286230
     75          1           0       -1.752966   -1.627449    0.490803
     76          1           0       -0.690993   -2.951003    2.251140
     77          1           0       -1.397202   -4.455784    1.740395
     78          1           0       -1.771733    3.366494    4.005177
     79          1           0       -2.749574    4.678521    4.584069
     80          1           0       -3.149644    3.037662    5.061441
     81          1           0       -5.270709    6.565011    2.284222
     82          1           0      -10.403299    3.032166   -3.343480
     83          1           0      -10.310286    4.647854   -2.713732
     84          1           0       -9.442293    4.501781   -5.548296
     85          1           0       -8.190998    5.209272   -4.466670
     86          1           0       -8.379185    3.327338   -4.838785
     87          1           0       -8.023660   -0.956567   -4.743236
     88          1           0       -8.486748   -2.624972   -4.387217
     89          1           0       -9.439382   -1.336061   -3.944859
     90          1           0       -4.076371   -3.681131   -1.542988
     91          1           0        2.678754   -5.837391    1.267986
     92          1           0        2.465227   -5.129580   -0.475359
     93          1           0        3.446467   -3.599697    2.178871
     94          1           0        2.903981   -3.506174   -1.634094
     95          1           0        3.876044   -2.124784   -1.583972
     96          1           0        4.748742   -3.716311   -1.867038
     97          1           0        4.885344   -1.154588    0.289763
     98          1           0        5.339651   -2.152482    1.545278
     99          1           0        6.867090   -3.688333    0.432414
    100          1           0        6.656643   -2.817572   -1.362780
    101          1           0        7.473849   -0.605483    0.203569
    102          1           0        7.734748   -1.908630    1.547279
    103          1           0        9.095475   -1.803049   -1.242001
    104          1           0        8.962574   -4.071521   -0.389763
    105          1           0       10.561135   -3.476855   -0.262813
    106          1           0        9.806029   -3.725314    1.206728
    107          1           0        9.625054    0.110915    0.140364
    108          1           0       10.149809   -1.082964    1.710532
    109          1           0       12.122626   -1.844980   -0.195872
    110          1           0       11.231854   -0.679384   -1.161172
    111          1           0       11.728387    1.164320    0.160246
    112          1           0       12.357706    0.228893    1.356270
    113          1           0       13.377187    0.412262   -1.493968
    114          1           0       14.973374   -0.740845    0.560049
    115          1           0       14.273114   -1.775057   -0.771436
    116          1           0       15.617610   -0.491291   -1.029020
    117          1           0       13.737871    2.657757   -0.288542
    118          1           0       14.803750    1.674068    0.913503
    119          1           0       16.443159    1.502914   -0.982662
    120          1           0       15.224275    2.297710   -2.148504
    121          1           0       15.454954    4.213833   -0.447751
    122          1           0       16.596018    3.480399    0.509616
    123          1           0       18.183503    3.059971   -1.149102
    124          1           0       16.496148    4.921555   -2.772444
    125          1           0       17.923202    4.078412   -3.630476
    126          1           0       16.526768    3.152150   -3.173036
    127          1           0       18.352485    4.983144    0.246964
    128          1           0       18.854438    5.449434   -1.461873
    129          1           0       17.167306    5.906307   -0.723654
    130          1           0       -4.790948   -7.850722   -0.158187
    131          1           0       -6.399771   -6.968098    0.476800
    132          1           0       -4.930660   -6.920916    1.376161
    133          8           0       -7.895056    6.909087   -0.499699
    134          1           0       -9.124090    6.176548   -1.724953
 ---------------------------------------------------------------------

 SCF Done:  E(RCAM-B3LYP) =  -3043.43626379     A.U. after   16 cycles

 Excitation energies and oscillator strengths:

 Excited State   1:      Singlet-A      2.1878 eV  566.70 nm  f=0.0642  <S**2>=0.000
     243 -> 246       -0.38851
     244 -> 245        0.58096
 This state for optimization and/or second-order correction.
 Total Energy, E(TD-HF/TD-DFT) =  -3043.35586284
 Copying the excited state density for this state as the 1-particle RhoCI density.

 The electronic state is 1-A.
 Alpha  occ. eigenvalues --  -46.80897 -19.24407 -19.22330 -19.18620 -19.18551
 Alpha  occ. eigenvalues --  -19.16762 -19.16660 -19.16334 -14.39190 -14.36764
 Alpha  occ. eigenvalues --  -14.36732 -14.36246 -10.36166 -10.35829 -10.31184
 Alpha  occ. eigenvalues --  -10.29614 -10.28975 -10.28858 -10.28780 -10.28163
 Alpha  occ. eigenvalues --  -10.27638 -10.26857 -10.26689 -10.26387 -10.26084
 Alpha  occ. eigenvalues --  -10.26070 -10.25888 -10.25754 -10.25655 -10.25397
 Alpha  occ. eigenvalues --  -10.24374 -10.24318 -10.24275 -10.24272 -10.24189
 Alpha  occ. eigenvalues --  -10.23975 -10.23866 -10.23799 -10.23736 -10.23654
 Alpha  occ. eigenvalues --  -10.23529 -10.23318 -10.23284 -10.23280 -10.23053
 Alpha  occ. eigenvalues --  -10.22934 -10.22545 -10.22504 -10.22129 -10.21961
 Alpha  occ. eigenvalues --  -10.21235 -10.21189 -10.21175 -10.21169 -10.21094
 Alpha  occ. eigenvalues --  -10.21072 -10.21006 -10.20883 -10.20637 -10.20343
 Alpha  occ. eigenvalues --  -10.20305 -10.20137 -10.20005 -10.19946 -10.19771
 Alpha  occ. eigenvalues --  -10.19677  -3.09610  -1.84542  -1.84083  -1.84027
 Alpha  occ. eigenvalues --   -1.14812  -1.14138  -1.07030  -1.06107  -1.05392
 Alpha  occ. eigenvalues --   -1.04233  -1.03844  -1.02607  -1.01373  -0.98900
 Alpha  occ. eigenvalues --   -0.97675  -0.89531  -0.88428  -0.85740  -0.85703
 Alpha  occ. eigenvalues --   -0.85130  -0.84895  -0.84368  -0.83985  -0.83739
 Alpha  occ. eigenvalues --   -0.83235  -0.82793  -0.82432  -0.80917  -0.79866
 Alpha  occ. eigenvalues --   -0.78872  -0.78083  -0.77809  -0.77461  -0.76664
 Alpha  occ. eigenvalues --   -0.75761  -0.75593  -0.74419  -0.73722  -0.72749
 Alpha  occ. eigenvalues --   -0.71314  -0.70884  -0.70319  -0.69902  -0.69538
 Alpha  occ. eigenvalues --   -0.69298  -0.68950  -0.67933  -0.67401  -0.66238
 Alpha  occ. eigenvalues --   -0.65345  -0.64965  -0.64333  -0.62590  -0.62319
 Alpha  occ. eigenvalues --   -0.61566  -0.61255  -0.59956  -0.59524  -0.59059
 Alpha  occ. eigenvalues --   -0.58931  -0.58431  -0.58115  -0.57961  -0.57357
 Alpha  occ. eigenvalues --   -0.56890  -0.56422  -0.55818  -0.55553  -0.55425
 Alpha  occ. eigenvalues --   -0.54654  -0.54298  -0.54176  -0.53510  -0.52921
 Alpha  occ. eigenvalues --   -0.52460  -0.52236  -0.51568  -0.50904  -0.50765
 Alpha  occ. eigenvalues --   -0.50623  -0.50552  -0.49901  -0.49678  -0.49220
 Alpha  occ. eigenvalues --   -0.49158  -0.48819  -0.48591  -0.48097  -0.48041
 Alpha  occ. eigenvalues --   -0.47998  -0.47492  -0.47301  -0.47133  -0.46947
 Alpha  occ. eigenvalues --   -0.46822  -0.46640  -0.46201  -0.46076  -0.45820
 Alpha  occ. eigenvalues --   -0.45653  -0.45447  -0.45221  -0.45177  -0.44990
 Alpha  occ. eigenvalues --   -0.44819  -0.44287  -0.44096  -0.43947  -0.43680
 Alpha  occ. eigenvalues --   -0.43546  -0.43468  -0.43344  -0.43028  -0.42867
 Alpha  occ. eigenvalues --   -0.42786  -0.42564  -0.42237  -0.41960  -0.41867
 Alpha  occ. eigenvalues --   -0.41740  -0.41412  -0.41318  -0.41044  -0.40924
 Alpha  occ. eigenvalues --   -0.40408  -0.40291  -0.40158  -0.40077  -0.39965
 Alpha  occ. eigenvalues --   -0.39842  -0.39784  -0.39291  -0.39147  -0.39132
 Alpha  occ. eigenvalues --   -0.39048  -0.38890  -0.38467  -0.38349  -0.38052
 Alpha  occ. eigenvalues --   -0.38041  -0.37442  -0.37036  -0.36984  -0.36745
 Alpha  occ. eigenvalues --   -0.36634  -0.36327  -0.35933  -0.35816  -0.35722
 Alpha  occ. eigenvalues --   -0.35471  -0.35213  -0.35079  -0.34463  -0.34387
 Alpha  occ. eigenvalues --   -0.34307  -0.34265  -0.34041  -0.34000  -0.33468
 Alpha  occ. eigenvalues --   -0.33002  -0.32350  -0.32171  -0.31978  -0.31886
 Alpha  occ. eigenvalues --   -0.31626  -0.31532  -0.30362  -0.30030  -0.29068
 Alpha  occ. eigenvalues --   -0.28589  -0.28279  -0.27758  -0.27478  -0.27338
 Alpha  occ. eigenvalues --   -0.27107  -0.26104  -0.23056  -0.21910
 Alpha virt. eigenvalues --   -0.07574  -0.07261  -0.02578  -0.00993   0.00168
 Alpha virt. eigenvalues --    0.02347   0.02773   0.03474   0.04317   0.04657
 Alpha virt. eigenvalues --    0.04726   0.05226   0.07914   0.08125   0.09249

 Mulliken charges:
               1
     1  Mg   0.818864
     2  C    0.088632
     3  C   -0.209441
     4  C   -0.209764
     5  C   -0.102130
     6  N   -0.618208
     7  C    0.353011
     8  C   -0.181793
     9  C   -0.130066
    10  C    0.310291
    11  C   -0.286736
    12  C   -0.167642
    13  C   -0.254607
    14  C    0.601493
    15  O   -0.444290
    16  O   -0.459693
    17  N   -0.715281
    18  C    0.339733
    19  C    0.031308
    20  C    0.003104
    21  C    0.322497
    22  C   -0.356233
    23  C    0.247263
    24  O   -0.435390
    25  N   -0.692943
    26  C    0.288367
    27  C   -0.067169
    28  C    0.024850
    29  C    0.261808
    30  C    0.301171
    31  C   -0.245611
    32  C   -0.288633
    33  N   -0.740943
    34  C    0.305023
    35  C    0.037547
    36  C    0.076748
    37  C    0.259106
    38  C   -0.441274
    39  C    0.341606
    40  O   -0.487804
    41  C   -0.331306
    42  C    0.650429
    43  O   -0.461978
    44  O   -0.432284
    45  C   -0.109915
    46  C    0.013205
    47  C   -0.136071
    48  C    0.106777
    49  C   -0.358736
    50  C   -0.203672
    51  C   -0.163677
    52  C   -0.151986
    53  C   -0.061703
    54  C   -0.314959
    55  C   -0.165192
    56  C   -0.147663
    57  C   -0.189360
    58  C   -0.058915
    59  C   -0.319909
    60  C   -0.171986
    61  C   -0.187009
    62  C   -0.167405
    63  C   -0.052493
    64  C   -0.286395
    65  C   -0.315057
    66  H    0.089829
    67  H    0.120560
    68  H    0.070801
    69  H    0.099764
    70  H    0.104223
    71  H    0.106524
    72  H    0.100855
    73  H    0.111397
    74  H    0.111380
    75  H    0.121161
    76  H    0.156598
    77  H    0.150764
    78  H    0.096508
    79  H    0.159950
    80  H    0.131810
    81  H    0.108740
    82  H    0.114219
    83  H    0.068111
    84  H    0.085197
    85  H    0.127278
    86  H    0.125218
    87  H    0.135562
    88  H    0.155119
    89  H    0.119220
    90  H    0.149821
    91  H    0.088626
    92  H    0.092356
    93  H    0.081316
    94  H    0.127231
    95  H    0.123716
    96  H    0.105350
    97  H    0.099628
    98  H    0.099293
    99  H    0.101779
   100  H    0.041137
   101  H    0.074930
   102  H    0.096784
   103  H    0.078316
   104  H    0.091685
   105  H    0.106904
   106  H    0.103755
   107  H    0.083630
   108  H    0.073969
   109  H    0.074999
   110  H    0.104106
   111  H    0.069653
   112  H    0.073955
   113  H    0.086991
   114  H    0.109293
   115  H    0.089179
   116  H    0.114542
   117  H    0.096626
   118  H    0.091244
   119  H    0.096621
   120  H    0.079923
   121  H    0.087782
   122  H    0.074212
   123  H    0.070111
   124  H    0.103994
   125  H    0.097357
   126  H    0.095490
   127  H    0.099090
   128  H    0.092681
   129  H    0.096640
   130  H    0.138049
   131  H    0.140301
   132  H    0.142048
   133  O   -0.440044
   134  H    0.064635
 Sum of Mulliken charges =  -0.00000

 Dipole moment (field-independent basis, Debye):
    X=              1.7257    Y=             -5.5178    Z=             -0.9088  Tot=              5.8524
 Quadrupole moment (field-independent basis, Debye-Ang):
   XX=           -390.3012   YY=           -439.8723   ZZ=           -392.4463
   XY=             17.2285   XZ=             22.6354   YZ=            -37.3062

 Normal termination of Gaussian 16 at Sat Oct  5 02:01:11 2019.
