 Gaussian 16, Revision A.03,
 Gaussian 16:  ES64L-G16RevA.03 25-Dec-2016

 ----------------------------------------------------------------------
 # td=(NStates=1) iop(3/107=0140000000,3/108=0140000000) iop(3/107=0140
 000000,3/108=0140000000) CAM-B3LYP/6-31G(d,p)
 ----------------------------------------------------------------------

 --
 TD
 --
 Symbolic Z-matrix:
 Charge =  0 Multiplicity = 1

                         Standard orientation:
 ---------------------------------------------------------------------
 Center     Atomic      Atomic             Coordinates (Angstroms)
 Number     Number       Type             X           Y           Z
 ---------------------------------------------------------------------
      1         12           0       -5.650237    1.169301    0.236391
      2          6           0       -5.095616   -2.169978   -0.327638
      3          6           0       -3.354865    1.193870    2.646651
      4          6           0       -6.103472    4.512003    0.587593
      5          6           0       -8.075211    1.198033   -2.407647
      6          7           0       -4.190835   -0.260507    0.971467
      7          6           0       -4.280473   -1.610644    0.723066
      8          6           0       -3.173672   -2.321402    1.473297
      9          6           0       -2.931919   -1.323255    2.695101
     10          6           0       -3.499767   -0.041872    2.037506
     11          6           0       -3.620734   -1.694891    3.967947
     12          6           0       -1.868281   -2.670738    0.698898
     13          6           0       -0.927734   -3.506613    1.552880
     14          6           0        0.330299   -3.816373    0.645212
     15          8           0        0.503925   -3.466176   -0.466558
     16          8           0        1.071822   -4.692349    1.380897
     17          7           0       -4.911245    2.628542    1.501001
     18          6           0       -3.918226    2.494825    2.440870
     19          6           0       -3.604372    3.666722    3.162110
     20          6           0       -4.376419    4.681377    2.552425
     21          6           0       -5.158418    3.889905    1.405060
     22          6           0       -2.696516    3.891791    4.289345
     23          6           0       -4.645328    6.056437    2.931346
     24          8           0       -4.018019    6.613512    3.803393
     25          7           0       -6.754104    2.632001   -0.709556
     26          6           0       -6.893882    3.976701   -0.398611
     27          6           0       -7.961097    4.565869   -1.116100
     28          6           0       -8.414066    3.650765   -2.055302
     29          6           0       -7.704858    2.411920   -1.750742
     30          6           0       -8.421558    5.957484   -1.095602
     31          6           0       -9.473481    3.805811   -3.132491
     32          6           0       -9.102280    4.138106   -4.411641
     33          7           0       -6.333100   -0.162156   -1.145411
     34          6           0       -7.317621   -0.049845   -2.097143
     35          6           0       -7.578394   -1.337799   -2.638391
     36          6           0       -6.689517   -2.140410   -2.023381
     37          6           0       -6.022919   -1.450469   -1.118071
     38          6           0       -8.533578   -1.529677   -3.810833
     39          6           0       -6.215955   -3.569837   -2.058378
     40          8           0       -6.489636   -4.554887   -2.702521
     41          6           0       -5.018297   -3.606902   -0.953553
     42          6           0       -5.296759   -4.704198    0.103319
     43          8           0       -5.882713   -4.386172    1.208660
     44          8           0       -5.024315   -5.910926   -0.292642
     45          6           0       -5.472770   -7.003474    0.599373
     46          6           0        2.384126   -5.081716    0.728061
     47          6           0        3.472733   -4.230373    0.971178
     48          6           0        3.999439   -3.366695    0.114576
     49          6           0        3.637736   -3.346987   -1.335995
     50          6           0        5.137838   -2.653960    0.614367
     51          6           0        6.519600   -2.696488   -0.177871
     52          6           0        7.625442   -1.926981    0.586333
     53          6           0        9.009613   -2.009932   -0.173994
     54          6           0        9.692093   -3.381022    0.084749
     55          6           0        9.838822   -0.819566    0.401082
     56          6           0       11.291229   -0.838312   -0.150950
     57          6           0       12.135015    0.298393    0.207005
     58          6           0       13.480272    0.548053   -0.565655
     59          6           0       14.466499   -0.631345   -0.249573
     60          6           0       14.262410    1.742181   -0.123517
     61          6           0       15.442298    2.284779   -1.016889
     62          6           0       15.949290    3.585776   -0.678110
     63          6           0       17.303053    3.870270   -1.377013
     64          6           0       17.141701    4.074405   -2.844130
     65          6           0       17.974812    5.178604   -0.892324
     66          1           0       -2.635793    1.238284    3.466097
     67          1           0       -6.507703    5.681327    0.771554
     68          1           0       -8.913012    1.142291   -3.092563
     69          1           0       -3.546184   -3.133240    1.861546
     70          1           0       -1.841376   -1.276715    2.871209
     71          1           0       -3.097964   -2.594862    4.400988
     72          1           0       -3.498700   -0.911584    4.775419
     73          1           0       -4.500993   -1.753268    3.859271
     74          1           0       -2.049618   -3.142123   -0.300276
     75          1           0       -1.375153   -1.908770    0.402343
     76          1           0       -0.517178   -3.143031    2.511832
     77          1           0       -1.156607   -4.453830    1.605349
     78          1           0       -1.676578    3.452731    4.054338
     79          1           0       -2.570243    4.824616    4.513818
     80          1           0       -3.011368    3.409005    5.208620
     81          1           0       -5.552589    6.597527    2.491549
     82          1           0      -10.374039    2.999835   -3.082579
     83          1           0      -10.141596    4.512636   -2.712385
     84          1           0       -9.879629    4.464410   -5.077565
     85          1           0       -8.230449    4.979840   -4.406736
     86          1           0       -8.574114    3.219488   -4.916420
     87          1           0       -8.264682   -0.808010   -4.491929
     88          1           0       -8.397558   -2.502099   -4.214389
     89          1           0       -9.610821   -1.594895   -3.290291
     90          1           0       -3.908283   -3.809755   -1.532368
     91          1           0        2.337657   -6.287408    0.986970
     92          1           0        2.093392   -5.123655   -0.344470
     93          1           0        3.768118   -4.485728    2.040205
     94          1           0        2.580196   -3.479437   -1.558498
     95          1           0        3.828005   -2.303426   -1.678519
     96          1           0        4.356969   -3.811447   -2.205091
     97          1           0        4.804279   -1.534442    0.479206
     98          1           0        5.244666   -2.775048    1.795338
     99          1           0        6.728133   -3.776170   -0.367604
    100          1           0        6.219183   -2.218322   -1.195147
    101          1           0        7.410302   -0.772995    0.618461
    102          1           0        7.757392   -2.318560    1.636780
    103          1           0        8.867384   -1.912741   -1.315817
    104          1           0        9.012480   -4.141680   -0.323154
    105          1           0       10.472612   -3.683377   -0.520607
    106          1           0        9.897359   -3.384496    1.117935
    107          1           0        9.294560    0.073323    0.346947
    108          1           0        9.915064   -0.937024    1.488475
    109          1           0       11.884340   -2.058201    0.083574
    110          1           0       11.360060   -0.859945   -1.285695
    111          1           0       11.684772    1.368860    0.139017
    112          1           0       12.385841    0.376239    1.300552
    113          1           0       13.099388    0.648470   -1.660717
    114          1           0       14.741264   -0.579942    0.900375
    115          1           0       14.227370   -1.683457   -0.359865
    116          1           0       15.394907   -0.636647   -0.866670
    117          1           0       13.497609    2.691748   -0.083477
    118          1           0       14.598090    1.698679    0.968414
    119          1           0       16.191160    1.510675   -0.764206
    120          1           0       15.191987    1.851246   -1.938028
    121          1           0       15.331817    4.458000   -0.739314
    122          1           0       16.382901    3.578287    0.304008
    123          1           0       18.083286    3.112475   -1.296553
    124          1           0       16.741926    5.024837   -3.183983
    125          1           0       18.314131    4.096049   -3.148912
    126          1           0       16.436394    3.144670   -3.394626
    127          1           0       18.092711    5.178967    0.220887
    128          1           0       18.730797    5.469085   -1.417809
    129          1           0       17.320966    6.065816   -1.059580
    130          1           0       -5.361376   -7.889743   -0.079334
    131          1           0       -6.464982   -6.695753    0.945717
    132          1           0       -4.655194   -6.960227    1.296460
    133          8           0       -7.838707    6.846039   -0.452314
    134          1           0       -9.294316    6.129579   -1.975427
 ---------------------------------------------------------------------

 SCF Done:  E(RCAM-B3LYP) =  -3043.38632258     A.U. after   16 cycles

 Excitation energies and oscillator strengths:

 Excited State   1:      Singlet-A      2.0044 eV  618.56 nm  f=0.1402  <S**2>=0.000
     243 -> 246       -0.31796
     244 -> 245        0.62063
 This state for optimization and/or second-order correction.
 Total Energy, E(TD-HF/TD-DFT) =  -3043.31266274
 Copying the excited state density for this state as the 1-particle RhoCI density.

 The electronic state is 1-A.
 Alpha  occ. eigenvalues --  -46.82069 -19.23631 -19.21244 -19.17999 -19.17894
 Alpha  occ. eigenvalues --  -19.17765 -19.16241 -19.15917 -14.38712 -14.36844
 Alpha  occ. eigenvalues --  -14.36626 -14.35821 -10.35243 -10.34395 -10.32056
 Alpha  occ. eigenvalues --  -10.31862 -10.29695 -10.28435 -10.27374 -10.27111
 Alpha  occ. eigenvalues --  -10.26658 -10.26507 -10.26507 -10.26465 -10.26312
 Alpha  occ. eigenvalues --  -10.25651 -10.25614 -10.25143 -10.24848 -10.24575
 Alpha  occ. eigenvalues --  -10.24470 -10.24060 -10.23912 -10.23658 -10.23654
 Alpha  occ. eigenvalues --  -10.23495 -10.23462 -10.23350 -10.23231 -10.23135
 Alpha  occ. eigenvalues --  -10.23040 -10.22954 -10.22939 -10.22910 -10.22817
 Alpha  occ. eigenvalues --  -10.22776 -10.22585 -10.22461 -10.22410 -10.22208
 Alpha  occ. eigenvalues --  -10.22091 -10.21883 -10.21740 -10.21502 -10.21437
 Alpha  occ. eigenvalues --  -10.21266 -10.21221 -10.21043 -10.20995 -10.20919
 Alpha  occ. eigenvalues --  -10.20661 -10.20330 -10.20196 -10.20121 -10.19492
 Alpha  occ. eigenvalues --  -10.19197  -3.10499  -1.85440  -1.84960  -1.84909
 Alpha  occ. eigenvalues --   -1.14047  -1.12964  -1.07642  -1.06503  -1.06029
 Alpha  occ. eigenvalues --   -1.05254  -1.01805  -1.01215  -1.01051  -1.00682
 Alpha  occ. eigenvalues --   -0.97864  -0.87572  -0.87169  -0.86363  -0.85861
 Alpha  occ. eigenvalues --   -0.85683  -0.84802  -0.84782  -0.83671  -0.83390
 Alpha  occ. eigenvalues --   -0.82699  -0.82453  -0.81704  -0.80354  -0.80095
 Alpha  occ. eigenvalues --   -0.79238  -0.78955  -0.77795  -0.76958  -0.76717
 Alpha  occ. eigenvalues --   -0.75517  -0.74964  -0.74615  -0.72807  -0.72495
 Alpha  occ. eigenvalues --   -0.72103  -0.71332  -0.70306  -0.69701  -0.69615
 Alpha  occ. eigenvalues --   -0.69077  -0.69018  -0.67155  -0.66336  -0.66212
 Alpha  occ. eigenvalues --   -0.65589  -0.65103  -0.63254  -0.62859  -0.62434
 Alpha  occ. eigenvalues --   -0.61284  -0.60037  -0.59766  -0.59039  -0.58914
 Alpha  occ. eigenvalues --   -0.58356  -0.57769  -0.57622  -0.57526  -0.56835
 Alpha  occ. eigenvalues --   -0.56734  -0.56329  -0.55772  -0.54744  -0.53881
 Alpha  occ. eigenvalues --   -0.53236  -0.52879  -0.52616  -0.52445  -0.52268
 Alpha  occ. eigenvalues --   -0.51999  -0.51156  -0.51113  -0.50436  -0.50254
 Alpha  occ. eigenvalues --   -0.50133  -0.50048  -0.49831  -0.49590  -0.49356
 Alpha  occ. eigenvalues --   -0.49123  -0.48863  -0.48761  -0.48102  -0.47832
 Alpha  occ. eigenvalues --   -0.47327  -0.47255  -0.47005  -0.46656  -0.46577
 Alpha  occ. eigenvalues --   -0.46498  -0.46326  -0.46173  -0.45932  -0.45777
 Alpha  occ. eigenvalues --   -0.45634  -0.45465  -0.45360  -0.45129  -0.45092
 Alpha  occ. eigenvalues --   -0.44780  -0.44386  -0.44223  -0.44143  -0.44077
 Alpha  occ. eigenvalues --   -0.43672  -0.43463  -0.43343  -0.43211  -0.42954
 Alpha  occ. eigenvalues --   -0.42520  -0.42361  -0.42215  -0.41924  -0.41789
 Alpha  occ. eigenvalues --   -0.41627  -0.41335  -0.41287  -0.41102  -0.41021
 Alpha  occ. eigenvalues --   -0.40897  -0.40797  -0.40475  -0.40156  -0.40038
 Alpha  occ. eigenvalues --   -0.39887  -0.39877  -0.39663  -0.39411  -0.39185
 Alpha  occ. eigenvalues --   -0.38964  -0.38800  -0.38570  -0.38411  -0.38015
 Alpha  occ. eigenvalues --   -0.37878  -0.37835  -0.37615  -0.37440  -0.36757
 Alpha  occ. eigenvalues --   -0.36370  -0.36020  -0.35668  -0.35636  -0.35446
 Alpha  occ. eigenvalues --   -0.35266  -0.35113  -0.34746  -0.34673  -0.34591
 Alpha  occ. eigenvalues --   -0.34417  -0.34221  -0.33604  -0.33387  -0.33169
 Alpha  occ. eigenvalues --   -0.32715  -0.32546  -0.32001  -0.31494  -0.31205
 Alpha  occ. eigenvalues --   -0.30920  -0.30561  -0.30335  -0.29605  -0.29482
 Alpha  occ. eigenvalues --   -0.28742  -0.28259  -0.27959  -0.27685  -0.27581
 Alpha  occ. eigenvalues --   -0.27446  -0.27077  -0.22024  -0.21306
 Alpha virt. eigenvalues --   -0.08251  -0.06397  -0.01183  -0.00680   0.00617
 Alpha virt. eigenvalues --    0.01493   0.02730   0.03273   0.04254   0.05620
 Alpha virt. eigenvalues --    0.05922   0.06350   0.07763   0.08778   0.08931

 Mulliken charges:
               1
     1  Mg   0.831810
     2  C    0.092072
     3  C   -0.215543
     4  C   -0.221689
     5  C   -0.159967
     6  N   -0.606125
     7  C    0.247076
     8  C   -0.119345
     9  C   -0.163197
    10  C    0.367618
    11  C   -0.273343
    12  C   -0.164523
    13  C   -0.255163
    14  C    0.576081
    15  O   -0.442657
    16  O   -0.490289
    17  N   -0.670003
    18  C    0.289759
    19  C    0.082763
    20  C   -0.048650
    21  C    0.319819
    22  C   -0.368967
    23  C    0.228156
    24  O   -0.413911
    25  N   -0.706873
    26  C    0.328912
    27  C    0.002485
    28  C    0.022667
    29  C    0.282998
    30  C    0.241866
    31  C   -0.232685
    32  C   -0.287040
    33  N   -0.738264
    34  C    0.248822
    35  C   -0.042512
    36  C    0.053619
    37  C    0.307567
    38  C   -0.361336
    39  C    0.382691
    40  O   -0.442268
    41  C   -0.322008
    42  C    0.615635
    43  O   -0.524615
    44  O   -0.427659
    45  C   -0.093980
    46  C   -0.041207
    47  C   -0.085049
    48  C    0.175778
    49  C   -0.394146
    50  C   -0.241420
    51  C   -0.172466
    52  C   -0.161478
    53  C   -0.060861
    54  C   -0.304425
    55  C   -0.177440
    56  C   -0.141743
    57  C   -0.164088
    58  C   -0.058640
    59  C   -0.308170
    60  C   -0.171335
    61  C   -0.171018
    62  C   -0.152495
    63  C   -0.069310
    64  C   -0.271584
    65  C   -0.314585
    66  H    0.069615
    67  H    0.132165
    68  H    0.108535
    69  H    0.106829
    70  H    0.095603
    71  H    0.105535
    72  H    0.098511
    73  H    0.125990
    74  H    0.107035
    75  H    0.124987
    76  H    0.132820
    77  H    0.145380
    78  H    0.111452
    79  H    0.158538
    80  H    0.127540
    81  H    0.081138
    82  H    0.090449
    83  H    0.117719
    84  H    0.122474
    85  H    0.096569
    86  H    0.096153
    87  H    0.135940
    88  H    0.144095
    89  H    0.116177
    90  H    0.128128
    91  H    0.094373
    92  H    0.117816
    93  H    0.087209
    94  H    0.161579
    95  H    0.106384
    96  H    0.108384
    97  H    0.086596
    98  H    0.087376
    99  H    0.105698
   100  H    0.090392
   101  H    0.083098
   102  H    0.095640
   103  H    0.074381
   104  H    0.089593
   105  H    0.112973
   106  H    0.108789
   107  H    0.102638
   108  H    0.094125
   109  H    0.043213
   110  H    0.085227
   111  H    0.077455
   112  H    0.080810
   113  H    0.076610
   114  H    0.087269
   115  H    0.098192
   116  H    0.095357
   117  H    0.043167
   118  H    0.084465
   119  H    0.096366
   120  H    0.102557
   121  H    0.098375
   122  H    0.101415
   123  H    0.098096
   124  H    0.106505
   125  H    0.068953
   126  H    0.060048
   127  H    0.091036
   128  H    0.109726
   129  H    0.090072
   130  H    0.138895
   131  H    0.161623
   132  H    0.144273
   133  O   -0.423971
   134  H    0.053724
 Sum of Mulliken charges =  -0.00000

 Dipole moment (field-independent basis, Debye):
    X=              2.3366    Y=             -5.7768    Z=             -0.6737  Tot=              6.2678
 Quadrupole moment (field-independent basis, Debye-Ang):
   XX=           -362.4199   YY=           -434.6372   ZZ=           -395.3592
   XY=             12.0078   XZ=             22.3516   YZ=            -29.8646

 Normal termination of Gaussian 16 at Fri Oct  4 06:20:02 2019.
