 Gaussian 16, Revision A.03,
 Gaussian 16:  ES64L-G16RevA.03 25-Dec-2016

 ----------------------------------------------------------------------
 # td=(NStates=1) iop(3/107=0140000000,3/108=0140000000) iop(3/107=0140
 000000,3/108=0140000000) CAM-B3LYP/6-31G(d,p)
 ----------------------------------------------------------------------

 --
 TD
 --
 Symbolic Z-matrix:
 Charge =  0 Multiplicity = 1

                         Standard orientation:
 ---------------------------------------------------------------------
 Center     Atomic      Atomic             Coordinates (Angstroms)
 Number     Number       Type             X           Y           Z
 ---------------------------------------------------------------------
      1         12           0       -5.613947    1.254592    0.181716
      2          6           0       -4.925747   -2.140721   -0.385670
      3          6           0       -3.405908    1.143510    2.798634
      4          6           0       -6.240887    4.589002    0.751077
      5          6           0       -8.029169    1.128412   -2.414478
      6          7           0       -4.311818   -0.199344    1.006328
      7          6           0       -4.154137   -1.548855    0.627995
      8          6           0       -3.103412   -2.293292    1.429672
      9          6           0       -2.770873   -1.291971    2.523767
     10          6           0       -3.446463    0.003060    2.104505
     11          6           0       -3.414543   -1.915544    3.883176
     12          6           0       -1.816233   -2.626242    0.552945
     13          6           0       -0.943348   -3.615486    1.245893
     14          6           0        0.285156   -3.974029    0.590987
     15          8           0        0.421883   -3.636661   -0.602407
     16          8           0        1.115398   -4.768903    1.230875
     17          7           0       -4.924333    2.605068    1.569469
     18          6           0       -4.102556    2.413183    2.563454
     19          6           0       -3.887369    3.590768    3.256504
     20          6           0       -4.633382    4.597796    2.578267
     21          6           0       -5.316447    3.874074    1.478043
     22          6           0       -2.852902    3.724358    4.322036
     23          6           0       -4.877041    5.978001    3.077994
     24          8           0       -4.222255    6.472146    3.881198
     25          7           0       -6.890680    2.623342   -0.720377
     26          6           0       -7.072479    3.914757   -0.273079
     27          6           0       -7.947319    4.578520   -1.223459
     28          6           0       -8.439618    3.665806   -2.141937
     29          6           0       -7.899224    2.351539   -1.678921
     30          6           0       -8.337501    5.948218   -1.173343
     31          6           0       -9.429297    3.892352   -3.258807
     32          6           0       -8.681420    4.054179   -4.476860
     33          7           0       -6.360738   -0.117932   -1.139888
     34          6           0       -7.393956   -0.100575   -2.116666
     35          6           0       -7.556983   -1.302037   -2.748568
     36          6           0       -6.577416   -2.207988   -2.046473
     37          6           0       -5.962688   -1.394983   -1.028742
     38          6           0       -8.438098   -1.702571   -3.911209
     39          6           0       -6.049892   -3.544486   -2.040565
     40          8           0       -6.436938   -4.499454   -2.794169
     41          6           0       -5.001731   -3.542591   -0.928798
     42          6           0       -5.307922   -4.590753    0.092812
     43          8           0       -5.818999   -4.391715    1.154809
     44          8           0       -4.908042   -5.789189   -0.256756
     45          6           0       -5.429162   -6.992932    0.607128
     46          6           0        2.362646   -5.119307    0.501373
     47          6           0        3.356103   -4.185680    1.050281
     48          6           0        4.038201   -3.332868    0.214516
     49          6           0        3.803670   -3.123827   -1.239979
     50          6           0        5.172907   -2.402958    0.747626
     51          6           0        6.509846   -2.646477    0.039671
     52          6           0        7.727030   -1.800818    0.746877
     53          6           0        9.029141   -1.896779    0.190808
     54          6           0        9.651477   -3.282319    0.358273
     55          6           0        9.982865   -0.832650    0.607540
     56          6           0       11.312226   -0.768845   -0.158964
     57          6           0       12.247541    0.376026    0.273713
     58          6           0       13.447700    0.523297   -0.601689
     59          6           0       14.455988   -0.636831   -0.474017
     60          6           0       14.181801    1.836689   -0.259122
     61          6           0       15.360390    2.166502   -1.164357
     62          6           0       15.943221    3.517835   -0.713025
     63          6           0       17.290845    3.977380   -1.418334
     64          6           0       17.094491    4.045659   -2.894608
     65          6           0       17.905687    5.243966   -0.858288
     66          1           0       -2.708444    1.452963    3.564742
     67          1           0       -6.273001    5.581669    0.883456
     68          1           0       -8.775434    1.166526   -3.070750
     69          1           0       -3.509978   -3.278911    1.801074
     70          1           0       -1.642179   -1.082397    2.519537
     71          1           0       -2.844316   -2.698902    4.157417
     72          1           0       -3.264552   -1.259728    4.655912
     73          1           0       -4.334067   -2.170444    3.815707
     74          1           0       -2.486972   -3.094340   -0.265216
     75          1           0       -1.280760   -1.853132    0.196175
     76          1           0       -0.607608   -3.042725    2.151308
     77          1           0       -1.413358   -4.645659    1.388636
     78          1           0       -1.926801    3.562337    4.188931
     79          1           0       -2.680129    4.768591    4.775836
     80          1           0       -3.411006    3.062824    5.074396
     81          1           0       -5.465741    6.562465    2.361263
     82          1           0      -10.204532    3.096169   -3.324206
     83          1           0      -10.047084    4.754593   -3.120221
     84          1           0       -9.293359    4.515523   -5.306442
     85          1           0       -8.020960    4.829775   -4.273249
     86          1           0       -8.492045    2.975893   -5.078549
     87          1           0       -8.329637   -1.063157   -4.657122
     88          1           0       -8.189999   -2.779790   -4.084054
     89          1           0       -9.329729   -1.728907   -3.470619
     90          1           0       -4.133031   -4.002583   -1.394475
     91          1           0        2.644979   -6.035205    0.947255
     92          1           0        2.311044   -4.969702   -0.640630
     93          1           0        3.659497   -4.213784    2.156820
     94          1           0        2.838465   -3.460409   -1.623868
     95          1           0        4.059960   -2.079587   -1.300958
     96          1           0        4.472310   -3.620786   -1.818359
     97          1           0        5.048962   -1.338100    0.496628
     98          1           0        5.246424   -2.411077    1.798695
     99          1           0        6.768289   -3.645653    0.278566
    100          1           0        6.610421   -2.464038   -0.978582
    101          1           0        7.417948   -0.751105    0.454926
    102          1           0        7.824353   -1.925460    1.774874
    103          1           0        9.194079   -2.042019   -0.971076
    104          1           0        8.964554   -4.157332    0.180086
    105          1           0       10.704434   -3.330126   -0.149313
    106          1           0        9.757467   -3.425454    1.453631
    107          1           0        9.453692    0.043078    0.635893
    108          1           0       10.424390   -1.079460    1.749839
    109          1           0       11.690366   -1.683822   -0.050793
    110          1           0       11.026051   -0.603018   -1.204853
    111          1           0       11.735930    1.244570    0.312393
    112          1           0       12.584385    0.008870    1.290579
    113          1           0       13.053140    0.564422   -1.651703
    114          1           0       14.772595   -0.772882    0.528679
    115          1           0       13.896077   -1.572665   -0.469834
    116          1           0       15.289729   -0.652621   -1.133352
    117          1           0       13.304582    2.689500   -0.366187
    118          1           0       14.345879    1.816067    0.834309
    119          1           0       16.179968    1.317328   -1.002088
    120          1           0       15.054826    2.247020   -2.335545
    121          1           0       15.275806    4.158999   -0.870310
    122          1           0       16.108881    3.421243    0.417005
    123          1           0       17.969161    3.122434   -1.108106
    124          1           0       16.214932    4.854812   -3.265205
    125          1           0       17.820875    4.467793   -3.487086
    126          1           0       16.798831    3.027576   -3.045353
    127          1           0       17.994398    5.331871    0.177736
    128          1           0       18.824258    5.286625   -1.428913
    129          1           0       17.281088    6.157540   -1.135604
    130          1           0       -5.108659   -7.886346   -0.173834
    131          1           0       -6.522360   -6.906212    0.783314
    132          1           0       -5.016813   -7.055889    1.570785
    133          8           0       -7.880713    6.740400   -0.342075
    134          1           0       -8.975667    6.325474   -1.994725
 ---------------------------------------------------------------------

 SCF Done:  E(RCAM-B3LYP) =  -3043.42727634     A.U. after   16 cycles

 Excitation energies and oscillator strengths:

 Excited State   1:      Singlet-A      2.0418 eV  607.22 nm  f=0.2083  <S**2>=0.000
     243 -> 245        0.22288
     243 -> 246       -0.22643
     244 -> 245        0.61350
     244 -> 246        0.11756
 This state for optimization and/or second-order correction.
 Total Energy, E(TD-HF/TD-DFT) =  -3043.35224074
 Copying the excited state density for this state as the 1-particle RhoCI density.

 The electronic state is 1-A.
 Alpha  occ. eigenvalues --  -46.81364 -19.22610 -19.22212 -19.17183 -19.16592
 Alpha  occ. eigenvalues --  -19.15681 -19.15378 -19.15089 -14.38672 -14.37754
 Alpha  occ. eigenvalues --  -14.36507 -14.35983 -10.33787 -10.33698 -10.30171
 Alpha  occ. eigenvalues --  -10.29806 -10.29592 -10.29489 -10.27846 -10.27494
 Alpha  occ. eigenvalues --  -10.27267 -10.27218 -10.26975 -10.26138 -10.26102
 Alpha  occ. eigenvalues --  -10.25659 -10.25327 -10.25182 -10.24878 -10.24681
 Alpha  occ. eigenvalues --  -10.24541 -10.24429 -10.24092 -10.23729 -10.23721
 Alpha  occ. eigenvalues --  -10.23693 -10.23604 -10.23566 -10.23431 -10.22752
 Alpha  occ. eigenvalues --  -10.22748 -10.22566 -10.22537 -10.22199 -10.22160
 Alpha  occ. eigenvalues --  -10.21923 -10.21739 -10.21705 -10.21551 -10.21511
 Alpha  occ. eigenvalues --  -10.21281 -10.21226 -10.21200 -10.21188 -10.20925
 Alpha  occ. eigenvalues --  -10.20883 -10.20868 -10.20540 -10.20246 -10.19949
 Alpha  occ. eigenvalues --  -10.19905 -10.19614 -10.19430 -10.19366 -10.19206
 Alpha  occ. eigenvalues --  -10.19167  -3.09856  -1.84809  -1.84355  -1.84226
 Alpha  occ. eigenvalues --   -1.13348  -1.13320  -1.10842  -1.05637  -1.03588
 Alpha  occ. eigenvalues --   -1.02484  -1.02429  -1.02133  -0.98927  -0.98145
 Alpha  occ. eigenvalues --   -0.97399  -0.88415  -0.87122  -0.86468  -0.86128
 Alpha  occ. eigenvalues --   -0.85562  -0.85086  -0.84866  -0.83747  -0.83639
 Alpha  occ. eigenvalues --   -0.83055  -0.82651  -0.81976  -0.80889  -0.80205
 Alpha  occ. eigenvalues --   -0.79734  -0.79139  -0.77608  -0.77266  -0.76754
 Alpha  occ. eigenvalues --   -0.75858  -0.75117  -0.74756  -0.73404  -0.72940
 Alpha  occ. eigenvalues --   -0.71813  -0.71319  -0.71164  -0.70647  -0.70097
 Alpha  occ. eigenvalues --   -0.69857  -0.69673  -0.68027  -0.66690  -0.66495
 Alpha  occ. eigenvalues --   -0.65927  -0.65232  -0.64067  -0.63019  -0.62712
 Alpha  occ. eigenvalues --   -0.61312  -0.60794  -0.60696  -0.58720  -0.58664
 Alpha  occ. eigenvalues --   -0.58490  -0.58351  -0.58128  -0.57618  -0.57432
 Alpha  occ. eigenvalues --   -0.56827  -0.55851  -0.55515  -0.55170  -0.54486
 Alpha  occ. eigenvalues --   -0.53806  -0.53528  -0.53187  -0.53017  -0.52288
 Alpha  occ. eigenvalues --   -0.52001  -0.51676  -0.51349  -0.51111  -0.50510
 Alpha  occ. eigenvalues --   -0.50160  -0.49987  -0.49889  -0.49742  -0.49564
 Alpha  occ. eigenvalues --   -0.49279  -0.49112  -0.48951  -0.48846  -0.48576
 Alpha  occ. eigenvalues --   -0.48138  -0.48010  -0.47953  -0.47753  -0.47233
 Alpha  occ. eigenvalues --   -0.47190  -0.46885  -0.46611  -0.46231  -0.45947
 Alpha  occ. eigenvalues --   -0.45803  -0.45645  -0.45382  -0.45248  -0.44919
 Alpha  occ. eigenvalues --   -0.44732  -0.44560  -0.44456  -0.44161  -0.44007
 Alpha  occ. eigenvalues --   -0.43922  -0.43701  -0.43578  -0.43433  -0.43199
 Alpha  occ. eigenvalues --   -0.43050  -0.42859  -0.42661  -0.42125  -0.42008
 Alpha  occ. eigenvalues --   -0.41892  -0.41509  -0.41418  -0.41294  -0.41029
 Alpha  occ. eigenvalues --   -0.40695  -0.40594  -0.40549  -0.40223  -0.39825
 Alpha  occ. eigenvalues --   -0.39602  -0.39597  -0.39465  -0.38991  -0.38958
 Alpha  occ. eigenvalues --   -0.38778  -0.38718  -0.38613  -0.38604  -0.38505
 Alpha  occ. eigenvalues --   -0.37959  -0.37839  -0.37736  -0.37506  -0.37290
 Alpha  occ. eigenvalues --   -0.37041  -0.36697  -0.36423  -0.36147  -0.36104
 Alpha  occ. eigenvalues --   -0.35151  -0.35039  -0.34874  -0.34731  -0.34256
 Alpha  occ. eigenvalues --   -0.33608  -0.33600  -0.33262  -0.33049  -0.33007
 Alpha  occ. eigenvalues --   -0.32729  -0.32424  -0.31831  -0.31650  -0.31276
 Alpha  occ. eigenvalues --   -0.30815  -0.30487  -0.29823  -0.29298  -0.28741
 Alpha  occ. eigenvalues --   -0.28439  -0.27877  -0.27754  -0.27217  -0.26921
 Alpha  occ. eigenvalues --   -0.26747  -0.26229  -0.23106  -0.21836
 Alpha virt. eigenvalues --   -0.09083  -0.06536  -0.01191  -0.00569   0.00999
 Alpha virt. eigenvalues --    0.03245   0.03615   0.04412   0.04723   0.05111
 Alpha virt. eigenvalues --    0.05368   0.05823   0.07281   0.08727   0.08999

 Mulliken charges:
               1
     1  Mg   0.817347
     2  C    0.059668
     3  C   -0.175365
     4  C   -0.111487
     5  C   -0.126633
     6  N   -0.641542
     7  C    0.317748
     8  C   -0.162385
     9  C   -0.156034
    10  C    0.356165
    11  C   -0.309037
    12  C   -0.144331
    13  C   -0.246153
    14  C    0.600735
    15  O   -0.504470
    16  O   -0.459866
    17  N   -0.729750
    18  C    0.318864
    19  C   -0.000336
    20  C   -0.093786
    21  C    0.354284
    22  C   -0.368106
    23  C    0.253509
    24  O   -0.362612
    25  N   -0.639211
    26  C    0.282636
    27  C   -0.024356
    28  C    0.041924
    29  C    0.218191
    30  C    0.231723
    31  C   -0.250046
    32  C   -0.293524
    33  N   -0.722611
    34  C    0.273145
    35  C    0.004563
    36  C   -0.014671
    37  C    0.333767
    38  C   -0.356638
    39  C    0.341744
    40  O   -0.508871
    41  C   -0.326016
    42  C    0.620783
    43  O   -0.480448
    44  O   -0.456461
    45  C   -0.100429
    46  C   -0.006481
    47  C   -0.141381
    48  C    0.136385
    49  C   -0.383762
    50  C   -0.242046
    51  C   -0.188031
    52  C   -0.183100
    53  C   -0.044964
    54  C   -0.318451
    55  C   -0.144592
    56  C   -0.187279
    57  C   -0.161307
    58  C   -0.043947
    59  C   -0.328040
    60  C   -0.155386
    61  C   -0.180433
    62  C   -0.146379
    63  C   -0.064340
    64  C   -0.286782
    65  C   -0.304903
    66  H    0.077131
    67  H    0.122110
    68  H    0.078812
    69  H    0.123490
    70  H    0.097081
    71  H    0.119287
    72  H    0.111610
    73  H    0.139399
    74  H    0.098388
    75  H    0.121941
    76  H    0.120225
    77  H    0.136017
    78  H    0.138806
    79  H    0.138946
    80  H    0.117036
    81  H    0.062108
    82  H    0.112941
    83  H    0.122161
    84  H    0.099010
    85  H    0.128338
    86  H    0.094766
    87  H    0.129755
    88  H    0.156652
    89  H    0.143305
    90  H    0.171284
    91  H    0.123720
    92  H    0.144585
    93  H    0.083659
    94  H    0.144095
    95  H    0.116709
    96  H    0.133971
    97  H    0.100872
    98  H    0.100424
    99  H    0.104824
   100  H    0.110326
   101  H    0.080273
   102  H    0.099761
   103  H    0.071698
   104  H    0.097842
   105  H    0.094193
   106  H    0.081193
   107  H    0.088990
   108  H    0.041804
   109  H    0.106882
   110  H    0.083803
   111  H    0.095943
   112  H    0.077926
   113  H    0.075543
   114  H    0.101629
   115  H    0.091770
   116  H    0.113097
   117  H    0.051402
   118  H    0.094181
   119  H    0.078193
   120  H    0.083256
   121  H    0.103555
   122  H    0.072647
   123  H    0.078084
   124  H    0.057196
   125  H    0.110333
   126  H    0.111737
   127  H    0.105073
   128  H    0.102746
   129  H    0.084455
   130  H    0.130082
   131  H    0.152120
   132  H    0.150233
   133  O   -0.440565
   134  H    0.062742
 Sum of Mulliken charges =  -0.00000

 Dipole moment (field-independent basis, Debye):
    X=              2.0568    Y=             -3.4424    Z=              0.1766  Tot=              4.0139
 Quadrupole moment (field-independent basis, Debye-Ang):
   XX=           -371.9155   YY=           -425.0227   ZZ=           -393.9807
   XY=             -0.7106   XZ=             21.1194   YZ=            -40.3270

 Normal termination of Gaussian 16 at Fri Oct 11 00:43:00 2019.
