 Gaussian 16, Revision A.03,
 Gaussian 16:  ES64L-G16RevA.03 25-Dec-2016

 ----------------------------------------------------------------------
 # td=(NStates=1) iop(3/107=0140000000,3/108=0140000000) iop(3/107=0140
 000000,3/108=0140000000) CAM-B3LYP/6-31G(d,p)
 ----------------------------------------------------------------------

 --
 TD
 --
 Symbolic Z-matrix:
 Charge =  0 Multiplicity = 1

                         Standard orientation:
 ---------------------------------------------------------------------
 Center     Atomic      Atomic             Coordinates (Angstroms)
 Number     Number       Type             X           Y           Z
 ---------------------------------------------------------------------
      1         12           0       -5.662402    1.294839    0.231032
      2          6           0       -5.061243   -2.112582   -0.331011
      3          6           0       -3.431818    1.129040    2.832451
      4          6           0       -6.218000    4.482071    0.892630
      5          6           0       -7.983272    1.245087   -2.439706
      6          7           0       -4.384102   -0.342139    1.079945
      7          6           0       -4.372336   -1.638306    0.789176
      8          6           0       -3.338726   -2.384189    1.540128
      9          6           0       -2.963911   -1.389469    2.698997
     10          6           0       -3.600022   -0.137767    2.174307
     11          6           0       -3.385383   -1.814901    4.021801
     12          6           0       -2.119152   -2.760952    0.741287
     13          6           0       -1.040886   -3.626564    1.564994
     14          6           0        0.179785   -3.928766    0.779475
     15          8           0        0.311383   -3.496637   -0.397141
     16          8           0        0.991942   -4.746860    1.335663
     17          7           0       -4.926270    2.644923    1.503308
     18          6           0       -4.025499    2.461543    2.461982
     19          6           0       -3.742589    3.502703    3.289861
     20          6           0       -4.503235    4.588424    2.697516
     21          6           0       -5.215214    3.989651    1.535555
     22          6           0       -2.841697    3.716582    4.453868
     23          6           0       -4.591949    5.991777    2.946031
     24          8           0       -3.899195    6.693670    3.838103
     25          7           0       -6.780967    2.632851   -0.670279
     26          6           0       -6.908938    3.949371   -0.342195
     27          6           0       -7.778537    4.658969   -1.244701
     28          6           0       -8.286082    3.759063   -2.127220
     29          6           0       -7.637678    2.502753   -1.777239
     30          6           0       -8.218227    6.139357   -1.162844
     31          6           0       -9.284091    3.895241   -3.220784
     32          6           0       -8.587150    4.204683   -4.553138
     33          7           0       -6.322839   -0.139328   -1.186840
     34          6           0       -7.211734    0.031045   -2.225472
     35          6           0       -7.510484   -1.244430   -2.854403
     36          6           0       -6.706168   -2.092853   -2.129088
     37          6           0       -6.067249   -1.426536   -1.079329
     38          6           0       -8.447446   -1.484826   -4.031857
     39          6           0       -6.247370   -3.533916   -2.013806
     40          8           0       -6.698869   -4.455116   -2.649170
     41          6           0       -5.143291   -3.585200   -0.938502
     42          6           0       -5.363125   -4.734090   -0.013394
     43          8           0       -5.625247   -4.543371    1.113725
     44          8           0       -5.187958   -5.964398   -0.532557
     45          6           0       -5.412505   -7.017018    0.367641
     46          6           0        2.296311   -5.040790    0.606376
     47          6           0        3.351892   -4.106286    0.929228
     48          6           0        3.941253   -3.232750    0.181318
     49          6           0        3.759027   -2.992486   -1.312119
     50          6           0        5.144487   -2.511106    0.763568
     51          6           0        6.577663   -2.827125    0.111990
     52          6           0        7.610379   -1.814960    0.658620
     53          6           0        8.953018   -2.000574   -0.166120
     54          6           0        9.701463   -3.406725    0.075869
     55          6           0        9.913592   -0.928581    0.352804
     56          6           0       11.318981   -0.847959   -0.356904
     57          6           0       12.151646    0.356870    0.181732
     58          6           0       13.607263    0.489788   -0.550521
     59          6           0       14.480830   -0.671875   -0.228359
     60          6           0       14.186437    1.791441   -0.271458
     61          6           0       15.439104    2.118966   -1.070444
     62          6           0       16.068576    3.450869   -0.654402
     63          6           0       17.286347    3.831421   -1.404266
     64          6           0       17.044404    4.034450   -2.881787
     65          6           0       18.052138    5.031262   -0.699532
     66          1           0       -2.771896    0.984132    3.720210
     67          1           0       -6.574166    5.486576    1.049539
     68          1           0       -8.381067    1.187021   -3.299822
     69          1           0       -3.662795   -3.314839    1.984594
     70          1           0       -1.867884   -1.410125    2.652052
     71          1           0       -3.020761   -2.896502    4.344700
     72          1           0       -2.995014   -1.104147    4.895458
     73          1           0       -4.477827   -1.835140    4.131596
     74          1           0       -2.323697   -3.240100   -0.167390
     75          1           0       -1.517615   -1.884416    0.291413
     76          1           0       -0.620539   -3.158069    2.203610
     77          1           0       -1.537717   -4.425898    2.131954
     78          1           0       -1.867333    3.387122    4.062715
     79          1           0       -2.710732    4.745663    4.740319
     80          1           0       -3.332932    3.212223    5.256790
     81          1           0       -5.218750    6.672854    2.283533
     82          1           0       -9.928892    3.088695   -3.591018
     83          1           0      -10.012784    4.636679   -2.764866
     84          1           0       -9.235582    4.611979   -5.447756
     85          1           0       -7.961985    5.121583   -4.410188
     86          1           0       -7.860967    3.490916   -4.983649
     87          1           0       -8.025772   -0.627204   -4.678178
     88          1           0       -8.327185   -2.494394   -4.518794
     89          1           0       -9.552806   -1.539547   -3.880495
     90          1           0       -4.191688   -3.940174   -1.587485
     91          1           0        2.449320   -6.197523    0.671495
     92          1           0        1.844517   -4.885132   -0.419690
     93          1           0        3.618244   -4.179306    1.994445
     94          1           0        2.778669   -3.150177   -1.448932
     95          1           0        3.564507   -1.856417   -1.404633
     96          1           0        4.400978   -3.568335   -1.981285
     97          1           0        5.011268   -1.424709    0.620521
     98          1           0        5.368461   -2.661907    1.775574
     99          1           0        6.832653   -3.882876   -0.062691
    100          1           0        6.487870   -2.764697   -0.921078
    101          1           0        7.247704   -0.797429    0.563522
    102          1           0        7.856784   -2.311697    1.607674
    103          1           0        8.795265   -1.811221   -1.224817
    104          1           0        8.991262   -4.111810   -0.279941
    105          1           0       10.531202   -3.662761   -0.464803
    106          1           0        9.804130   -3.704111    1.097392
    107          1           0        9.507248    0.148786    0.236737
    108          1           0       10.069423   -1.056577    1.390231
    109          1           0       11.878118   -1.788128   -0.066924
    110          1           0       11.373513   -0.773830   -1.393899
    111          1           0       11.475937    1.148336   -0.330691
    112          1           0       12.315797    0.561502    1.067842
    113          1           0       13.091254    0.539676   -1.561944
    114          1           0       15.001358   -0.781976    0.711419
    115          1           0       14.172328   -1.560575   -0.416702
    116          1           0       15.270605   -0.327757   -0.846732
    117          1           0       13.512458    2.869857   -0.317338
    118          1           0       14.581388    2.084059    0.901763
    119          1           0       16.044050    1.294255   -1.005630
    120          1           0       15.373490    2.198101   -2.209383
    121          1           0       15.334037    4.364898   -0.833424
    122          1           0       16.405560    3.446611    0.516723
    123          1           0       18.015268    3.071787   -1.390585
    124          1           0       15.928453    4.577982   -2.975997
    125          1           0       18.004699    4.687612   -3.243301
    126          1           0       16.922285    3.050603   -3.271991
    127          1           0       18.368871    4.897123    0.385795
    128          1           0       18.894777    5.333432   -1.217977
    129          1           0       17.156290    5.883944   -0.762556
    130          1           0       -5.547784   -8.002495   -0.217038
    131          1           0       -6.526249   -7.035759    0.944920
    132          1           0       -4.548434   -6.801442    1.096933
    133          8           0       -7.762134    6.795098   -0.312687
    134          1           0       -8.788028    6.460797   -2.166281
 ---------------------------------------------------------------------

 SCF Done:  E(RCAM-B3LYP) =  -3043.34131818     A.U. after   16 cycles

 Excitation energies and oscillator strengths:

 Excited State   1:      Singlet-A      2.0252 eV  612.21 nm  f=0.1486  <S**2>=0.000
     243 -> 245       -0.28634
     243 -> 246        0.24035
     244 -> 245        0.55647
     244 -> 246        0.20492
 This state for optimization and/or second-order correction.
 Total Energy, E(TD-HF/TD-DFT) =  -3043.26689429
 Copying the excited state density for this state as the 1-particle RhoCI density.

 The electronic state is 1-A.
 Alpha  occ. eigenvalues --  -46.81941 -19.22816 -19.22466 -19.19138 -19.16907
 Alpha  occ. eigenvalues --  -19.16572 -19.15690 -19.15434 -14.38675 -14.37427
 Alpha  occ. eigenvalues --  -14.37112 -14.35728 -10.34540 -10.34523 -10.32408
 Alpha  occ. eigenvalues --  -10.30961 -10.29894 -10.29341 -10.28468 -10.27362
 Alpha  occ. eigenvalues --  -10.27128 -10.27098 -10.27091 -10.26414 -10.25941
 Alpha  occ. eigenvalues --  -10.25782 -10.25576 -10.24862 -10.24705 -10.24673
 Alpha  occ. eigenvalues --  -10.24376 -10.24261 -10.24056 -10.23932 -10.23820
 Alpha  occ. eigenvalues --  -10.23772 -10.23587 -10.23440 -10.23403 -10.23386
 Alpha  occ. eigenvalues --  -10.23127 -10.23113 -10.23080 -10.22993 -10.22945
 Alpha  occ. eigenvalues --  -10.22773 -10.22361 -10.22183 -10.22090 -10.21983
 Alpha  occ. eigenvalues --  -10.21943 -10.21879 -10.21564 -10.21439 -10.21294
 Alpha  occ. eigenvalues --  -10.21291 -10.21171 -10.20965 -10.20748 -10.20569
 Alpha  occ. eigenvalues --  -10.20549 -10.20532 -10.20447 -10.19479 -10.19002
 Alpha  occ. eigenvalues --  -10.18472  -3.10502  -1.85436  -1.84988  -1.84899
 Alpha  occ. eigenvalues --   -1.15283  -1.14239  -1.11412  -1.07063  -1.06646
 Alpha  occ. eigenvalues --   -1.02009  -1.01631  -1.01061  -1.00208  -0.99589
 Alpha  occ. eigenvalues --   -0.99024  -0.87203  -0.86892  -0.86208  -0.86036
 Alpha  occ. eigenvalues --   -0.85827  -0.84757  -0.84421  -0.83759  -0.83569
 Alpha  occ. eigenvalues --   -0.83198  -0.82939  -0.81805  -0.80548  -0.79920
 Alpha  occ. eigenvalues --   -0.78703  -0.78266  -0.77436  -0.76862  -0.76509
 Alpha  occ. eigenvalues --   -0.75779  -0.75094  -0.74698  -0.72674  -0.72394
 Alpha  occ. eigenvalues --   -0.72066  -0.71825  -0.70462  -0.70153  -0.69697
 Alpha  occ. eigenvalues --   -0.69329  -0.68892  -0.67577  -0.66713  -0.66474
 Alpha  occ. eigenvalues --   -0.65918  -0.65547  -0.63488  -0.63094  -0.61850
 Alpha  occ. eigenvalues --   -0.61498  -0.61289  -0.60783  -0.59856  -0.59022
 Alpha  occ. eigenvalues --   -0.58348  -0.58196  -0.57700  -0.57298  -0.57046
 Alpha  occ. eigenvalues --   -0.56685  -0.56431  -0.55532  -0.55174  -0.54836
 Alpha  occ. eigenvalues --   -0.53819  -0.53692  -0.53308  -0.52767  -0.52253
 Alpha  occ. eigenvalues --   -0.52018  -0.51456  -0.51285  -0.51203  -0.51000
 Alpha  occ. eigenvalues --   -0.50395  -0.50174  -0.49755  -0.49485  -0.49478
 Alpha  occ. eigenvalues --   -0.49161  -0.48903  -0.48686  -0.48450  -0.48243
 Alpha  occ. eigenvalues --   -0.47753  -0.47688  -0.47586  -0.47530  -0.47400
 Alpha  occ. eigenvalues --   -0.46614  -0.46313  -0.46083  -0.45968  -0.45723
 Alpha  occ. eigenvalues --   -0.45446  -0.45376  -0.45349  -0.45191  -0.44864
 Alpha  occ. eigenvalues --   -0.44718  -0.44624  -0.44330  -0.44061  -0.44013
 Alpha  occ. eigenvalues --   -0.43996  -0.43456  -0.43206  -0.43009  -0.42795
 Alpha  occ. eigenvalues --   -0.42623  -0.42519  -0.42398  -0.42184  -0.41723
 Alpha  occ. eigenvalues --   -0.41483  -0.41402  -0.41286  -0.41219  -0.40940
 Alpha  occ. eigenvalues --   -0.40484  -0.40303  -0.40141  -0.39850  -0.39770
 Alpha  occ. eigenvalues --   -0.39649  -0.39463  -0.39433  -0.39270  -0.39031
 Alpha  occ. eigenvalues --   -0.38897  -0.38554  -0.38490  -0.38296  -0.38040
 Alpha  occ. eigenvalues --   -0.37815  -0.37631  -0.37515  -0.37328  -0.37213
 Alpha  occ. eigenvalues --   -0.37078  -0.36494  -0.36280  -0.35687  -0.35428
 Alpha  occ. eigenvalues --   -0.35015  -0.34986  -0.34860  -0.34451  -0.34235
 Alpha  occ. eigenvalues --   -0.33940  -0.33674  -0.33336  -0.33018  -0.32905
 Alpha  occ. eigenvalues --   -0.32443  -0.32184  -0.32129  -0.31905  -0.31498
 Alpha  occ. eigenvalues --   -0.31100  -0.30623  -0.29635  -0.29284  -0.29114
 Alpha  occ. eigenvalues --   -0.28859  -0.28685  -0.28358  -0.27723  -0.27642
 Alpha  occ. eigenvalues --   -0.26894  -0.26435  -0.22738  -0.21468
 Alpha virt. eigenvalues --   -0.08664  -0.06754  -0.01291  -0.00724   0.01141
 Alpha virt. eigenvalues --    0.02927   0.03127   0.04052   0.04337   0.04599
 Alpha virt. eigenvalues --    0.04974   0.05692   0.07773   0.08705   0.09312

 Mulliken charges:
               1
     1  Mg   0.861453
     2  C    0.048116
     3  C   -0.205035
     4  C   -0.184372
     5  C   -0.080837
     6  N   -0.608181
     7  C    0.318891
     8  C   -0.159291
     9  C   -0.136631
    10  C    0.336168
    11  C   -0.303631
    12  C   -0.188060
    13  C   -0.237547
    14  C    0.583788
    15  O   -0.519387
    16  O   -0.452068
    17  N   -0.697340
    18  C    0.312300
    19  C    0.066172
    20  C   -0.011216
    21  C    0.324900
    22  C   -0.368976
    23  C    0.180282
    24  O   -0.468839
    25  N   -0.678572
    26  C    0.255074
    27  C   -0.059144
    28  C    0.062853
    29  C    0.224032
    30  C    0.260712
    31  C   -0.246755
    32  C   -0.325687
    33  N   -0.672444
    34  C    0.200857
    35  C    0.014668
    36  C   -0.006869
    37  C    0.278427
    38  C   -0.376986
    39  C    0.375070
    40  O   -0.446606
    41  C   -0.322554
    42  C    0.629561
    43  O   -0.445566
    44  O   -0.432470
    45  C   -0.072444
    46  C   -0.045086
    47  C   -0.099058
    48  C    0.123100
    49  C   -0.371864
    50  C   -0.216879
    51  C   -0.208105
    52  C   -0.164160
    53  C   -0.072057
    54  C   -0.335497
    55  C   -0.153994
    56  C   -0.188171
    57  C   -0.168023
    58  C   -0.071940
    59  C   -0.304317
    60  C   -0.148462
    61  C   -0.171589
    62  C   -0.143026
    63  C   -0.058036
    64  C   -0.285166
    65  C   -0.301183
    66  H    0.083443
    67  H    0.125611
    68  H    0.070784
    69  H    0.126084
    70  H    0.115526
    71  H    0.095941
    72  H    0.093105
    73  H    0.126243
    74  H    0.123434
    75  H    0.111106
    76  H    0.136724
    77  H    0.126360
    78  H    0.126230
    79  H    0.167859
    80  H    0.134917
    81  H    0.102074
    82  H    0.126917
    83  H    0.107034
    84  H    0.097925
    85  H    0.105765
    86  H    0.125400
    87  H    0.117798
    88  H    0.145307
    89  H    0.135868
    90  H    0.154548
    91  H    0.121014
    92  H    0.146543
    93  H    0.086130
    94  H    0.151299
    95  H    0.107225
    96  H    0.131557
    97  H    0.091488
    98  H    0.100048
    99  H    0.092284
   100  H    0.095501
   101  H    0.109112
   102  H    0.106950
   103  H    0.085732
   104  H    0.096024
   105  H    0.119975
   106  H    0.106644
   107  H    0.062940
   108  H    0.097319
   109  H    0.079173
   110  H    0.093945
   111  H    0.068643
   112  H    0.087126
   113  H    0.089683
   114  H    0.107575
   115  H    0.112434
   116  H    0.102782
   117  H    0.061229
   118  H    0.055751
   119  H    0.108178
   120  H    0.077894
   121  H    0.073550
   122  H    0.064171
   123  H    0.092483
   124  H    0.069586
   125  H    0.087151
   126  H    0.118337
   127  H    0.097311
   128  H    0.105453
   129  H    0.066952
   130  H    0.128060
   131  H    0.099706
   132  H    0.118353
   133  O   -0.365182
   134  H    0.067563
 Sum of Mulliken charges =  -0.00000

 Dipole moment (field-independent basis, Debye):
    X=              2.2821    Y=             -5.5990    Z=             -1.5967  Tot=              6.2535
 Quadrupole moment (field-independent basis, Debye-Ang):
   XX=           -357.8907   YY=           -438.4590   ZZ=           -394.8489
   XY=            -17.2867   XZ=             20.7893   YZ=            -39.4283

 Normal termination of Gaussian 16 at Thu Oct  3 16:37:08 2019.
