 Gaussian 16, Revision A.03,
 Gaussian 16:  ES64L-G16RevA.03 25-Dec-2016

 ----------------------------------------------------------------------
 # td=(NStates=1) iop(3/107=0140000000,3/108=0140000000) iop(3/107=0140
 000000,3/108=0140000000) CAM-B3LYP/6-31G(d,p)
 ----------------------------------------------------------------------

 --
 TD
 --
 Symbolic Z-matrix:
 Charge =  0 Multiplicity = 1

                         Standard orientation:
 ---------------------------------------------------------------------
 Center     Atomic      Atomic             Coordinates (Angstroms)
 Number     Number       Type             X           Y           Z
 ---------------------------------------------------------------------
      1         12           0       -5.733397    1.157493    0.240188
      2          6           0       -4.955670   -2.154015   -0.325700
      3          6           0       -3.482477    1.165061    2.898058
      4          6           0       -6.306453    4.480314    0.767229
      5          6           0       -8.007915    1.198039   -2.438940
      6          7           0       -4.365547   -0.236370    1.079898
      7          6           0       -4.230348   -1.527819    0.680971
      8          6           0       -3.200966   -2.211855    1.447347
      9          6           0       -2.925759   -1.403334    2.676557
     10          6           0       -3.569422   -0.072737    2.199302
     11          6           0       -3.494432   -1.827096    4.081961
     12          6           0       -1.904995   -2.669915    0.645906
     13          6           0       -0.861610   -3.426153    1.464914
     14          6           0        0.260079   -3.924916    0.571194
     15          8           0        0.499344   -3.499872   -0.523696
     16          8           0        1.150449   -4.571659    1.261180
     17          7           0       -5.099867    2.561066    1.542688
     18          6           0       -4.155819    2.402345    2.550755
     19          6           0       -3.945070    3.635403    3.293915
     20          6           0       -4.651491    4.561394    2.669638
     21          6           0       -5.346388    3.950503    1.609824
     22          6           0       -2.865426    3.749001    4.325359
     23          6           0       -4.651093    6.015183    2.885465
     24          8           0       -4.029392    6.674039    3.648081
     25          7           0       -6.888348    2.545189   -0.710372
     26          6           0       -7.035899    3.851101   -0.325297
     27          6           0       -8.022639    4.511801   -1.269133
     28          6           0       -8.509205    3.529546   -2.140572
     29          6           0       -7.807766    2.388681   -1.755229
     30          6           0       -8.496356    5.912993   -1.169811
     31          6           0       -9.500083    3.795684   -3.254423
     32          6           0       -8.837245    4.101697   -4.515663
     33          7           0       -6.418088   -0.085274   -1.059572
     34          6           0       -7.254268   -0.051052   -2.206651
     35          6           0       -7.492819   -1.340903   -2.785595
     36          6           0       -6.709871   -2.166994   -1.980303
     37          6           0       -5.977418   -1.434259   -1.062792
     38          6           0       -8.378833   -1.681081   -4.051237
     39          6           0       -6.193371   -3.541937   -1.955305
     40          8           0       -6.646596   -4.581370   -2.519983
     41          6           0       -4.840619   -3.570231   -0.929469
     42          6           0       -5.118920   -4.613813    0.058583
     43          8           0       -5.666153   -4.490787    1.170702
     44          8           0       -4.899092   -5.817428   -0.492045
     45          6           0       -5.277030   -6.858741    0.502681
     46          6           0        2.376538   -5.043237    0.677977
     47          6           0        3.506374   -4.138049    0.928481
     48          6           0        4.095840   -3.185617    0.126640
     49          6           0        3.748801   -3.076917   -1.294953
     50          6           0        5.171435   -2.365610    0.635895
     51          6           0        6.540150   -2.625072    0.098087
     52          6           0        7.707093   -1.889299    0.631996
     53          6           0        9.088583   -2.013786   -0.069676
     54          6           0        9.603216   -3.389938   -0.024587
     55          6           0        9.955142   -0.942406    0.531852
     56          6           0       11.406213   -0.799109   -0.192054
     57          6           0       12.283231    0.282003    0.302589
     58          6           0       13.630881    0.465404   -0.462054
     59          6           0       14.515154   -0.826656   -0.336558
     60          6           0       14.234988    1.749247   -0.099063
     61          6           0       15.389506    2.184222   -0.938973
     62          6           0       16.041189    3.602700   -0.570496
     63          6           0       17.324418    4.019671   -1.457141
     64          6           0       17.080533    4.253979   -2.998340
     65          6           0       17.951162    5.279936   -0.902866
     66          1           0       -2.889770    1.004690    3.792353
     67          1           0       -6.556241    5.634037    1.010068
     68          1           0       -8.631602    0.976062   -3.350407
     69          1           0       -3.689532   -3.169953    1.667385
     70          1           0       -2.135224   -1.471745    2.997204
     71          1           0       -3.166336   -2.634273    4.363399
     72          1           0       -3.561995   -1.021171    4.710288
     73          1           0       -4.565195   -2.173365    3.979475
     74          1           0       -2.241224   -3.405540   -0.212742
     75          1           0       -1.429990   -1.813360    0.331005
     76          1           0       -0.572632   -2.734742    2.321597
     77          1           0       -1.132971   -4.264348    1.992361
     78          1           0       -1.861863    3.500866    3.777875
     79          1           0       -2.636564    4.667404    4.719650
     80          1           0       -3.032660    2.933157    5.188641
     81          1           0       -5.647155    6.685673    2.482119
     82          1           0      -10.134990    2.880143   -3.273922
     83          1           0      -10.194390    4.448553   -3.020011
     84          1           0       -9.626905    4.389663   -5.376058
     85          1           0       -8.120111    4.884456   -4.480514
     86          1           0       -8.169245    3.293044   -4.694499
     87          1           0       -7.998150   -1.045163   -4.915033
     88          1           0       -8.427629   -2.767087   -4.089754
     89          1           0       -9.549852   -1.376831   -3.646414
     90          1           0       -3.978050   -3.799432   -1.718587
     91          1           0        2.385052   -6.086083    1.013251
     92          1           0        2.216127   -4.876062   -0.471725
     93          1           0        4.044537   -4.258130    1.818498
     94          1           0        2.599140   -3.454338   -1.511720
     95          1           0        3.708051   -2.266658   -1.839646
     96          1           0        4.507611   -3.905348   -1.835419
     97          1           0        4.908871   -1.304800    0.454914
     98          1           0        5.241440   -2.385016    1.865469
     99          1           0        6.843280   -3.811449    0.272508
    100          1           0        6.376530   -2.451233   -0.906054
    101          1           0        7.489141   -0.949568    0.552768
    102          1           0        7.974996   -2.116007    1.765084
    103          1           0        8.811023   -1.599075   -1.118343
    104          1           0        8.983101   -3.972280   -0.919290
    105          1           0       10.613322   -3.367633   -0.517229
    106          1           0        9.721998   -4.027766    0.831071
    107          1           0        9.498781    0.008999    0.664822
    108          1           0       10.243106   -1.343861    1.514805
    109          1           0       11.920064   -1.773222   -0.174843
    110          1           0       11.382700   -0.465835   -1.252312
    111          1           0       11.693651    1.367040    0.423925
    112          1           0       12.585910    0.142121    1.367303
    113          1           0       13.363886    0.544169   -1.537755
    114          1           0       14.836447   -0.716551    0.799765
    115          1           0       14.009655   -1.739542   -0.632802
    116          1           0       15.496989   -0.861327   -0.926219
    117          1           0       13.616664    2.699414   -0.094359
    118          1           0       14.558563    1.644365    0.838281
    119          1           0       16.283148    1.391789   -0.819250
    120          1           0       15.081636    2.388343   -2.121631
    121          1           0       15.260265    4.444416   -0.487106
    122          1           0       16.343759    3.605919    0.469252
    123          1           0       18.109448    3.183981   -1.513279
    124          1           0       16.400878    5.250771   -3.188706
    125          1           0       18.079298    4.361811   -3.547337
    126          1           0       16.570238    3.350369   -3.408048
    127          1           0       17.947480    5.151430    0.297971
    128          1           0       19.023674    5.232171   -1.339980
    129          1           0       17.382200    6.103129   -1.268720
    130          1           0       -4.924523   -7.711045   -0.151643
    131          1           0       -6.349349   -6.876948    0.666096
    132          1           0       -4.469157   -6.966742    1.356535
    133          8           0       -7.946433    6.698268   -0.476261
    134          1           0       -9.329753    6.243649   -1.840706
 ---------------------------------------------------------------------

 SCF Done:  E(RCAM-B3LYP) =  -3043.36295915     A.U. after   15 cycles

 Excitation energies and oscillator strengths:

 Excited State   1:      Singlet-A      2.0321 eV  610.13 nm  f=0.1869  <S**2>=0.000
     243 -> 245       -0.13512
     243 -> 246        0.24828
     244 -> 245        0.63588
 This state for optimization and/or second-order correction.
 Total Energy, E(TD-HF/TD-DFT) =  -3043.28828105
 Copying the excited state density for this state as the 1-particle RhoCI density.

 The electronic state is 1-A.
 Alpha  occ. eigenvalues --  -46.80204 -19.22440 -19.21647 -19.17899 -19.17277
 Alpha  occ. eigenvalues --  -19.16869 -19.16437 -19.16335 -14.38705 -14.37280
 Alpha  occ. eigenvalues --  -14.37251 -14.36174 -10.34363 -10.34295 -10.32173
 Alpha  occ. eigenvalues --  -10.31458 -10.30017 -10.28209 -10.27941 -10.27687
 Alpha  occ. eigenvalues --  -10.27574 -10.27572 -10.26630 -10.26350 -10.26279
 Alpha  occ. eigenvalues --  -10.26055 -10.25968 -10.25802 -10.25589 -10.25371
 Alpha  occ. eigenvalues --  -10.25332 -10.24654 -10.24453 -10.24060 -10.23970
 Alpha  occ. eigenvalues --  -10.23662 -10.23434 -10.23254 -10.23220 -10.23212
 Alpha  occ. eigenvalues --  -10.23137 -10.22978 -10.22917 -10.22648 -10.22579
 Alpha  occ. eigenvalues --  -10.22532 -10.22450 -10.22253 -10.22240 -10.22235
 Alpha  occ. eigenvalues --  -10.22102 -10.22033 -10.21982 -10.21898 -10.21754
 Alpha  occ. eigenvalues --  -10.21716 -10.21699 -10.21671 -10.21556 -10.21162
 Alpha  occ. eigenvalues --  -10.21057 -10.21044 -10.20735 -10.20211 -10.20036
 Alpha  occ. eigenvalues --  -10.19610  -3.09067  -1.83972  -1.83576  -1.83482
 Alpha  occ. eigenvalues --   -1.14989  -1.12778  -1.09169  -1.08677  -1.04977
 Alpha  occ. eigenvalues --   -1.04062  -1.02711  -1.00300  -0.99521  -0.98906
 Alpha  occ. eigenvalues --   -0.97499  -0.87405  -0.87223  -0.86509  -0.86302
 Alpha  occ. eigenvalues --   -0.85916  -0.85109  -0.84740  -0.83910  -0.83062
 Alpha  occ. eigenvalues --   -0.82358  -0.82198  -0.81861  -0.80790  -0.79692
 Alpha  occ. eigenvalues --   -0.79137  -0.78912  -0.78002  -0.77111  -0.76374
 Alpha  occ. eigenvalues --   -0.75262  -0.74906  -0.74515  -0.72190  -0.72151
 Alpha  occ. eigenvalues --   -0.71666  -0.70992  -0.70399  -0.70060  -0.69320
 Alpha  occ. eigenvalues --   -0.69284  -0.68758  -0.67912  -0.67322  -0.66039
 Alpha  occ. eigenvalues --   -0.65741  -0.64830  -0.64133  -0.62827  -0.62326
 Alpha  occ. eigenvalues --   -0.61310  -0.59786  -0.59275  -0.58773  -0.58688
 Alpha  occ. eigenvalues --   -0.58394  -0.58231  -0.57754  -0.57151  -0.57029
 Alpha  occ. eigenvalues --   -0.56211  -0.56114  -0.55122  -0.54797  -0.54345
 Alpha  occ. eigenvalues --   -0.54046  -0.53540  -0.53050  -0.52758  -0.52339
 Alpha  occ. eigenvalues --   -0.52031  -0.51635  -0.51489  -0.51141  -0.50891
 Alpha  occ. eigenvalues --   -0.50362  -0.49984  -0.49849  -0.49508  -0.49354
 Alpha  occ. eigenvalues --   -0.48735  -0.48634  -0.48238  -0.48035  -0.47843
 Alpha  occ. eigenvalues --   -0.47638  -0.47487  -0.47329  -0.47232  -0.46842
 Alpha  occ. eigenvalues --   -0.46756  -0.46386  -0.46063  -0.45995  -0.45724
 Alpha  occ. eigenvalues --   -0.45567  -0.45466  -0.45076  -0.45000  -0.44714
 Alpha  occ. eigenvalues --   -0.44667  -0.44558  -0.44427  -0.44198  -0.43776
 Alpha  occ. eigenvalues --   -0.43498  -0.43325  -0.43055  -0.42743  -0.42700
 Alpha  occ. eigenvalues --   -0.42577  -0.42413  -0.42175  -0.42104  -0.41701
 Alpha  occ. eigenvalues --   -0.41613  -0.41265  -0.41015  -0.40859  -0.40716
 Alpha  occ. eigenvalues --   -0.40534  -0.40460  -0.40019  -0.39909  -0.39668
 Alpha  occ. eigenvalues --   -0.39645  -0.39626  -0.39550  -0.39137  -0.39021
 Alpha  occ. eigenvalues --   -0.38981  -0.38593  -0.38442  -0.38040  -0.37979
 Alpha  occ. eigenvalues --   -0.37841  -0.37627  -0.37537  -0.37060  -0.36966
 Alpha  occ. eigenvalues --   -0.36486  -0.36349  -0.36049  -0.36035  -0.35667
 Alpha  occ. eigenvalues --   -0.35456  -0.35011  -0.34715  -0.34553  -0.34266
 Alpha  occ. eigenvalues --   -0.34201  -0.33949  -0.33742  -0.33269  -0.33085
 Alpha  occ. eigenvalues --   -0.32961  -0.32861  -0.32666  -0.32327  -0.31928
 Alpha  occ. eigenvalues --   -0.30966  -0.30955  -0.30383  -0.30288  -0.30173
 Alpha  occ. eigenvalues --   -0.28759  -0.28420  -0.27755  -0.27528  -0.27360
 Alpha  occ. eigenvalues --   -0.27198  -0.26520  -0.22744  -0.21497
 Alpha virt. eigenvalues --   -0.08497  -0.06151  -0.01653  -0.00395   0.00513
 Alpha virt. eigenvalues --    0.01718   0.02977   0.03721   0.04070   0.04294
 Alpha virt. eigenvalues --    0.05007   0.05761   0.07876   0.08643   0.09572

 Mulliken charges:
               1
     1  Mg   0.823353
     2  C    0.065122
     3  C   -0.206411
     4  C   -0.215346
     5  C   -0.171901
     6  N   -0.653741
     7  C    0.372847
     8  C   -0.206691
     9  C   -0.043721
    10  C    0.304109
    11  C   -0.326921
    12  C   -0.157025
    13  C   -0.273413
    14  C    0.581566
    15  O   -0.462322
    16  O   -0.435042
    17  N   -0.681986
    18  C    0.302677
    19  C    0.055559
    20  C    0.019752
    21  C    0.315696
    22  C   -0.367430
    23  C    0.236186
    24  O   -0.379721
    25  N   -0.669842
    26  C    0.307571
    27  C   -0.068576
    28  C    0.052190
    29  C    0.280340
    30  C    0.239395
    31  C   -0.205833
    32  C   -0.302873
    33  N   -0.721458
    34  C    0.217009
    35  C    0.018965
    36  C    0.026907
    37  C    0.288281
    38  C   -0.356605
    39  C    0.342737
    40  O   -0.475338
    41  C   -0.337834
    42  C    0.664973
    43  O   -0.508195
    44  O   -0.445460
    45  C   -0.089139
    46  C   -0.010605
    47  C   -0.110123
    48  C    0.173294
    49  C   -0.381916
    50  C   -0.240876
    51  C   -0.154996
    52  C   -0.141083
    53  C   -0.048764
    54  C   -0.313424
    55  C   -0.172410
    56  C   -0.181582
    57  C   -0.160306
    58  C   -0.058605
    59  C   -0.311872
    60  C   -0.147704
    61  C   -0.166015
    62  C   -0.183394
    63  C   -0.049310
    64  C   -0.303449
    65  C   -0.281658
    66  H    0.080073
    67  H    0.135808
    68  H    0.099840
    69  H    0.125575
    70  H    0.064418
    71  H    0.119068
    72  H    0.120930
    73  H    0.113585
    74  H    0.100499
    75  H    0.127859
    76  H    0.130976
    77  H    0.127750
    78  H    0.122891
    79  H    0.153414
    80  H    0.105933
    81  H    0.038985
    82  H    0.103127
    83  H    0.117572
    84  H    0.093247
    85  H    0.124062
    86  H    0.114298
    87  H    0.139184
    88  H    0.163623
    89  H    0.099851
    90  H    0.162158
    91  H    0.119040
    92  H    0.112847
    93  H    0.074169
    94  H    0.133441
    95  H    0.123648
    96  H    0.098913
    97  H    0.102531
    98  H    0.069933
    99  H    0.065420
   100  H    0.102295
   101  H    0.090515
   102  H    0.063975
   103  H    0.075381
   104  H    0.083331
   105  H    0.099615
   106  H    0.118911
   107  H    0.096550
   108  H    0.090738
   109  H    0.094546
   110  H    0.088357
   111  H    0.057759
   112  H    0.075867
   113  H    0.076157
   114  H    0.084480
   115  H    0.114958
   116  H    0.101711
   117  H    0.087949
   118  H    0.098021
   119  H    0.072560
   120  H    0.067065
   121  H    0.076252
   122  H    0.091447
   123  H    0.080498
   124  H    0.075263
   125  H    0.097052
   126  H    0.104013
   127  H    0.078176
   128  H    0.091648
   129  H    0.112689
   130  H    0.116174
   131  H    0.157426
   132  H    0.119799
   133  O   -0.393635
   134  H    0.060172
 Sum of Mulliken charges =  -0.00000

 Dipole moment (field-independent basis, Debye):
    X=              2.7134    Y=             -3.6786    Z=             -0.2860  Tot=              4.5800
 Quadrupole moment (field-independent basis, Debye-Ang):
   XX=           -379.1656   YY=           -438.7163   ZZ=           -388.7277
   XY=             -7.2997   XZ=             21.0590   YZ=            -31.3584

 Normal termination of Gaussian 16 at Fri Oct  4 19:15:27 2019.
