 Gaussian 16, Revision A.03,
 Gaussian 16:  ES64L-G16RevA.03 25-Dec-2016

 ----------------------------------------------------------------------
 # td=(NStates=1) iop(3/107=0140000000,3/108=0140000000) iop(3/107=0140
 000000,3/108=0140000000) CAM-B3LYP/6-31G(d,p)
 ----------------------------------------------------------------------

 --
 TD
 --
 Symbolic Z-matrix:
 Charge =  0 Multiplicity = 1

                         Standard orientation:
 ---------------------------------------------------------------------
 Center     Atomic      Atomic             Coordinates (Angstroms)
 Number     Number       Type             X           Y           Z
 ---------------------------------------------------------------------
      1         12           0       -5.641354    1.293263    0.170531
      2          6           0       -4.947775   -2.231671   -0.272343
      3          6           0       -3.451872    1.213645    2.799466
      4          6           0       -6.209368    4.485826    0.625445
      5          6           0       -8.011005    1.080547   -2.234996
      6          7           0       -4.403805   -0.254333    1.081303
      7          6           0       -4.190801   -1.627775    0.587605
      8          6           0       -3.227947   -2.321527    1.584213
      9          6           0       -2.962978   -1.287529    2.666762
     10          6           0       -3.588055    0.003048    2.051065
     11          6           0       -3.479637   -1.655926    4.097538
     12          6           0       -1.890049   -2.626809    0.705972
     13          6           0       -0.937979   -3.369078    1.389362
     14          6           0        0.263652   -3.891644    0.669365
     15          8           0        0.675952   -3.419351   -0.433325
     16          8           0        1.081411   -4.680086    1.460785
     17          7           0       -5.028103    2.553070    1.504657
     18          6           0       -3.954508    2.451559    2.410055
     19          6           0       -3.746518    3.723626    3.194045
     20          6           0       -4.604628    4.591518    2.569341
     21          6           0       -5.331267    3.940120    1.523728
     22          6           0       -2.842894    3.858237    4.406331
     23          6           0       -4.739566    5.982647    3.001119
     24          8           0       -4.203125    6.468582    4.061515
     25          7           0       -6.857981    2.644601   -0.708618
     26          6           0       -6.866691    3.955755   -0.456662
     27          6           0       -7.905176    4.583452   -1.263558
     28          6           0       -8.468515    3.550527   -2.128759
     29          6           0       -7.791389    2.371472   -1.734563
     30          6           0       -8.259941    6.013249   -1.313405
     31          6           0       -9.413543    3.783193   -3.312765
     32          6           0       -8.638859    4.108771   -4.602074
     33          7           0       -6.369481   -0.222611   -1.021064
     34          6           0       -7.271102   -0.116113   -1.978911
     35          6           0       -7.492398   -1.372203   -2.679410
     36          6           0       -6.632195   -2.246517   -2.109677
     37          6           0       -5.906968   -1.484860   -1.086682
     38          6           0       -8.538235   -1.714130   -3.819134
     39          6           0       -6.214913   -3.607913   -1.959591
     40          8           0       -6.523664   -4.561342   -2.592886
     41          6           0       -4.980318   -3.557126   -0.967082
     42          6           0       -5.245103   -4.726477   -0.003684
     43          8           0       -5.697052   -4.586168    1.174128
     44          8           0       -4.989616   -5.910945   -0.541534
     45          6           0       -5.256965   -7.062739    0.228672
     46          6           0        2.295448   -5.032469    0.841582
     47          6           0        3.461091   -4.083035    1.014437
     48          6           0        4.050969   -3.309969    0.081825
     49          6           0        3.678780   -3.234306   -1.362014
     50          6           0        5.093211   -2.388110    0.622751
     51          6           0        6.568685   -2.496345    0.065271
     52          6           0        7.715777   -1.731498    0.588938
     53          6           0        9.021294   -1.930911   -0.009736
     54          6           0        9.482395   -3.482293    0.290850
     55          6           0       10.073699   -0.856123    0.444574
     56          6           0       11.411299   -0.969730   -0.135811
     57          6           0       12.284520    0.261002    0.251301
     58          6           0       13.556843    0.451037   -0.569562
     59          6           0       14.388186   -0.761489   -0.307087
     60          6           0       14.194356    1.738510   -0.163614
     61          6           0       15.441432    2.186417   -0.892335
     62          6           0       15.946482    3.664818   -0.628130
     63          6           0       17.209322    4.030966   -1.487590
     64          6           0       17.018374    3.947283   -2.975886
     65          6           0       17.812503    5.401873   -1.071593
     66          1           0       -2.650585    1.154151    3.624119
     67          1           0       -6.441317    5.715967    0.541978
     68          1           0       -8.906899    1.134796   -3.028598
     69          1           0       -3.726943   -3.236317    2.002301
     70          1           0       -1.921599   -1.192224    2.667379
     71          1           0       -2.882431   -2.465043    4.492267
     72          1           0       -3.226454   -0.976798    4.796108
     73          1           0       -4.427606   -2.161267    4.061224
     74          1           0       -2.321025   -2.937879   -0.323943
     75          1           0       -1.678300   -1.574262    0.500118
     76          1           0       -0.604825   -2.999704    2.446750
     77          1           0       -1.366111   -4.346771    1.695523
     78          1           0       -1.681804    3.823084    4.096379
     79          1           0       -3.163532    5.029588    4.794011
     80          1           0       -3.006498    3.171250    5.240415
     81          1           0       -5.338914    6.862986    2.524519
     82          1           0      -10.118719    2.921235   -3.406897
     83          1           0       -9.922296    4.742251   -2.979487
     84          1           0       -9.320663    4.455965   -5.411754
     85          1           0       -7.911738    5.060353   -4.567608
     86          1           0       -8.332405    3.222426   -5.039460
     87          1           0       -8.036682   -1.224403   -4.701557
     88          1           0       -8.706524   -2.706826   -3.930220
     89          1           0       -9.578915   -1.369135   -3.473061
     90          1           0       -4.052328   -3.765638   -1.568676
     91          1           0        2.651520   -6.068386    1.268381
     92          1           0        1.930127   -5.457734   -0.340455
     93          1           0        3.834150   -4.234995    1.920362
     94          1           0        2.684625   -3.145543   -1.628562
     95          1           0        3.997641   -2.241978   -1.819213
     96          1           0        4.469046   -3.988286   -1.836778
     97          1           0        4.802142   -1.262215    0.397029
     98          1           0        5.297252   -2.287565    1.599476
     99          1           0        6.769484   -3.568659    0.059202
    100          1           0        6.410441   -2.371636   -1.062370
    101          1           0        7.498686   -0.731322    0.491687
    102          1           0        7.779156   -1.748841    1.658938
    103          1           0        8.896786   -1.879827   -1.045914
    104          1           0        8.842546   -4.072457   -0.058588
    105          1           0       10.392607   -3.729179   -0.253103
    106          1           0        9.649312   -3.372651    1.349715
    107          1           0        9.773581    0.106537    0.259704
    108          1           0        9.905034   -0.674370    1.585141
    109          1           0       11.939471   -2.050162    0.059991
    110          1           0       11.320702   -0.996742   -1.192351
    111          1           0       11.578668    1.164346    0.344928
    112          1           0       12.582299   -0.101146    1.321003
    113          1           0       13.155947    0.365439   -1.562753
    114          1           0       15.002934   -0.833374    0.747416
    115          1           0       13.847094   -1.809275   -0.537527
    116          1           0       15.347792   -0.870220   -0.978248
    117          1           0       13.522822    2.576196   -0.205736
    118          1           0       14.349275    1.569380    0.977129
    119          1           0       16.064390    1.166232   -0.835410
    120          1           0       15.228486    2.063504   -2.074934
    121          1           0       14.983060    4.287499   -0.800220
    122          1           0       16.229983    3.727849    0.468710
    123          1           0       17.719607    3.065932   -1.318635
    124          1           0       16.100426    4.634902   -3.365703
    125          1           0       17.821765    4.351861   -3.402377
    126          1           0       16.659954    3.121952   -3.348534
    127          1           0       17.939776    5.381831    0.006028
    128          1           0       18.846774    5.719344   -1.540636
    129          1           0       17.142621    6.145585   -1.365934
    130          1           0       -4.998140   -8.019827   -0.546295
    131          1           0       -6.183438   -7.111476    0.650705
    132          1           0       -4.699608   -7.193595    0.968383
    133          8           0       -7.860681    6.934291   -0.525019
    134          1           0       -9.130571    6.294508   -2.044876
 ---------------------------------------------------------------------

 SCF Done:  E(RCAM-B3LYP) =  -3043.38096333     A.U. after   15 cycles

 Excitation energies and oscillator strengths:

 Excited State   1:      Singlet-A      2.0985 eV  590.83 nm  f=0.1591  <S**2>=0.000
     243 -> 246        0.25191
     244 -> 245        0.65194
 This state for optimization and/or second-order correction.
 Total Energy, E(TD-HF/TD-DFT) =  -3043.30384551
 Copying the excited state density for this state as the 1-particle RhoCI density.

 The electronic state is 1-A.
 Alpha  occ. eigenvalues --  -46.80982 -19.23846 -19.22968 -19.17539 -19.17397
 Alpha  occ. eigenvalues --  -19.17300 -19.17053 -19.16885 -14.39002 -14.37427
 Alpha  occ. eigenvalues --  -14.37088 -14.36767 -10.35818 -10.35764 -10.31613
 Alpha  occ. eigenvalues --  -10.31523 -10.31188 -10.29014 -10.27878 -10.27531
 Alpha  occ. eigenvalues --  -10.27178 -10.26874 -10.26763 -10.26667 -10.26529
 Alpha  occ. eigenvalues --  -10.26370 -10.26365 -10.26215 -10.26173 -10.26037
 Alpha  occ. eigenvalues --  -10.25661 -10.25277 -10.25157 -10.24913 -10.24520
 Alpha  occ. eigenvalues --  -10.24094 -10.23960 -10.23807 -10.23744 -10.23703
 Alpha  occ. eigenvalues --  -10.23602 -10.23473 -10.23389 -10.23371 -10.23293
 Alpha  occ. eigenvalues --  -10.23071 -10.22791 -10.22683 -10.22528 -10.21953
 Alpha  occ. eigenvalues --  -10.21868 -10.21625 -10.21512 -10.21318 -10.21294
 Alpha  occ. eigenvalues --  -10.21285 -10.21170 -10.20863 -10.20838 -10.20789
 Alpha  occ. eigenvalues --  -10.20751 -10.20459 -10.20361 -10.19102 -10.18383
 Alpha  occ. eigenvalues --  -10.18360  -3.09785  -1.84703  -1.84246  -1.84227
 Alpha  occ. eigenvalues --   -1.14600  -1.12696  -1.09289  -1.04035  -1.03490
 Alpha  occ. eigenvalues --   -1.02864  -1.02834  -1.01979  -0.99732  -0.99498
 Alpha  occ. eigenvalues --   -0.98056  -0.89553  -0.87124  -0.86548  -0.85780
 Alpha  occ. eigenvalues --   -0.85653  -0.84602  -0.84303  -0.83682  -0.83502
 Alpha  occ. eigenvalues --   -0.83448  -0.82685  -0.82466  -0.80793  -0.80639
 Alpha  occ. eigenvalues --   -0.78877  -0.78283  -0.77898  -0.77831  -0.76656
 Alpha  occ. eigenvalues --   -0.75435  -0.74805  -0.74404  -0.74122  -0.72624
 Alpha  occ. eigenvalues --   -0.72190  -0.71946  -0.70863  -0.70132  -0.69977
 Alpha  occ. eigenvalues --   -0.69492  -0.68966  -0.67508  -0.67128  -0.66481
 Alpha  occ. eigenvalues --   -0.66183  -0.65090  -0.64823  -0.62889  -0.62554
 Alpha  occ. eigenvalues --   -0.62052  -0.61167  -0.60262  -0.60008  -0.59510
 Alpha  occ. eigenvalues --   -0.58749  -0.58372  -0.58372  -0.58255  -0.56848
 Alpha  occ. eigenvalues --   -0.56417  -0.56015  -0.55398  -0.55092  -0.54634
 Alpha  occ. eigenvalues --   -0.54544  -0.53265  -0.52942  -0.52691  -0.52228
 Alpha  occ. eigenvalues --   -0.52082  -0.51775  -0.51286  -0.51024  -0.50671
 Alpha  occ. eigenvalues --   -0.50456  -0.50283  -0.50073  -0.49710  -0.49264
 Alpha  occ. eigenvalues --   -0.49141  -0.48920  -0.48718  -0.48253  -0.48223
 Alpha  occ. eigenvalues --   -0.48101  -0.47739  -0.47383  -0.47291  -0.46895
 Alpha  occ. eigenvalues --   -0.46744  -0.46667  -0.46241  -0.46068  -0.45886
 Alpha  occ. eigenvalues --   -0.45710  -0.45479  -0.45404  -0.45165  -0.44939
 Alpha  occ. eigenvalues --   -0.44498  -0.44317  -0.44163  -0.43625  -0.43459
 Alpha  occ. eigenvalues --   -0.43291  -0.43245  -0.42996  -0.42894  -0.42747
 Alpha  occ. eigenvalues --   -0.42643  -0.42445  -0.42379  -0.42227  -0.41954
 Alpha  occ. eigenvalues --   -0.41885  -0.41523  -0.41286  -0.40846  -0.40767
 Alpha  occ. eigenvalues --   -0.40564  -0.40215  -0.40163  -0.39870  -0.39693
 Alpha  occ. eigenvalues --   -0.39445  -0.39422  -0.39229  -0.38992  -0.38903
 Alpha  occ. eigenvalues --   -0.38671  -0.38576  -0.38479  -0.38345  -0.37993
 Alpha  occ. eigenvalues --   -0.37918  -0.37430  -0.37226  -0.37054  -0.36848
 Alpha  occ. eigenvalues --   -0.36683  -0.36395  -0.36300  -0.36030  -0.35682
 Alpha  occ. eigenvalues --   -0.35479  -0.35211  -0.34821  -0.34767  -0.34477
 Alpha  occ. eigenvalues --   -0.34254  -0.33919  -0.33505  -0.33480  -0.33228
 Alpha  occ. eigenvalues --   -0.32527  -0.32087  -0.32034  -0.31534  -0.31391
 Alpha  occ. eigenvalues --   -0.31301  -0.31133  -0.30792  -0.30402  -0.30117
 Alpha  occ. eigenvalues --   -0.29615  -0.28887  -0.28306  -0.27823  -0.27480
 Alpha  occ. eigenvalues --   -0.26977  -0.26848  -0.23716  -0.21974
 Alpha virt. eigenvalues --   -0.08542  -0.07173  -0.02042  -0.01747   0.00224
 Alpha virt. eigenvalues --    0.01074   0.02636   0.03415   0.03709   0.04304
 Alpha virt. eigenvalues --    0.04479   0.05285   0.07688   0.08077   0.09087

 Mulliken charges:
               1
     1  Mg   0.843185
     2  C    0.203367
     3  C   -0.184386
     4  C   -0.211142
     5  C   -0.161668
     6  N   -0.592569
     7  C    0.197468
     8  C   -0.178013
     9  C   -0.123338
    10  C    0.348165
    11  C   -0.318750
    12  C   -0.168294
    13  C   -0.253119
    14  C    0.592070
    15  O   -0.476838
    16  O   -0.451734
    17  N   -0.708887
    18  C    0.261398
    19  C    0.094900
    20  C   -0.009489
    21  C    0.335646
    22  C   -0.409739
    23  C    0.217510
    24  O   -0.435824
    25  N   -0.707760
    26  C    0.337300
    27  C   -0.047605
    28  C    0.038341
    29  C    0.288941
    30  C    0.221221
    31  C   -0.243280
    32  C   -0.305741
    33  N   -0.678266
    34  C    0.281636
    35  C   -0.033537
    36  C    0.072165
    37  C    0.189586
    38  C   -0.350872
    39  C    0.362420
    40  O   -0.432253
    41  C   -0.364219
    42  C    0.615217
    43  O   -0.510746
    44  O   -0.413549
    45  C   -0.073959
    46  C    0.011936
    47  C   -0.125580
    48  C    0.159301
    49  C   -0.367211
    50  C   -0.223300
    51  C   -0.201945
    52  C   -0.157405
    53  C   -0.072932
    54  C   -0.306825
    55  C   -0.176438
    56  C   -0.175213
    57  C   -0.174372
    58  C   -0.039700
    59  C   -0.305673
    60  C   -0.150373
    61  C   -0.188255
    62  C   -0.167938
    63  C   -0.052363
    64  C   -0.287544
    65  C   -0.318623
    66  H    0.084102
    67  H    0.134785
    68  H    0.090490
    69  H    0.124362
    70  H    0.102534
    71  H    0.106579
    72  H    0.121666
    73  H    0.138392
    74  H    0.108353
    75  H    0.117925
    76  H    0.147853
    77  H    0.136845
    78  H    0.113640
    79  H    0.167969
    80  H    0.134258
    81  H    0.110938
    82  H    0.113955
    83  H    0.114250
    84  H    0.109373
    85  H    0.113249
    86  H    0.125675
    87  H    0.132962
    88  H    0.152793
    89  H    0.114622
    90  H    0.166369
    91  H    0.093341
    92  H    0.078562
    93  H    0.089236
    94  H    0.165618
    95  H    0.098206
    96  H    0.112107
    97  H    0.078798
    98  H    0.105095
    99  H    0.092630
   100  H    0.075740
   101  H    0.094661
   102  H    0.083475
   103  H    0.084906
   104  H    0.110150
   105  H    0.090038
   106  H    0.106517
   107  H    0.100070
   108  H    0.065043
   109  H    0.075713
   110  H    0.096830
   111  H    0.079264
   112  H    0.087189
   113  H    0.093147
   114  H    0.085953
   115  H    0.095366
   116  H    0.083773
   117  H    0.086697
   118  H    0.077575
   119  H    0.075723
   120  H    0.067489
   121  H    0.083816
   122  H    0.091399
   123  H    0.099388
   124  H    0.051359
   125  H    0.111880
   126  H    0.112288
   127  H    0.105210
   128  H    0.086953
   129  H    0.121884
   130  H    0.097237
   131  H    0.140905
   132  H    0.135377
   133  O   -0.449465
   134  H    0.064409
 Sum of Mulliken charges =  -0.00000

 Dipole moment (field-independent basis, Debye):
    X=              1.2840    Y=             -4.3757    Z=             -2.0713  Tot=              5.0086
 Quadrupole moment (field-independent basis, Debye-Ang):
   XX=           -388.2391   YY=           -439.4765   ZZ=           -392.2983
   XY=             19.4174   XZ=             29.0065   YZ=            -33.5330

 Normal termination of Gaussian 16 at Fri Oct  4 04:03:22 2019.
