 Gaussian 16, Revision A.03,
 Gaussian 16:  ES64L-G16RevA.03 25-Dec-2016

 ----------------------------------------------------------------------
 # td=(NStates=1) iop(3/107=0140000000,3/108=0140000000) iop(3/107=0140
 000000,3/108=0140000000) CAM-B3LYP/6-31G(d,p)
 ----------------------------------------------------------------------

 --
 TD
 --
 Symbolic Z-matrix:
 Charge =  0 Multiplicity = 1

                         Standard orientation:
 ---------------------------------------------------------------------
 Center     Atomic      Atomic             Coordinates (Angstroms)
 Number     Number       Type             X           Y           Z
 ---------------------------------------------------------------------
      1         12           0       -5.689481    1.283729    0.150705
      2          6           0       -5.021015   -2.113227   -0.432459
      3          6           0       -3.399985    1.215892    2.733243
      4          6           0       -6.207031    4.526349    0.662259
      5          6           0       -8.048896    1.108417   -2.340095
      6          7           0       -4.303415   -0.306160    0.940864
      7          6           0       -4.247713   -1.590787    0.672023
      8          6           0       -3.195958   -2.224826    1.473275
      9          6           0       -2.906165   -1.271533    2.628874
     10          6           0       -3.570098    0.034374    2.135487
     11          6           0       -3.503004   -1.746403    3.954404
     12          6           0       -1.865403   -2.635298    0.687712
     13          6           0       -0.954441   -3.482084    1.480560
     14          6           0        0.201133   -3.859302    0.629589
     15          8           0        0.410002   -3.566664   -0.622155
     16          8           0        1.078272   -4.669730    1.352571
     17          7           0       -4.877835    2.599917    1.502584
     18          6           0       -4.057425    2.453139    2.496524
     19          6           0       -3.797878    3.683615    3.211435
     20          6           0       -4.552430    4.604566    2.562717
     21          6           0       -5.202281    3.908663    1.450161
     22          6           0       -2.841560    3.835649    4.298565
     23          6           0       -4.820306    6.091317    2.872050
     24          8           0       -4.179088    6.637872    3.703888
     25          7           0       -6.887343    2.580828   -0.687206
     26          6           0       -6.964840    3.956265   -0.307755
     27          6           0       -8.055634    4.563772   -1.224032
     28          6           0       -8.404676    3.641464   -2.078134
     29          6           0       -7.679634    2.359686   -1.798307
     30          6           0       -8.272017    5.986166   -1.379659
     31          6           0       -9.511140    3.761230   -3.146394
     32          6           0       -8.951936    4.059150   -4.510888
     33          7           0       -6.357981   -0.230320   -1.038425
     34          6           0       -7.360135   -0.136240   -2.069231
     35          6           0       -7.443628   -1.397275   -2.759500
     36          6           0       -6.613295   -2.198401   -2.045975
     37          6           0       -5.919464   -1.462433   -1.070969
     38          6           0       -8.558767   -1.696511   -3.810475
     39          6           0       -6.126882   -3.621318   -1.924340
     40          8           0       -6.558512   -4.628510   -2.571591
     41          6           0       -5.032124   -3.546046   -0.776300
     42          6           0       -5.345611   -4.600236    0.285261
     43          8           0       -5.789062   -4.484418    1.440506
     44          8           0       -4.987621   -5.770286   -0.338156
     45          6           0       -5.272367   -6.906656    0.529666
     46          6           0        2.359561   -5.073275    0.620289
     47          6           0        3.383681   -4.060016    0.954042
     48          6           0        4.057579   -3.329714    0.141872
     49          6           0        3.758711   -3.270855   -1.317963
     50          6           0        5.184404   -2.398136    0.652751
     51          6           0        6.593931   -2.825732    0.040373
     52          6           0        7.536824   -1.704506    0.564331
     53          6           0        9.003434   -1.881166   -0.034789
     54          6           0        9.535792   -3.380966    0.081565
     55          6           0       10.008732   -0.870345    0.458648
     56          6           0       11.355665   -0.876582   -0.145771
     57          6           0       12.149008    0.360284    0.108518
     58          6           0       13.490589    0.489827   -0.716084
     59          6           0       14.451413   -0.697286   -0.393882
     60          6           0       14.260699    1.760672   -0.295799
     61          6           0       15.457806    2.207785   -0.984712
     62          6           0       16.018285    3.591941   -0.615109
     63          6           0       17.407652    3.870532   -1.209343
     64          6           0       17.313083    3.980994   -2.787909
     65          6           0       17.941551    5.213157   -0.762162
     66          1           0       -2.607620    1.376800    3.471454
     67          1           0       -6.501615    5.642016    0.730362
     68          1           0       -8.691774    1.346599   -3.184053
     69          1           0       -3.686730   -3.261981    1.754690
     70          1           0       -1.823669   -1.030475    2.784141
     71          1           0       -2.904276   -2.638047    4.300531
     72          1           0       -3.120007   -0.964647    4.741758
     73          1           0       -4.572212   -1.747002    4.058539
     74          1           0       -2.002050   -3.310787   -0.278656
     75          1           0       -1.210539   -1.698487    0.401188
     76          1           0       -0.464579   -3.152492    2.454211
     77          1           0       -1.401642   -4.436128    1.594526
     78          1           0       -1.816816    3.531425    4.156878
     79          1           0       -2.915273    4.886561    4.639927
     80          1           0       -3.162215    3.546040    5.199091
     81          1           0       -5.518005    6.453372    2.349542
     82          1           0      -10.058389    2.689798   -3.268673
     83          1           0      -10.324696    4.600121   -2.907037
     84          1           0       -9.666813    4.259879   -5.266143
     85          1           0       -8.173933    4.899134   -4.502221
     86          1           0       -8.466509    3.085461   -4.815418
     87          1           0       -8.528357   -1.089935   -4.743888
     88          1           0       -8.187006   -2.714415   -4.192062
     89          1           0       -9.418159   -1.771266   -3.336329
     90          1           0       -4.153214   -3.908591   -1.176421
     91          1           0        2.533294   -6.019981    1.058561
     92          1           0        2.266857   -5.147344   -0.422644
     93          1           0        3.477929   -4.008237    1.933284
     94          1           0        2.726591   -3.368591   -1.570651
     95          1           0        4.206700   -2.407189   -2.001001
     96          1           0        4.365085   -3.956465   -1.879849
     97          1           0        4.949338   -1.310681    0.378103
     98          1           0        5.350442   -2.256421    1.691265
     99          1           0        6.646199   -3.884024    0.465371
    100          1           0        6.378400   -2.602220   -1.035601
    101          1           0        7.275506   -0.718278    0.403267
    102          1           0        7.614819   -1.828547    1.698944
    103          1           0        8.960505   -2.051924   -1.108070
    104          1           0        8.780691   -4.005451   -0.628951
    105          1           0       10.476719   -3.542760   -0.180023
    106          1           0        9.367282   -3.726991    1.065824
    107          1           0        9.540884    0.063959    0.154596
    108          1           0       10.021576   -0.819389    1.563443
    109          1           0       12.099363   -1.682387    0.482747
    110          1           0       11.457550   -1.393972   -1.336518
    111          1           0       11.576620    1.237351    0.136286
    112          1           0       12.456673    0.299292    1.184480
    113          1           0       13.491933    0.571218   -1.877489
    114          1           0       14.700839   -0.771614    0.727786
    115          1           0       13.898904   -1.589563   -0.658430
    116          1           0       15.456597   -0.745811   -0.769614
    117          1           0       13.573850    2.614137   -0.493975
    118          1           0       14.572761    1.698372    0.728155
    119          1           0       16.399441    1.440217   -0.632216
    120          1           0       15.249780    2.077731   -2.124022
    121          1           0       15.351033    4.572789   -0.695940
    122          1           0       16.076563    3.549148    0.543262
    123          1           0       18.081603    3.061166   -0.816453
    124          1           0       16.623649    4.601514   -3.158113
    125          1           0       18.254335    4.310902   -3.434562
    126          1           0       17.187397    3.016062   -3.386606
    127          1           0       17.837552    5.169425    0.342264
    128          1           0       18.989651    5.376302   -0.901715
    129          1           0       17.410828    6.309370   -1.205990
    130          1           0       -5.055168   -7.646940   -0.118086
    131          1           0       -6.019996   -6.929212    0.780129
    132          1           0       -4.556000   -7.002385    1.429505
    133          8           0       -7.894137    6.771953   -0.489697
    134          1           0       -8.652302    6.171617   -2.621752
 ---------------------------------------------------------------------

 SCF Done:  E(RCAM-B3LYP) =  -3043.31717344     A.U. after   16 cycles

 Excitation energies and oscillator strengths:

 Excited State   1:      Singlet-A      1.9857 eV  624.37 nm  f=0.2587  <S**2>=0.000
     243 -> 246       -0.21428
     244 -> 245        0.66848
 This state for optimization and/or second-order correction.
 Total Energy, E(TD-HF/TD-DFT) =  -3043.24419887
 Copying the excited state density for this state as the 1-particle RhoCI density.

 The electronic state is 1-A.
 Alpha  occ. eigenvalues --  -46.81033 -19.23421 -19.22227 -19.19088 -19.18603
 Alpha  occ. eigenvalues --  -19.17647 -19.17240 -19.17239 -14.38572 -14.37317
 Alpha  occ. eigenvalues --  -14.36509 -14.35827 -10.36161 -10.35650 -10.33005
 Alpha  occ. eigenvalues --  -10.32324 -10.29082 -10.27503 -10.27135 -10.27042
 Alpha  occ. eigenvalues --  -10.26682 -10.26660 -10.26627 -10.25797 -10.25673
 Alpha  occ. eigenvalues --  -10.25049 -10.25007 -10.24928 -10.24691 -10.24653
 Alpha  occ. eigenvalues --  -10.24652 -10.24553 -10.24366 -10.24333 -10.24176
 Alpha  occ. eigenvalues --  -10.23924 -10.23781 -10.23763 -10.23264 -10.22982
 Alpha  occ. eigenvalues --  -10.22948 -10.22803 -10.22791 -10.22784 -10.22693
 Alpha  occ. eigenvalues --  -10.22643 -10.22557 -10.22501 -10.22482 -10.22477
 Alpha  occ. eigenvalues --  -10.22426 -10.22395 -10.21823 -10.21675 -10.21642
 Alpha  occ. eigenvalues --  -10.21415 -10.21370 -10.21206 -10.21062 -10.20866
 Alpha  occ. eigenvalues --  -10.20245 -10.19997 -10.19784 -10.19646 -10.19372
 Alpha  occ. eigenvalues --  -10.19255  -3.09701  -1.84637  -1.84173  -1.84109
 Alpha  occ. eigenvalues --   -1.13099  -1.09565  -1.08675  -1.06839  -1.04676
 Alpha  occ. eigenvalues --   -1.04157  -1.01624  -1.00786  -1.00746  -0.99144
 Alpha  occ. eigenvalues --   -0.97795  -0.89726  -0.86748  -0.85938  -0.85705
 Alpha  occ. eigenvalues --   -0.85611  -0.84795  -0.84461  -0.83678  -0.83414
 Alpha  occ. eigenvalues --   -0.83372  -0.82873  -0.82116  -0.81057  -0.80767
 Alpha  occ. eigenvalues --   -0.79775  -0.78706  -0.78496  -0.77399  -0.76461
 Alpha  occ. eigenvalues --   -0.75282  -0.75208  -0.74665  -0.74435  -0.72394
 Alpha  occ. eigenvalues --   -0.71447  -0.70982  -0.70455  -0.70023  -0.69899
 Alpha  occ. eigenvalues --   -0.69837  -0.69275  -0.68218  -0.66699  -0.66263
 Alpha  occ. eigenvalues --   -0.65334  -0.64550  -0.64239  -0.62563  -0.62053
 Alpha  occ. eigenvalues --   -0.61962  -0.61224  -0.59768  -0.59644  -0.58487
 Alpha  occ. eigenvalues --   -0.58335  -0.58176  -0.58069  -0.57606  -0.57312
 Alpha  occ. eigenvalues --   -0.56802  -0.56074  -0.55670  -0.55513  -0.55022
 Alpha  occ. eigenvalues --   -0.54399  -0.53964  -0.52966  -0.52493  -0.52266
 Alpha  occ. eigenvalues --   -0.52090  -0.51359  -0.51305  -0.50813  -0.50685
 Alpha  occ. eigenvalues --   -0.50450  -0.49735  -0.49634  -0.49296  -0.48945
 Alpha  occ. eigenvalues --   -0.48939  -0.48597  -0.48377  -0.48160  -0.48034
 Alpha  occ. eigenvalues --   -0.47931  -0.47843  -0.47413  -0.47270  -0.47202
 Alpha  occ. eigenvalues --   -0.47071  -0.46481  -0.46343  -0.46136  -0.45796
 Alpha  occ. eigenvalues --   -0.45643  -0.45332  -0.45240  -0.45122  -0.44935
 Alpha  occ. eigenvalues --   -0.44694  -0.44510  -0.44414  -0.44211  -0.44122
 Alpha  occ. eigenvalues --   -0.43862  -0.43410  -0.43273  -0.42844  -0.42687
 Alpha  occ. eigenvalues --   -0.42576  -0.42432  -0.42263  -0.41806  -0.41761
 Alpha  occ. eigenvalues --   -0.41629  -0.41509  -0.41414  -0.41193  -0.40799
 Alpha  occ. eigenvalues --   -0.40738  -0.40636  -0.40560  -0.40212  -0.39906
 Alpha  occ. eigenvalues --   -0.39864  -0.39722  -0.39511  -0.39202  -0.39080
 Alpha  occ. eigenvalues --   -0.38908  -0.38775  -0.38404  -0.38254  -0.38199
 Alpha  occ. eigenvalues --   -0.38000  -0.37560  -0.37523  -0.37270  -0.37099
 Alpha  occ. eigenvalues --   -0.36622  -0.36393  -0.36122  -0.35880  -0.35857
 Alpha  occ. eigenvalues --   -0.35795  -0.35299  -0.34654  -0.34387  -0.34375
 Alpha  occ. eigenvalues --   -0.34116  -0.34038  -0.33921  -0.33806  -0.33078
 Alpha  occ. eigenvalues --   -0.32579  -0.32114  -0.32022  -0.31511  -0.31416
 Alpha  occ. eigenvalues --   -0.31327  -0.31199  -0.30483  -0.30270  -0.29958
 Alpha  occ. eigenvalues --   -0.29714  -0.29064  -0.28366  -0.27948  -0.27872
 Alpha  occ. eigenvalues --   -0.27727  -0.27607  -0.23174  -0.20926
 Alpha virt. eigenvalues --   -0.08491  -0.06043  -0.01722  -0.00863   0.00444
 Alpha virt. eigenvalues --    0.01849   0.02363   0.03781   0.04198   0.04314
 Alpha virt. eigenvalues --    0.05077   0.05142   0.06636   0.08511   0.08944

 Mulliken charges:
               1
     1  Mg   0.838035
     2  C    0.060649
     3  C   -0.166483
     4  C   -0.180903
     5  C   -0.163677
     6  N   -0.611763
     7  C    0.356302
     8  C   -0.159045
     9  C   -0.148725
    10  C    0.307725
    11  C   -0.298047
    12  C   -0.173272
    13  C   -0.238959
    14  C    0.596906
    15  O   -0.506839
    16  O   -0.499143
    17  N   -0.684222
    18  C    0.288833
    19  C    0.041090
    20  C   -0.077502
    21  C    0.283880
    22  C   -0.413943
    23  C    0.327875
    24  O   -0.400704
    25  N   -0.714874
    26  C    0.258861
    27  C    0.009632
    28  C    0.040158
    29  C    0.295300
    30  C    0.248460
    31  C   -0.262191
    32  C   -0.300194
    33  N   -0.757791
    34  C    0.248258
    35  C   -0.025010
    36  C    0.030719
    37  C    0.400074
    38  C   -0.366819
    39  C    0.366198
    40  O   -0.474991
    41  C   -0.313171
    42  C    0.614965
    43  O   -0.488058
    44  O   -0.449563
    45  C   -0.014626
    46  C   -0.003332
    47  C   -0.115097
    48  C    0.172302
    49  C   -0.413560
    50  C   -0.254672
    51  C   -0.180023
    52  C   -0.172012
    53  C   -0.075594
    54  C   -0.318611
    55  C   -0.163259
    56  C   -0.150149
    57  C   -0.170458
    58  C   -0.056150
    59  C   -0.322116
    60  C   -0.148495
    61  C   -0.155950
    62  C   -0.158074
    63  C   -0.037162
    64  C   -0.312184
    65  C   -0.290425
    66  H    0.084282
    67  H    0.143640
    68  H    0.080844
    69  H    0.106958
    70  H    0.105585
    71  H    0.109773
    72  H    0.088370
    73  H    0.136550
    74  H    0.115768
    75  H    0.111410
    76  H    0.139235
    77  H    0.152340
    78  H    0.125095
    79  H    0.145936
    80  H    0.134277
    81  H    0.074650
    82  H    0.101658
    83  H    0.105652
    84  H    0.122417
    85  H    0.108553
    86  H    0.104628
    87  H    0.123181
    88  H    0.139126
    89  H    0.151591
    90  H    0.169688
    91  H    0.120299
    92  H    0.135647
    93  H    0.076601
    94  H    0.161550
    95  H    0.092140
    96  H    0.123778
    97  H    0.089780
    98  H    0.098205
    99  H    0.116669
   100  H    0.105629
   101  H    0.107233
   102  H    0.081876
   103  H    0.094492
   104  H    0.070724
   105  H    0.115431
   106  H    0.095784
   107  H    0.091803
   108  H    0.095924
   109  H    0.063890
   110  H    0.059804
   111  H    0.096830
   112  H    0.097967
   113  H    0.076663
   114  H    0.081274
   115  H    0.104360
   116  H    0.111569
   117  H    0.079657
   118  H    0.086298
   119  H    0.045915
   120  H    0.079645
   121  H    0.078344
   122  H    0.076074
   123  H    0.092288
   124  H    0.121864
   125  H    0.074477
   126  H    0.087896
   127  H    0.090024
   128  H    0.112483
   129  H    0.064585
   130  H    0.127062
   131  H    0.107788
   132  H    0.101805
   133  O   -0.423026
   134  H    0.051301
 Sum of Mulliken charges =  -0.00000

 Dipole moment (field-independent basis, Debye):
    X=              1.7737    Y=             -3.7834    Z=             -0.3426  Tot=              4.1925
 Quadrupole moment (field-independent basis, Debye-Ang):
   XX=           -386.7081   YY=           -432.5199   ZZ=           -391.1337
   XY=              2.0089   XZ=             28.2987   YZ=            -32.5793

 Normal termination of Gaussian 16 at Tue Oct  8 02:26:00 2019.
