 Gaussian 16, Revision A.03,
 Gaussian 16:  ES64L-G16RevA.03 25-Dec-2016

 ----------------------------------------------------------------------
 # td=(NStates=1) iop(3/107=0140000000,3/108=0140000000) iop(3/107=0140
 000000,3/108=0140000000) CAM-B3LYP/6-31G(d,p)
 ----------------------------------------------------------------------

 --
 TD
 --
 Symbolic Z-matrix:
 Charge =  0 Multiplicity = 1

                         Standard orientation:
 ---------------------------------------------------------------------
 Center     Atomic      Atomic             Coordinates (Angstroms)
 Number     Number       Type             X           Y           Z
 ---------------------------------------------------------------------
      1         12           0       -5.609060    1.147785    0.165807
      2          6           0       -5.017825   -2.117121   -0.348881
      3          6           0       -3.488674    1.239214    2.873628
      4          6           0       -6.182139    4.545987    0.603731
      5          6           0       -8.033900    1.191129   -2.365415
      6          7           0       -4.453405   -0.221089    1.105236
      7          6           0       -4.294324   -1.533172    0.676872
      8          6           0       -3.203428   -2.220908    1.472964
      9          6           0       -2.970624   -1.252968    2.632208
     10          6           0       -3.626614    0.031695    2.151957
     11          6           0       -3.401736   -1.744125    3.947101
     12          6           0       -1.995661   -2.524244    0.581350
     13          6           0       -1.062258   -3.499599    1.311335
     14          6           0        0.265550   -3.899685    0.581887
     15          8           0        0.426758   -3.463806   -0.544433
     16          8           0        0.949734   -4.821508    1.358263
     17          7           0       -4.904340    2.593523    1.343420
     18          6           0       -4.071899    2.397462    2.382293
     19          6           0       -3.836455    3.704354    3.097720
     20          6           0       -4.593917    4.668526    2.518970
     21          6           0       -5.257952    3.983114    1.464370
     22          6           0       -2.875791    3.804134    4.383931
     23          6           0       -4.693168    6.063647    3.023344
     24          8           0       -4.186594    6.556908    3.886889
     25          7           0       -6.774439    2.621322   -0.805340
     26          6           0       -6.921753    3.910681   -0.397588
     27          6           0       -7.918262    4.634102   -1.212748
     28          6           0       -8.392790    3.662152   -2.078008
     29          6           0       -7.809281    2.375676   -1.700563
     30          6           0       -8.181232    6.100554   -1.213802
     31          6           0       -9.455699    3.709834   -3.218319
     32          6           0       -8.926830    3.857789   -4.684313
     33          7           0       -6.351189   -0.133643   -1.154703
     34          6           0       -7.313751   -0.074717   -2.023702
     35          6           0       -7.546482   -1.364640   -2.739460
     36          6           0       -6.653333   -2.191286   -1.984127
     37          6           0       -5.952308   -1.370790   -1.036298
     38          6           0       -8.583058   -1.659215   -3.765865
     39          6           0       -6.094195   -3.585977   -1.970446
     40          8           0       -6.412922   -4.558692   -2.634560
     41          6           0       -5.088117   -3.527549   -0.866722
     42          6           0       -5.323102   -4.540419    0.203713
     43          8           0       -5.724788   -4.462903    1.326636
     44          8           0       -5.051128   -5.761081   -0.224465
     45          6           0       -5.418920   -6.943064    0.560270
     46          6           0        2.258496   -5.201664    0.691795
     47          6           0        3.394094   -4.182473    1.044418
     48          6           0        4.057626   -3.380928    0.170358
     49          6           0        3.748816   -3.276349   -1.403890
     50          6           0        5.205921   -2.415856    0.489730
     51          6           0        6.550095   -2.845812    0.007166
     52          6           0        7.731949   -1.989119    0.505564
     53          6           0        9.107402   -2.163831   -0.055707
     54          6           0        9.672265   -3.451986    0.269216
     55          6           0       10.108282   -1.006283    0.414356
     56          6           0       11.441016   -0.989465   -0.325376
     57          6           0       12.313913    0.180866    0.070111
     58          6           0       13.592010    0.403013   -0.627380
     59          6           0       14.605123   -0.596230   -0.377869
     60          6           0       14.185025    1.865267   -0.162818
     61          6           0       15.441637    2.300047   -0.993587
     62          6           0       16.035655    3.627077   -0.580637
     63          6           0       17.316823    4.059796   -1.259370
     64          6           0       17.110450    4.247420   -2.817929
     65          6           0       17.962695    5.247550   -0.658799
     66          1           0       -2.766120    1.202142    3.646646
     67          1           0       -6.411066    5.622887    0.891820
     68          1           0       -8.779007    1.192426   -3.053346
     69          1           0       -3.759780   -3.092979    1.981044
     70          1           0       -1.836490   -1.077306    2.479900
     71          1           0       -2.681605   -2.591271    4.021743
     72          1           0       -3.119391   -0.915730    4.679586
     73          1           0       -4.499519   -1.902987    4.161716
     74          1           0       -2.310726   -3.106284   -0.245259
     75          1           0       -1.470267   -1.605276    0.374420
     76          1           0       -0.650320   -3.035043    2.270722
     77          1           0       -1.701267   -4.361589    1.874339
     78          1           0       -1.914544    3.415564    4.185952
     79          1           0       -2.717146    5.031765    4.594984
     80          1           0       -3.310989    3.326095    5.258879
     81          1           0       -5.497437    6.491278    2.522850
     82          1           0      -10.101378    2.827896   -3.132822
     83          1           0      -10.421711    4.465254   -2.840399
     84          1           0       -9.720952    3.852990   -5.393768
     85          1           0       -8.147710    4.678283   -4.493372
     86          1           0       -8.487725    2.975027   -5.010805
     87          1           0       -8.739379   -0.682683   -4.540030
     88          1           0       -8.147591   -2.330816   -4.336716
     89          1           0       -9.575197   -1.815960   -3.363400
     90          1           0       -4.320764   -3.956196   -1.290469
     91          1           0        2.418674   -6.123878    1.029715
     92          1           0        2.093017   -5.041842   -0.201407
     93          1           0        3.714110   -4.100203    2.073568
     94          1           0        2.776336   -3.631615   -1.713680
     95          1           0        3.969563   -2.357872   -1.770791
     96          1           0        4.420601   -3.877193   -1.906630
     97          1           0        4.927610   -1.353615    0.230955
     98          1           0        5.143985   -2.369477    1.670691
     99          1           0        6.547304   -3.926346    0.243702
    100          1           0        6.468276   -2.694402   -1.053539
    101          1           0        7.454209   -0.822870    0.325775
    102          1           0        7.808996   -2.052235    1.557603
    103          1           0        9.069855   -2.035226   -1.223474
    104          1           0        8.866577   -4.319547    0.284980
    105          1           0       10.481374   -3.590973   -0.452260
    106          1           0       10.007935   -3.331470    1.412899
    107          1           0        9.811594    0.015529    0.076040
    108          1           0       10.140494   -1.161661    1.517520
    109          1           0       12.049496   -1.877396   -0.350897
    110          1           0       11.189600   -0.758009   -1.502694
    111          1           0       11.625736    0.996738   -0.052311
    112          1           0       12.287577    0.227836    1.181528
    113          1           0       13.523303    0.475412   -1.611465
    114          1           0       15.112539   -0.568590    0.667566
    115          1           0       14.138410   -1.703365   -0.391613
    116          1           0       15.460478   -0.859953   -1.213081
    117          1           0       13.553500    2.496100   -0.305422
    118          1           0       14.409703    1.793147    0.752975
    119          1           0       16.096501    1.314897   -0.761433
    120          1           0       15.416381    2.368396   -2.130238
    121          1           0       15.333231    4.313232   -0.738499
    122          1           0       16.150015    3.592796    0.534502
    123          1           0       18.044738    3.017620   -1.203323
    124          1           0       16.459764    5.250070   -2.961249
    125          1           0       18.219408    4.283939   -3.335763
    126          1           0       16.527218    3.356889   -3.063901
    127          1           0       18.414236    5.092710    0.230730
    128          1           0       18.777086    5.562668   -1.346902
    129          1           0       17.467904    6.149163   -0.666187
    130          1           0       -5.318534   -7.782886   -0.069461
    131          1           0       -6.549951   -6.873503    0.831513
    132          1           0       -4.824040   -6.932772    1.465805
    133          8           0       -7.813330    6.918950   -0.458164
    134          1           0       -8.922405    6.605455   -1.961777
 ---------------------------------------------------------------------

 SCF Done:  E(RCAM-B3LYP) =  -3043.38265727     A.U. after   15 cycles

 Excitation energies and oscillator strengths:

 Excited State   1:      Singlet-A      2.0800 eV  596.07 nm  f=0.2329  <S**2>=0.000
     243 -> 246       -0.23538
     244 -> 245        0.66190
 This state for optimization and/or second-order correction.
 Total Energy, E(TD-HF/TD-DFT) =  -3043.30621764
 Copying the excited state density for this state as the 1-particle RhoCI density.

 The electronic state is 1-A.
 Alpha  occ. eigenvalues --  -46.80334 -19.22988 -19.21140 -19.18343 -19.18296
 Alpha  occ. eigenvalues --  -19.17045 -19.16568 -19.16016 -14.38816 -14.36954
 Alpha  occ. eigenvalues --  -14.36491 -14.36218 -10.35883 -10.34276 -10.30845
 Alpha  occ. eigenvalues --  -10.30592 -10.29809 -10.27590 -10.27339 -10.26880
 Alpha  occ. eigenvalues --  -10.26648 -10.26419 -10.26401 -10.26373 -10.25963
 Alpha  occ. eigenvalues --  -10.25324 -10.25033 -10.24823 -10.24691 -10.24686
 Alpha  occ. eigenvalues --  -10.24562 -10.24517 -10.24515 -10.23825 -10.23768
 Alpha  occ. eigenvalues --  -10.23709 -10.23600 -10.23270 -10.23222 -10.23051
 Alpha  occ. eigenvalues --  -10.23042 -10.22907 -10.22800 -10.22788 -10.22717
 Alpha  occ. eigenvalues --  -10.22676 -10.22517 -10.22407 -10.22378 -10.22372
 Alpha  occ. eigenvalues --  -10.22354 -10.22067 -10.22027 -10.22013 -10.21842
 Alpha  occ. eigenvalues --  -10.21775 -10.21766 -10.21610 -10.21604 -10.21429
 Alpha  occ. eigenvalues --  -10.20646 -10.20320 -10.19701 -10.19351 -10.18311
 Alpha  occ. eigenvalues --  -10.17846  -3.09224  -1.84146  -1.83707  -1.83648
 Alpha  occ. eigenvalues --   -1.14198  -1.13792  -1.11692  -1.09432  -1.06344
 Alpha  occ. eigenvalues --   -1.05208  -1.03681  -1.02356  -0.99959  -0.99145
 Alpha  occ. eigenvalues --   -0.98271  -0.89978  -0.86801  -0.86151  -0.85959
 Alpha  occ. eigenvalues --   -0.85071  -0.84695  -0.83957  -0.83795  -0.83193
 Alpha  occ. eigenvalues --   -0.82736  -0.82459  -0.81538  -0.81030  -0.80293
 Alpha  occ. eigenvalues --   -0.79515  -0.78414  -0.77728  -0.77376  -0.76922
 Alpha  occ. eigenvalues --   -0.76168  -0.74625  -0.73906  -0.73738  -0.72230
 Alpha  occ. eigenvalues --   -0.72114  -0.71615  -0.70272  -0.70106  -0.69921
 Alpha  occ. eigenvalues --   -0.69289  -0.68477  -0.67729  -0.66708  -0.66306
 Alpha  occ. eigenvalues --   -0.65498  -0.64469  -0.64288  -0.62742  -0.61858
 Alpha  occ. eigenvalues --   -0.61358  -0.61219  -0.60667  -0.59966  -0.59626
 Alpha  occ. eigenvalues --   -0.58689  -0.57812  -0.57650  -0.57388  -0.57224
 Alpha  occ. eigenvalues --   -0.56349  -0.56092  -0.55735  -0.55309  -0.54808
 Alpha  occ. eigenvalues --   -0.54303  -0.53583  -0.52691  -0.52324  -0.52276
 Alpha  occ. eigenvalues --   -0.51836  -0.51642  -0.51211  -0.51135  -0.51008
 Alpha  occ. eigenvalues --   -0.50419  -0.50152  -0.49866  -0.49575  -0.49369
 Alpha  occ. eigenvalues --   -0.49169  -0.48968  -0.48632  -0.48533  -0.48362
 Alpha  occ. eigenvalues --   -0.48143  -0.47943  -0.47680  -0.47619  -0.47525
 Alpha  occ. eigenvalues --   -0.47142  -0.46761  -0.46684  -0.46396  -0.46111
 Alpha  occ. eigenvalues --   -0.45880  -0.45620  -0.45417  -0.45313  -0.45196
 Alpha  occ. eigenvalues --   -0.45101  -0.44981  -0.44908  -0.44620  -0.44408
 Alpha  occ. eigenvalues --   -0.44204  -0.44022  -0.43708  -0.43618  -0.43159
 Alpha  occ. eigenvalues --   -0.43034  -0.42568  -0.42480  -0.42345  -0.42062
 Alpha  occ. eigenvalues --   -0.42020  -0.41732  -0.41662  -0.41354  -0.41202
 Alpha  occ. eigenvalues --   -0.40825  -0.40730  -0.40345  -0.40208  -0.40138
 Alpha  occ. eigenvalues --   -0.39997  -0.39827  -0.39765  -0.39721  -0.39463
 Alpha  occ. eigenvalues --   -0.39271  -0.38828  -0.38756  -0.38426  -0.38344
 Alpha  occ. eigenvalues --   -0.37884  -0.37607  -0.37543  -0.37222  -0.37188
 Alpha  occ. eigenvalues --   -0.36957  -0.36599  -0.36279  -0.35761  -0.35400
 Alpha  occ. eigenvalues --   -0.35204  -0.35181  -0.34684  -0.34310  -0.34019
 Alpha  occ. eigenvalues --   -0.33934  -0.33515  -0.33362  -0.33215  -0.33102
 Alpha  occ. eigenvalues --   -0.33023  -0.32675  -0.32581  -0.31973  -0.31494
 Alpha  occ. eigenvalues --   -0.31347  -0.30833  -0.30511  -0.30214  -0.29632
 Alpha  occ. eigenvalues --   -0.29086  -0.28183  -0.28119  -0.27925  -0.27689
 Alpha  occ. eigenvalues --   -0.27439  -0.27171  -0.22966  -0.20858
 Alpha virt. eigenvalues --   -0.07788  -0.05597  -0.01210   0.00229   0.01147
 Alpha virt. eigenvalues --    0.02982   0.03117   0.03980   0.04497   0.04778
 Alpha virt. eigenvalues --    0.05321   0.06447   0.07968   0.08912   0.09572

 Mulliken charges:
               1
     1  Mg   0.808546
     2  C    0.104384
     3  C   -0.171845
     4  C   -0.209887
     5  C   -0.133559
     6  N   -0.652389
     7  C    0.286091
     8  C   -0.182365
     9  C   -0.151955
    10  C    0.326542
    11  C   -0.296736
    12  C   -0.148440
    13  C   -0.279937
    14  C    0.616789
    15  O   -0.455287
    16  O   -0.487677
    17  N   -0.707335
    18  C    0.352234
    19  C   -0.009810
    20  C   -0.009581
    21  C    0.262555
    22  C   -0.384961
    23  C    0.298559
    24  O   -0.343783
    25  N   -0.657922
    26  C    0.307979
    27  C   -0.024095
    28  C    0.018290
    29  C    0.280774
    30  C    0.239673
    31  C   -0.251453
    32  C   -0.305015
    33  N   -0.709670
    34  C    0.230758
    35  C    0.017491
    36  C   -0.055366
    37  C    0.336968
    38  C   -0.352661
    39  C    0.360674
    40  O   -0.460347
    41  C   -0.277888
    42  C    0.595370
    43  O   -0.478650
    44  O   -0.449614
    45  C   -0.076483
    46  C    0.053809
    47  C   -0.170577
    48  C    0.122005
    49  C   -0.384287
    50  C   -0.234710
    51  C   -0.158561
    52  C   -0.155273
    53  C   -0.059153
    54  C   -0.277640
    55  C   -0.159635
    56  C   -0.184984
    57  C   -0.172366
    58  C   -0.035207
    59  C   -0.309901
    60  C   -0.149544
    61  C   -0.200542
    62  C   -0.150825
    63  C   -0.039914
    64  C   -0.294101
    65  C   -0.309689
    66  H    0.090312
    67  H    0.129884
    68  H    0.074401
    69  H    0.129893
    70  H    0.097723
    71  H    0.115766
    72  H    0.100365
    73  H    0.134761
    74  H    0.128460
    75  H    0.123290
    76  H    0.114446
    77  H    0.114062
    78  H    0.128727
    79  H    0.131044
    80  H    0.132848
    81  H    0.051608
    82  H    0.113114
    83  H    0.073230
    84  H    0.121615
    85  H    0.120488
    86  H    0.122207
    87  H    0.075383
    88  H    0.154570
    89  H    0.146416
    90  H    0.162234
    91  H    0.125946
    92  H    0.120663
    93  H    0.082880
    94  H    0.138570
    95  H    0.119387
    96  H    0.125294
    97  H    0.105585
    98  H    0.070278
    99  H    0.100522
   100  H    0.104496
   101  H    0.063161
   102  H    0.091916
   103  H    0.061966
   104  H    0.089304
   105  H    0.114247
   106  H    0.074744
   107  H    0.091821
   108  H    0.087196
   109  H    0.098114
   110  H    0.058712
   111  H    0.088039
   112  H    0.084472
   113  H    0.097983
   114  H    0.095825
   115  H    0.072975
   116  H    0.090113
   117  H    0.089276
   118  H    0.101074
   119  H    0.072413
   120  H    0.076703
   121  H    0.098910
   122  H    0.078515
   123  H    0.043353
   124  H    0.081795
   125  H    0.090300
   126  H    0.105682
   127  H    0.112979
   128  H    0.088312
   129  H    0.108589
   130  H    0.138910
   131  H    0.123458
   132  H    0.133179
   133  O   -0.380986
   134  H    0.048611
 Sum of Mulliken charges =  -0.00000

 Dipole moment (field-independent basis, Debye):
    X=              2.8020    Y=             -3.6845    Z=              0.2283  Tot=              4.6345
 Quadrupole moment (field-independent basis, Debye-Ang):
   XX=           -390.7250   YY=           -428.9966   ZZ=           -394.8094
   XY=             10.9906   XZ=             17.5934   YZ=            -25.3034

 Normal termination of Gaussian 16 at Thu Oct 10 01:44:10 2019.
