 Gaussian 16, Revision A.03,
 Gaussian 16:  ES64L-G16RevA.03 25-Dec-2016

 ----------------------------------------------------------------------
 # td=(NStates=1) iop(3/107=0140000000,3/108=0140000000) iop(3/107=0140
 000000,3/108=0140000000) CAM-B3LYP/6-31G(d,p)
 ----------------------------------------------------------------------

 --
 TD
 --
 Symbolic Z-matrix:
 Charge =  0 Multiplicity = 1

                         Standard orientation:
 ---------------------------------------------------------------------
 Center     Atomic      Atomic             Coordinates (Angstroms)
 Number     Number       Type             X           Y           Z
 ---------------------------------------------------------------------
      1         12           0       -5.628945    1.240531    0.193277
      2          6           0       -4.926044   -2.179866   -0.419322
      3          6           0       -3.410379    1.110135    2.863224
      4          6           0       -6.175012    4.525790    0.731715
      5          6           0       -7.970261    1.271911   -2.326356
      6          7           0       -4.405129   -0.319256    1.092132
      7          6           0       -4.249345   -1.645747    0.695424
      8          6           0       -3.202720   -2.358621    1.533999
      9          6           0       -2.962349   -1.369133    2.677508
     10          6           0       -3.605313   -0.062437    2.194762
     11          6           0       -3.534544   -1.908369    4.021545
     12          6           0       -1.994825   -2.560543    0.528132
     13          6           0       -0.960095   -3.521410    1.358393
     14          6           0        0.256712   -3.995170    0.629069
     15          8           0        0.489548   -3.533650   -0.468187
     16          8           0        1.021575   -4.812004    1.270669
     17          7           0       -4.800558    2.590479    1.384044
     18          6           0       -3.932199    2.374725    2.502118
     19          6           0       -3.699406    3.679948    3.183550
     20          6           0       -4.539702    4.580211    2.562405
     21          6           0       -5.170049    3.857375    1.493084
     22          6           0       -2.793954    3.804669    4.248447
     23          6           0       -4.594521    6.022191    2.882506
     24          8           0       -3.996563    6.529539    3.895156
     25          7           0       -6.785482    2.667077   -0.779577
     26          6           0       -6.808149    3.936484   -0.345332
     27          6           0       -7.848329    4.651645   -1.097184
     28          6           0       -8.381299    3.646618   -1.957207
     29          6           0       -7.738038    2.511501   -1.761786
     30          6           0       -8.155772    6.056748   -1.083872
     31          6           0       -9.347338    3.861483   -3.100039
     32          6           0       -8.587569    4.153594   -4.481023
     33          7           0       -6.299989   -0.105078   -1.207932
     34          6           0       -7.279530    0.089980   -2.125072
     35          6           0       -7.576275   -1.240736   -2.719513
     36          6           0       -6.687650   -2.155699   -2.073941
     37          6           0       -5.893374   -1.329258   -1.102335
     38          6           0       -8.510359   -1.522992   -3.758730
     39          6           0       -6.283785   -3.498670   -2.021346
     40          8           0       -6.816516   -4.456287   -2.486733
     41          6           0       -4.999905   -3.474429   -1.047118
     42          6           0       -5.251362   -4.625468   -0.056897
     43          8           0       -5.711732   -4.520803    1.062373
     44          8           0       -4.984389   -5.882549   -0.555200
     45          6           0       -5.212255   -6.991596    0.384224
     46          6           0        2.392858   -5.170374    0.615220
     47          6           0        3.371982   -4.191148    1.022634
     48          6           0        4.037203   -3.359827    0.097624
     49          6           0        3.676718   -3.223598   -1.285020
     50          6           0        5.120775   -2.574129    0.691320
     51          6           0        6.576354   -2.855672    0.056104
     52          6           0        7.558600   -1.823235    0.606079
     53          6           0        8.973236   -1.839714   -0.076054
     54          6           0        9.513335   -3.360424    0.001422
     55          6           0        9.844031   -0.954913    0.502347
     56          6           0       11.224120   -0.729023   -0.226125
     57          6           0       11.936403    0.316720    0.189079
     58          6           0       13.345085    0.519252   -0.480918
     59          6           0       14.338723   -0.748683   -0.162556
     60          6           0       14.066220    1.845631   -0.135653
     61          6           0       15.406276    2.197085   -0.885739
     62          6           0       15.952333    3.576699   -0.618703
     63          6           0       17.240412    3.892904   -1.414626
     64          6           0       17.087727    4.023614   -2.913289
     65          6           0       18.006021    5.200227   -0.946384
     66          1           0       -2.715456    1.195732    3.740949
     67          1           0       -6.154756    5.595547    0.887716
     68          1           0       -8.551268    1.237761   -3.165766
     69          1           0       -3.642087   -3.340932    1.790074
     70          1           0       -1.849700   -1.397427    2.874361
     71          1           0       -3.170557   -2.948232    4.186032
     72          1           0       -3.681854   -1.074439    4.690522
     73          1           0       -4.574275   -2.240075    4.002181
     74          1           0       -2.160965   -3.105949   -0.364290
     75          1           0       -1.418889   -1.593822    0.519757
     76          1           0       -0.491558   -3.408364    2.463708
     77          1           0       -1.387627   -4.559095    1.668615
     78          1           0       -1.819906    3.310510    4.056098
     79          1           0       -2.481914    4.869493    4.695336
     80          1           0       -3.355720    3.218945    5.008630
     81          1           0       -5.321646    6.675518    2.283822
     82          1           0      -10.080081    3.018558   -3.304970
     83          1           0       -9.812312    4.714789   -2.955316
     84          1           0       -9.089364    4.126646   -5.465346
     85          1           0       -8.078546    5.186842   -4.318508
     86          1           0       -8.008139    3.480798   -4.667762
     87          1           0       -8.379921   -0.755175   -4.476657
     88          1           0       -8.712585   -2.570913   -4.251836
     89          1           0       -9.311315   -1.363153   -3.502075
     90          1           0       -4.112351   -3.493635   -1.477602
     91          1           0        2.595337   -5.950063    1.191012
     92          1           0        2.282942   -5.259626   -0.389214
     93          1           0        3.698998   -4.154106    2.126521
     94          1           0        2.696194   -3.287579   -1.580900
     95          1           0        3.986610   -2.295943   -1.598118
     96          1           0        4.177555   -4.129783   -1.742327
     97          1           0        4.838586   -1.482427    0.446836
     98          1           0        5.341617   -2.356372    1.648679
     99          1           0        6.659376   -3.825042    0.266980
    100          1           0        6.338834   -2.786512   -0.935974
    101          1           0        7.126064   -0.827088    0.520405
    102          1           0        7.946591   -1.998968    1.710447
    103          1           0        8.708002   -1.686207   -1.220306
    104          1           0        8.955600   -4.242629   -0.468149
    105          1           0       10.439089   -3.473409   -0.532550
    106          1           0        9.715053   -4.026911    0.942516
    107          1           0        9.215319    0.104769    0.538696
    108          1           0       10.040047   -1.254294    1.600540
    109          1           0       11.660064   -1.760275   -0.192414
    110          1           0       11.063154   -0.667523   -1.300117
    111          1           0       11.457455    1.395669    0.160285
    112          1           0       12.324345    0.269255    1.377041
    113          1           0       13.433044    0.308402   -1.665384
    114          1           0       14.614027   -0.677949    1.028030
    115          1           0       13.631410   -1.737508   -0.341250
    116          1           0       15.191353   -0.516894   -0.663381
    117          1           0       13.092174    2.576182   -0.273575
    118          1           0       14.250928    1.903556    1.038057
    119          1           0       16.136738    1.381778   -0.638520
    120          1           0       15.396499    2.172115   -2.015080
    121          1           0       15.282319    4.464589   -1.099840
    122          1           0       16.092561    3.566006    0.580606
    123          1           0       17.878647    2.945371   -1.244025
    124          1           0       16.417563    4.863629   -3.365665
    125          1           0       18.064936    4.370770   -3.414525
    126          1           0       16.780084    2.992238   -3.477457
    127          1           0       17.986155    5.270306    0.164369
    128          1           0       19.078801    5.307199   -1.365121
    129          1           0       17.434089    6.151819   -1.269829
    130          1           0       -4.791911   -7.867228   -0.164584
    131          1           0       -6.335162   -7.156451    0.629953
    132          1           0       -4.578223   -6.873386    1.312826
    133          8           0       -7.663238    6.910329   -0.360214
    134          1           0       -8.944629    6.257524   -1.744832
 ---------------------------------------------------------------------

 SCF Done:  E(RCAM-B3LYP) =  -3043.31123701     A.U. after   16 cycles

 Excitation energies and oscillator strengths:

 Excited State   1:      Singlet-A      2.0497 eV  604.90 nm  f=0.1515  <S**2>=0.000
     243 -> 246        0.27955
     244 -> 245        0.64231
 This state for optimization and/or second-order correction.
 Total Energy, E(TD-HF/TD-DFT) =  -3043.23591307
 Copying the excited state density for this state as the 1-particle RhoCI density.

 The electronic state is 1-A.
 Alpha  occ. eigenvalues --  -46.81569 -19.21922 -19.21129 -19.17149 -19.17112
 Alpha  occ. eigenvalues --  -19.16987 -19.16134 -19.14459 -14.39274 -14.37505
 Alpha  occ. eigenvalues --  -14.36704 -14.36107 -10.35096 -10.32806 -10.31130
 Alpha  occ. eigenvalues --  -10.31086 -10.28817 -10.28219 -10.28219 -10.27964
 Alpha  occ. eigenvalues --  -10.27771 -10.26691 -10.26421 -10.26174 -10.26152
 Alpha  occ. eigenvalues --  -10.25989 -10.25570 -10.24959 -10.24786 -10.24670
 Alpha  occ. eigenvalues --  -10.24526 -10.24505 -10.24311 -10.24251 -10.24058
 Alpha  occ. eigenvalues --  -10.23915 -10.23886 -10.23723 -10.23492 -10.23245
 Alpha  occ. eigenvalues --  -10.23243 -10.23141 -10.23130 -10.23084 -10.23021
 Alpha  occ. eigenvalues --  -10.22958 -10.22747 -10.22606 -10.22601 -10.22552
 Alpha  occ. eigenvalues --  -10.22460 -10.22454 -10.22278 -10.22094 -10.21992
 Alpha  occ. eigenvalues --  -10.21934 -10.21842 -10.21784 -10.21678 -10.21531
 Alpha  occ. eigenvalues --  -10.21102 -10.20838 -10.20680 -10.20632 -10.20358
 Alpha  occ. eigenvalues --  -10.20279  -3.10158  -1.85099  -1.84635  -1.84555
 Alpha  occ. eigenvalues --   -1.12656  -1.12256  -1.08503  -1.05613  -1.03598
 Alpha  occ. eigenvalues --   -1.03224  -1.02780  -1.01365  -1.00379  -0.99776
 Alpha  occ. eigenvalues --   -0.98725  -0.89569  -0.87577  -0.86880  -0.86310
 Alpha  occ. eigenvalues --   -0.85378  -0.84886  -0.84885  -0.84432  -0.84062
 Alpha  occ. eigenvalues --   -0.83568  -0.83564  -0.81850  -0.81030  -0.79835
 Alpha  occ. eigenvalues --   -0.79185  -0.78493  -0.78096  -0.77850  -0.76815
 Alpha  occ. eigenvalues --   -0.76494  -0.75335  -0.74804  -0.73799  -0.72667
 Alpha  occ. eigenvalues --   -0.72263  -0.71022  -0.70545  -0.69707  -0.69417
 Alpha  occ. eigenvalues --   -0.69073  -0.68817  -0.68209  -0.67633  -0.67001
 Alpha  occ. eigenvalues --   -0.66187  -0.65087  -0.64984  -0.63611  -0.62629
 Alpha  occ. eigenvalues --   -0.61873  -0.61483  -0.60617  -0.59108  -0.58796
 Alpha  occ. eigenvalues --   -0.58336  -0.58060  -0.57229  -0.57167  -0.57008
 Alpha  occ. eigenvalues --   -0.56803  -0.56224  -0.56000  -0.55801  -0.55259
 Alpha  occ. eigenvalues --   -0.54437  -0.53726  -0.52961  -0.52174  -0.52037
 Alpha  occ. eigenvalues --   -0.51918  -0.51662  -0.51047  -0.50631  -0.50218
 Alpha  occ. eigenvalues --   -0.49979  -0.49848  -0.49784  -0.49545  -0.49337
 Alpha  occ. eigenvalues --   -0.48951  -0.48901  -0.48500  -0.48438  -0.48170
 Alpha  occ. eigenvalues --   -0.48099  -0.47898  -0.47718  -0.47555  -0.47335
 Alpha  occ. eigenvalues --   -0.47028  -0.46653  -0.46436  -0.46283  -0.46122
 Alpha  occ. eigenvalues --   -0.45944  -0.45905  -0.45791  -0.45555  -0.45336
 Alpha  occ. eigenvalues --   -0.44627  -0.44376  -0.44121  -0.44052  -0.43992
 Alpha  occ. eigenvalues --   -0.43903  -0.43697  -0.43478  -0.43432  -0.43115
 Alpha  occ. eigenvalues --   -0.42779  -0.42655  -0.42536  -0.42029  -0.41589
 Alpha  occ. eigenvalues --   -0.41577  -0.41389  -0.41225  -0.40968  -0.40882
 Alpha  occ. eigenvalues --   -0.40760  -0.40598  -0.40385  -0.40214  -0.40065
 Alpha  occ. eigenvalues --   -0.39986  -0.39763  -0.39412  -0.39317  -0.39210
 Alpha  occ. eigenvalues --   -0.38993  -0.38874  -0.38738  -0.38477  -0.38415
 Alpha  occ. eigenvalues --   -0.38130  -0.37960  -0.37759  -0.37191  -0.37141
 Alpha  occ. eigenvalues --   -0.36955  -0.36761  -0.36521  -0.36122  -0.36027
 Alpha  occ. eigenvalues --   -0.35222  -0.35028  -0.34843  -0.34567  -0.34203
 Alpha  occ. eigenvalues --   -0.34075  -0.33925  -0.33396  -0.33000  -0.32931
 Alpha  occ. eigenvalues --   -0.32580  -0.32304  -0.31928  -0.31531  -0.31272
 Alpha  occ. eigenvalues --   -0.30746  -0.30717  -0.30049  -0.29947  -0.28503
 Alpha  occ. eigenvalues --   -0.28456  -0.28084  -0.27959  -0.27594  -0.27283
 Alpha  occ. eigenvalues --   -0.27234  -0.25781  -0.23118  -0.21816
 Alpha virt. eigenvalues --   -0.08633  -0.06900  -0.01977  -0.00769   0.00751
 Alpha virt. eigenvalues --    0.01474   0.03135   0.03592   0.04677   0.04812
 Alpha virt. eigenvalues --    0.05910   0.06403   0.08534   0.09022   0.09310

 Mulliken charges:
               1
     1  Mg   0.825430
     2  C    0.068000
     3  C   -0.197829
     4  C   -0.142038
     5  C   -0.134960
     6  N   -0.641844
     7  C    0.327223
     8  C   -0.158049
     9  C   -0.138569
    10  C    0.358316
    11  C   -0.328645
    12  C   -0.165306
    13  C   -0.293761
    14  C    0.598032
    15  O   -0.503395
    16  O   -0.477825
    17  N   -0.722700
    18  C    0.264161
    19  C    0.088583
    20  C   -0.015228
    21  C    0.328350
    22  C   -0.409720
    23  C    0.227209
    24  O   -0.445015
    25  N   -0.718032
    26  C    0.321795
    27  C   -0.051443
    28  C    0.012133
    29  C    0.334847
    30  C    0.251210
    31  C   -0.250817
    32  C   -0.304016
    33  N   -0.750293
    34  C    0.278374
    35  C    0.005359
    36  C    0.019177
    37  C    0.326796
    38  C   -0.350993
    39  C    0.341044
    40  O   -0.435675
    41  C   -0.319449
    42  C    0.610259
    43  O   -0.469670
    44  O   -0.462177
    45  C   -0.080724
    46  C    0.032413
    47  C   -0.144305
    48  C    0.126063
    49  C   -0.374936
    50  C   -0.251806
    51  C   -0.170538
    52  C   -0.167637
    53  C   -0.039618
    54  C   -0.347349
    55  C   -0.147901
    56  C   -0.166294
    57  C   -0.136990
    58  C   -0.064124
    59  C   -0.296711
    60  C   -0.150476
    61  C   -0.182782
    62  C   -0.139578
    63  C   -0.041334
    64  C   -0.302980
    65  C   -0.312326
    66  H    0.095541
    67  H    0.127480
    68  H    0.076411
    69  H    0.127819
    70  H    0.110526
    71  H    0.119218
    72  H    0.116019
    73  H    0.123358
    74  H    0.140656
    75  H    0.135150
    76  H    0.121003
    77  H    0.110860
    78  H    0.122929
    79  H    0.158998
    80  H    0.134263
    81  H    0.102705
    82  H    0.100620
    83  H    0.119701
    84  H    0.099218
    85  H    0.098669
    86  H    0.122279
    87  H    0.120722
    88  H    0.138610
    89  H    0.139878
    90  H    0.160061
    91  H    0.119520
    92  H    0.132420
    93  H    0.082103
    94  H    0.169893
    95  H    0.119802
    96  H    0.118396
    97  H    0.074472
    98  H    0.112153
    99  H    0.114057
   100  H    0.106135
   101  H    0.094653
   102  H    0.077820
   103  H    0.077748
   104  H    0.092407
   105  H    0.105809
   106  H    0.090169
   107  H    0.058727
   108  H    0.091845
   109  H    0.103163
   110  H    0.101676
   111  H    0.081066
   112  H    0.059407
   113  H    0.064505
   114  H    0.064007
   115  H    0.084221
   116  H    0.116772
   117  H    0.065689
   118  H    0.076340
   119  H    0.096380
   120  H    0.094235
   121  H    0.077637
   122  H    0.073139
   123  H    0.078471
   124  H    0.094251
   125  H    0.099700
   126  H    0.080169
   127  H    0.101234
   128  H    0.101725
   129  H    0.093885
   130  H    0.124897
   131  H    0.132822
   132  H    0.121528
   133  O   -0.445515
   134  H    0.058856
 Sum of Mulliken charges =  -0.00000

 Dipole moment (field-independent basis, Debye):
    X=              3.4525    Y=             -5.6010    Z=             -1.4937  Tot=              6.7470
 Quadrupole moment (field-independent basis, Debye-Ang):
   XX=           -378.1840   YY=           -443.9180   ZZ=           -391.7191
   XY=             11.6382   XZ=             16.3757   YZ=            -31.7402

 Normal termination of Gaussian 16 at Sat Oct  5 14:51:45 2019.
