 Gaussian 16, Revision A.03,
 Gaussian 16:  ES64L-G16RevA.03 25-Dec-2016

 ----------------------------------------------------------------------
 # td=(NStates=1) iop(3/107=0140000000,3/108=0140000000) iop(3/107=0140
 000000,3/108=0140000000) CAM-B3LYP/6-31G(d,p)
 ----------------------------------------------------------------------

 --
 TD
 --
 Symbolic Z-matrix:
 Charge =  0 Multiplicity = 1

                         Standard orientation:
 ---------------------------------------------------------------------
 Center     Atomic      Atomic             Coordinates (Angstroms)
 Number     Number       Type             X           Y           Z
 ---------------------------------------------------------------------
      1         12           0       -5.458187    1.186026    0.114756
      2          6           0       -4.917075   -2.137469   -0.484911
      3          6           0       -3.267132    1.188044    2.779350
      4          6           0       -6.192536    4.453522    0.740761
      5          6           0       -7.869448    1.146927   -2.447202
      6          7           0       -4.310258   -0.310725    1.056804
      7          6           0       -4.189582   -1.570468    0.740286
      8          6           0       -3.229190   -2.377054    1.570593
      9          6           0       -2.837820   -1.299161    2.668508
     10          6           0       -3.494616   -0.076105    2.146559
     11          6           0       -3.463719   -1.541382    3.989055
     12          6           0       -2.025712   -2.762178    0.715925
     13          6           0       -1.063305   -3.615075    1.533798
     14          6           0        0.234505   -3.949073    0.724753
     15          8           0        0.479123   -3.504438   -0.398892
     16          8           0        1.012779   -4.834970    1.343361
     17          7           0       -4.789351    2.656193    1.523509
     18          6           0       -3.897657    2.421990    2.464358
     19          6           0       -3.699533    3.679824    3.137274
     20          6           0       -4.574634    4.611192    2.641155
     21          6           0       -5.232939    3.935445    1.524772
     22          6           0       -2.713009    3.958077    4.295711
     23          6           0       -4.730387    6.006101    2.999660
     24          8           0       -4.033516    6.613186    3.831300
     25          7           0       -6.813741    2.595330   -0.687283
     26          6           0       -6.858106    3.862961   -0.387062
     27          6           0       -7.900901    4.606312   -1.321974
     28          6           0       -8.318468    3.615272   -2.174699
     29          6           0       -7.658367    2.375746   -1.826905
     30          6           0       -8.241198    6.005933   -1.182551
     31          6           0       -9.381612    3.771067   -3.197477
     32          6           0       -8.673503    4.069951   -4.540903
     33          7           0       -6.190270   -0.100033   -1.140166
     34          6           0       -7.106879    0.010452   -2.135463
     35          6           0       -7.403012   -1.271564   -2.782937
     36          6           0       -6.606653   -2.111709   -2.128055
     37          6           0       -5.708201   -1.384409   -1.263022
     38          6           0       -8.464036   -1.574877   -3.773874
     39          6           0       -6.185757   -3.541694   -2.040065
     40          8           0       -6.620034   -4.569582   -2.608914
     41          6           0       -5.011874   -3.599720   -0.883147
     42          6           0       -5.364376   -4.627756    0.127998
     43          8           0       -5.806587   -4.285987    1.256884
     44          8           0       -5.081043   -5.801011   -0.379856
     45          6           0       -5.516042   -6.937220    0.638380
     46          6           0        2.239281   -5.274694    0.540991
     47          6           0        3.302753   -4.107763    0.852371
     48          6           0        4.004356   -3.250560    0.103333
     49          6           0        3.717470   -3.145464   -1.377664
     50          6           0        5.053257   -2.408466    0.720550
     51          6           0        6.511705   -2.837164    0.113226
     52          6           0        7.578112   -1.906472    0.533801
     53          6           0        8.901223   -2.076020   -0.066290
     54          6           0        9.657496   -3.472544    0.129115
     55          6           0        9.821731   -0.821969    0.416076
     56          6           0       11.214049   -0.989350   -0.134656
     57          6           0       12.161290    0.283871    0.219523
     58          6           0       13.431730    0.476580   -0.561613
     59          6           0       14.456651   -0.623788   -0.345800
     60          6           0       14.137958    1.873623   -0.195524
     61          6           0       15.476678    2.201718   -0.911346
     62          6           0       15.917661    3.564793   -0.620304
     63          6           0       17.228514    3.965865   -1.436031
     64          6           0       17.042741    3.875398   -2.928999
     65          6           0       17.716807    5.283639   -0.849341
     66          1           0       -2.650824    1.425886    3.667837
     67          1           0       -6.404866    5.503487    0.778655
     68          1           0       -8.638160    1.269040   -3.300901
     69          1           0       -3.922577   -3.295433    1.899443
     70          1           0       -1.889865   -1.024138    2.742467
     71          1           0       -3.053190   -2.374902    4.339701
     72          1           0       -3.229179   -0.739346    4.753333
     73          1           0       -4.508233   -1.726561    3.964288
     74          1           0       -2.256254   -3.351643   -0.128074
     75          1           0       -1.670738   -1.815567    0.379233
     76          1           0       -0.565665   -3.318643    2.524446
     77          1           0       -1.618076   -4.422725    1.906055
     78          1           0       -1.893338    3.874541    4.017129
     79          1           0       -2.787221    4.876207    4.872053
     80          1           0       -2.941640    3.221432    4.929852
     81          1           0       -5.477073    6.742615    2.359928
     82          1           0       -9.972246    2.877652   -3.184311
     83          1           0      -10.090165    4.533525   -2.825276
     84          1           0       -9.270723    4.018137   -5.270564
     85          1           0       -8.096479    4.907202   -4.524189
     86          1           0       -7.979406    3.231349   -4.717358
     87          1           0       -8.250858   -0.911655   -4.864198
     88          1           0       -8.666143   -2.646563   -4.206750
     89          1           0       -9.410679   -1.044101   -3.360761
     90          1           0       -4.069487   -3.857464   -1.365881
     91          1           0        2.533424   -6.179370    1.152939
     92          1           0        2.108992   -5.284064   -0.629599
     93          1           0        3.629932   -4.120848    1.963223
     94          1           0        2.633190   -3.508872   -1.451403
     95          1           0        3.989351   -2.330715   -1.881089
     96          1           0        4.287363   -3.855000   -2.097926
     97          1           0        4.686193   -1.369183    0.489123
     98          1           0        5.043680   -2.602523    1.796520
     99          1           0        6.554453   -4.026459    0.139631
    100          1           0        6.486333   -2.638476   -0.943734
    101          1           0        6.988578   -1.078737    0.464366
    102          1           0        7.687712   -1.939475    1.689574
    103          1           0        8.782724   -2.020416   -1.224095
    104          1           0        9.072482   -4.114541   -0.296469
    105          1           0       10.534502   -3.639251   -0.459643
    106          1           0        9.867524   -3.868235    1.184882
    107          1           0        9.337033    0.034996   -0.044014
    108          1           0        9.813477   -0.801336    1.358201
    109          1           0       11.736946   -1.871890    0.380560
    110          1           0       11.093316   -1.175530   -1.203505
    111          1           0       11.570961    1.307165   -0.071122
    112          1           0       12.178697    0.448583    1.290912
    113          1           0       13.076408    0.606724   -1.599603
    114          1           0       14.555660   -0.573171    0.782634
    115          1           0       14.020060   -1.607296   -0.699267
    116          1           0       15.355553   -0.348923   -0.753844
    117          1           0       13.390547    2.612404   -0.443741
    118          1           0       14.364477    1.875228    0.921797
    119          1           0       16.089736    1.302577   -0.459412
    120          1           0       15.330336    2.131398   -2.002109
    121          1           0       15.296250    4.208533   -0.997716
    122          1           0       16.143641    3.511497    0.474983
    123          1           0       18.011504    3.148016   -1.145687
    124          1           0       16.268210    4.857962   -3.102512
    125          1           0       17.951532    4.262149   -3.392318
    126          1           0       16.840135    2.965036   -3.222510
    127          1           0       18.060946    5.235457    0.160069
    128          1           0       18.516302    5.833033   -1.243610
    129          1           0       16.907457    5.968345   -1.046018
    130          1           0       -5.214561   -7.820326    0.075366
    131          1           0       -6.513404   -6.951605    0.652458
    132          1           0       -5.092991   -6.689926    1.745657
    133          8           0       -7.855142    6.899068   -0.416177
    134          1           0       -9.254793    6.188118   -1.787253
 ---------------------------------------------------------------------

 SCF Done:  E(RCAM-B3LYP) =  -3043.39841344     A.U. after   16 cycles

 Excitation energies and oscillator strengths:

 Excited State   1:      Singlet-A      1.9859 eV  624.31 nm  f=0.2089  <S**2>=0.000
     243 -> 246        0.22554
     244 -> 245        0.65923
 This state for optimization and/or second-order correction.
 Total Energy, E(TD-HF/TD-DFT) =  -3043.32543198
 Copying the excited state density for this state as the 1-particle RhoCI density.

 The electronic state is 1-A.
 Alpha  occ. eigenvalues --  -46.81910 -19.24951 -19.22959 -19.17753 -19.17427
 Alpha  occ. eigenvalues --  -19.16933 -19.16905 -19.15950 -14.39951 -14.37019
 Alpha  occ. eigenvalues --  -14.36757 -14.36255 -10.35751 -10.35207 -10.32447
 Alpha  occ. eigenvalues --  -10.30616 -10.30515 -10.30208 -10.29616 -10.28615
 Alpha  occ. eigenvalues --  -10.28020 -10.26435 -10.26231 -10.26036 -10.25868
 Alpha  occ. eigenvalues --  -10.25707 -10.25397 -10.25179 -10.25074 -10.24845
 Alpha  occ. eigenvalues --  -10.24826 -10.24473 -10.24233 -10.24111 -10.24071
 Alpha  occ. eigenvalues --  -10.23796 -10.23741 -10.23215 -10.23151 -10.23058
 Alpha  occ. eigenvalues --  -10.23052 -10.23037 -10.22820 -10.22441 -10.22412
 Alpha  occ. eigenvalues --  -10.22361 -10.22337 -10.22074 -10.22065 -10.21775
 Alpha  occ. eigenvalues --  -10.21306 -10.21295 -10.21108 -10.20860 -10.20756
 Alpha  occ. eigenvalues --  -10.20691 -10.20660 -10.20516 -10.20492 -10.19841
 Alpha  occ. eigenvalues --  -10.19636 -10.19586 -10.19224 -10.19116 -10.18877
 Alpha  occ. eigenvalues --  -10.18004  -3.10479  -1.85415  -1.84951  -1.84888
 Alpha  occ. eigenvalues --   -1.13686  -1.12799  -1.05241  -1.05018  -1.04242
 Alpha  occ. eigenvalues --   -1.03759  -1.03479  -1.02265  -1.00744  -1.00510
 Alpha  occ. eigenvalues --   -0.98561  -0.88263  -0.87123  -0.86324  -0.86190
 Alpha  occ. eigenvalues --   -0.85273  -0.85003  -0.84473  -0.84054  -0.83547
 Alpha  occ. eigenvalues --   -0.83063  -0.82870  -0.81926  -0.80234  -0.79752
 Alpha  occ. eigenvalues --   -0.78848  -0.78510  -0.78008  -0.77461  -0.76485
 Alpha  occ. eigenvalues --   -0.75551  -0.75073  -0.74199  -0.73788  -0.72520
 Alpha  occ. eigenvalues --   -0.72506  -0.72367  -0.70926  -0.70791  -0.69857
 Alpha  occ. eigenvalues --   -0.69341  -0.68501  -0.68436  -0.67521  -0.66488
 Alpha  occ. eigenvalues --   -0.65665  -0.65193  -0.64289  -0.63327  -0.62183
 Alpha  occ. eigenvalues --   -0.61657  -0.61121  -0.60104  -0.59784  -0.59127
 Alpha  occ. eigenvalues --   -0.58626  -0.57700  -0.57332  -0.56899  -0.56669
 Alpha  occ. eigenvalues --   -0.55941  -0.55355  -0.55179  -0.54868  -0.54490
 Alpha  occ. eigenvalues --   -0.54066  -0.53838  -0.52821  -0.52763  -0.52302
 Alpha  occ. eigenvalues --   -0.51954  -0.51651  -0.51546  -0.51185  -0.50586
 Alpha  occ. eigenvalues --   -0.50344  -0.49939  -0.49582  -0.49481  -0.49324
 Alpha  occ. eigenvalues --   -0.48973  -0.48861  -0.48722  -0.48480  -0.47996
 Alpha  occ. eigenvalues --   -0.47920  -0.47680  -0.47623  -0.46981  -0.46789
 Alpha  occ. eigenvalues --   -0.46741  -0.46431  -0.46342  -0.45741  -0.45612
 Alpha  occ. eigenvalues --   -0.45505  -0.45263  -0.45170  -0.44959  -0.44753
 Alpha  occ. eigenvalues --   -0.44684  -0.44379  -0.44240  -0.44083  -0.44003
 Alpha  occ. eigenvalues --   -0.43782  -0.43663  -0.43330  -0.43246  -0.43027
 Alpha  occ. eigenvalues --   -0.42681  -0.42446  -0.42331  -0.42251  -0.41980
 Alpha  occ. eigenvalues --   -0.41842  -0.41739  -0.41663  -0.41409  -0.41143
 Alpha  occ. eigenvalues --   -0.40855  -0.40756  -0.40448  -0.40323  -0.40233
 Alpha  occ. eigenvalues --   -0.40099  -0.39987  -0.39714  -0.39652  -0.39341
 Alpha  occ. eigenvalues --   -0.39250  -0.39091  -0.38934  -0.38565  -0.38391
 Alpha  occ. eigenvalues --   -0.38070  -0.37967  -0.37854  -0.37772  -0.37536
 Alpha  occ. eigenvalues --   -0.37436  -0.37061  -0.37004  -0.36377  -0.36118
 Alpha  occ. eigenvalues --   -0.35987  -0.35571  -0.35093  -0.34946  -0.34756
 Alpha  occ. eigenvalues --   -0.34480  -0.34401  -0.34160  -0.33386  -0.33209
 Alpha  occ. eigenvalues --   -0.32898  -0.32708  -0.31832  -0.31624  -0.31612
 Alpha  occ. eigenvalues --   -0.31496  -0.30923  -0.30469  -0.29772  -0.29697
 Alpha  occ. eigenvalues --   -0.29104  -0.27949  -0.27730  -0.27683  -0.27063
 Alpha  occ. eigenvalues --   -0.26712  -0.26449  -0.23314  -0.20240
 Alpha virt. eigenvalues --   -0.07598  -0.06314  -0.02303  -0.00281   0.00551
 Alpha virt. eigenvalues --    0.02597   0.03027   0.03659   0.03791   0.04379
 Alpha virt. eigenvalues --    0.05231   0.06035   0.07563   0.08160   0.08475

 Mulliken charges:
               1
     1  Mg   0.837536
     2  C    0.030358
     3  C   -0.161504
     4  C   -0.153655
     5  C   -0.182108
     6  N   -0.601701
     7  C    0.325809
     8  C   -0.196720
     9  C   -0.117786
    10  C    0.289275
    11  C   -0.300857
    12  C   -0.148682
    13  C   -0.269412
    14  C    0.605513
    15  O   -0.484440
    16  O   -0.462143
    17  N   -0.724149
    18  C    0.341506
    19  C   -0.051033
    20  C    0.021398
    21  C    0.312480
    22  C   -0.334292
    23  C    0.210385
    24  O   -0.426129
    25  N   -0.663191
    26  C    0.281470
    27  C   -0.001178
    28  C    0.025511
    29  C    0.271809
    30  C    0.230296
    31  C   -0.255982
    32  C   -0.302739
    33  N   -0.715735
    34  C    0.287545
    35  C    0.065455
    36  C    0.031153
    37  C    0.257729
    38  C   -0.380481
    39  C    0.358254
    40  O   -0.468571
    41  C   -0.313785
    42  C    0.649616
    43  O   -0.516687
    44  O   -0.438397
    45  C   -0.114795
    46  C   -0.015136
    47  C   -0.148104
    48  C    0.167541
    49  C   -0.381584
    50  C   -0.250269
    51  C   -0.188762
    52  C   -0.138178
    53  C   -0.079395
    54  C   -0.321216
    55  C   -0.146196
    56  C   -0.183685
    57  C   -0.169301
    58  C   -0.055899
    59  C   -0.301307
    60  C   -0.183205
    61  C   -0.187355
    62  C   -0.120474
    63  C   -0.077771
    64  C   -0.285145
    65  C   -0.309850
    66  H    0.083422
    67  H    0.122117
    68  H    0.096992
    69  H    0.131834
    70  H    0.117502
    71  H    0.113953
    72  H    0.104044
    73  H    0.130774
    74  H    0.125336
    75  H    0.125122
    76  H    0.125288
    77  H    0.139011
    78  H    0.122940
    79  H    0.153230
    80  H    0.116867
    81  H    0.074486
    82  H    0.110564
    83  H    0.115004
    84  H    0.117102
    85  H    0.131273
    86  H    0.104640
    87  H    0.087350
    88  H    0.151190
    89  H    0.126081
    90  H    0.158775
    91  H    0.134011
    92  H    0.141869
    93  H    0.065426
    94  H    0.141459
    95  H    0.116485
    96  H    0.093300
    97  H    0.103489
    98  H    0.102472
    99  H    0.084598
   100  H    0.098624
   101  H    0.110408
   102  H    0.068412
   103  H    0.062958
   104  H    0.113650
   105  H    0.109968
   106  H    0.091776
   107  H    0.093587
   108  H    0.099480
   109  H    0.092787
   110  H    0.090101
   111  H    0.048687
   112  H    0.088717
   113  H    0.080552
   114  H    0.089233
   115  H    0.094539
   116  H    0.112849
   117  H    0.084956
   118  H    0.074620
   119  H    0.079595
   120  H    0.085755
   121  H    0.094717
   122  H    0.087419
   123  H    0.059101
   124  H    0.057801
   125  H    0.111081
   126  H    0.121530
   127  H    0.107789
   128  H    0.097481
   129  H    0.093877
   130  H    0.144421
   131  H    0.169375
   132  H    0.145501
   133  O   -0.432774
   134  H    0.031767
 Sum of Mulliken charges =  -0.00000

 Dipole moment (field-independent basis, Debye):
    X=              2.8358    Y=             -8.4407    Z=             -1.2336  Tot=              8.9893
 Quadrupole moment (field-independent basis, Debye-Ang):
   XX=           -388.5442   YY=           -435.4341   ZZ=           -390.8695
   XY=             31.3484   XZ=             19.8162   YZ=            -37.8204

 Normal termination of Gaussian 16 at Tue Oct  8 15:37:48 2019.
