 Gaussian 16, Revision A.03,
 Gaussian 16:  ES64L-G16RevA.03 25-Dec-2016

 ----------------------------------------------------------------------
 # td=(NStates=1) iop(3/107=0140000000,3/108=0140000000) iop(3/107=0140
 000000,3/108=0140000000) CAM-B3LYP/6-31G(d,p)
 ----------------------------------------------------------------------

 --
 TD
 --
 Symbolic Z-matrix:
 Charge =  0 Multiplicity = 1

                         Standard orientation:
 ---------------------------------------------------------------------
 Center     Atomic      Atomic             Coordinates (Angstroms)
 Number     Number       Type             X           Y           Z
 ---------------------------------------------------------------------
      1         12           0       -5.633109    1.222130    0.109049
      2          6           0       -4.946726   -2.160274   -0.346212
      3          6           0       -3.461507    1.136982    2.702979
      4          6           0       -6.176069    4.478288    0.625776
      5          6           0       -8.105142    1.140516   -2.348598
      6          7           0       -4.398725   -0.358255    1.056370
      7          6           0       -4.239257   -1.688550    0.632016
      8          6           0       -3.094862   -2.378373    1.458766
      9          6           0       -2.809065   -1.339732    2.437038
     10          6           0       -3.547685   -0.052115    2.056887
     11          6           0       -3.356393   -1.718402    3.901111
     12          6           0       -1.907976   -2.735441    0.587421
     13          6           0       -0.842734   -3.553437    1.424434
     14          6           0        0.315000   -3.880446    0.661835
     15          8           0        0.469632   -3.396700   -0.482383
     16          8           0        1.114967   -4.672344    1.352980
     17          7           0       -4.803873    2.575267    1.415394
     18          6           0       -3.972863    2.465535    2.428861
     19          6           0       -3.689815    3.617571    3.114022
     20          6           0       -4.508198    4.553275    2.414804
     21          6           0       -5.223776    3.938796    1.456864
     22          6           0       -2.834203    3.703158    4.351025
     23          6           0       -4.596347    6.051201    2.808306
     24          8           0       -3.836911    6.465569    3.713925
     25          7           0       -6.995999    2.611700   -0.675556
     26          6           0       -6.972909    3.863737   -0.389922
     27          6           0       -7.920687    4.571748   -1.179908
     28          6           0       -8.600409    3.629752   -1.953145
     29          6           0       -7.917390    2.339330   -1.624175
     30          6           0       -8.367911    6.040431   -1.076962
     31          6           0       -9.595091    3.875181   -2.959499
     32          6           0       -9.034392    4.225679   -4.426838
     33          7           0       -6.417216   -0.157527   -0.980467
     34          6           0       -7.409388   -0.050800   -2.042165
     35          6           0       -7.670122   -1.338123   -2.603158
     36          6           0       -6.631584   -2.122255   -2.129655
     37          6           0       -5.898714   -1.415844   -1.059769
     38          6           0       -8.770330   -1.736303   -3.566205
     39          6           0       -6.373037   -3.526128   -1.996601
     40          8           0       -6.667126   -4.474185   -2.654118
     41          6           0       -5.066330   -3.597662   -0.973828
     42          6           0       -5.213772   -4.670590    0.112207
     43          8           0       -5.656489   -4.481444    1.247196
     44          8           0       -5.033233   -5.884845   -0.362055
     45          6           0       -5.351965   -7.037267    0.535355
     46          6           0        2.426558   -5.076047    0.717804
     47          6           0        3.467238   -4.170154    1.051361
     48          6           0        3.959589   -3.114410    0.227223
     49          6           0        3.656709   -3.040480   -1.238804
     50          6           0        5.083100   -2.230489    0.686513
     51          6           0        6.443270   -2.735482    0.019415
     52          6           0        7.661648   -1.770760    0.503311
     53          6           0        8.909700   -1.802498   -0.252790
     54          6           0        9.444749   -3.298605   -0.163520
     55          6           0        9.979778   -0.898968    0.445009
     56          6           0       11.335765   -0.767560   -0.315362
     57          6           0       12.282103    0.323385    0.184104
     58          6           0       13.608687    0.365691   -0.529957
     59          6           0       14.608361   -0.821741   -0.166116
     60          6           0       14.371483    1.775925   -0.141126
     61          6           0       15.518274    2.084951   -1.060336
     62          6           0       16.118910    3.486135   -0.631749
     63          6           0       17.447917    3.928439   -1.317140
     64          6           0       17.239169    4.054712   -2.890381
     65          6           0       17.929738    5.218519   -0.755886
     66          1           0       -2.670453    1.050385    3.437571
     67          1           0       -6.644933    5.480507    0.925830
     68          1           0       -8.728369    1.169993   -3.089651
     69          1           0       -3.548189   -3.321925    1.694514
     70          1           0       -1.784466   -1.255661    2.558786
     71          1           0       -2.999528   -2.700289    4.109834
     72          1           0       -2.924366   -1.164722    4.804978
     73          1           0       -4.450471   -1.814017    3.883797
     74          1           0       -2.164422   -3.236977   -0.373824
     75          1           0       -1.400292   -1.842662    0.202803
     76          1           0       -0.699585   -2.788653    2.082048
     77          1           0       -1.297611   -4.459752    1.861720
     78          1           0       -1.812762    3.126247    4.369275
     79          1           0       -2.508525    4.884737    4.539127
     80          1           0       -3.222221    3.384290    5.412300
     81          1           0       -5.209248    6.636459    2.259423
     82          1           0      -10.206885    3.113708   -3.157112
     83          1           0      -10.203853    4.940836   -2.921722
     84          1           0       -9.945402    4.317801   -5.079158
     85          1           0       -8.468522    5.215316   -4.749832
     86          1           0       -8.403802    3.397047   -4.748702
     87          1           0       -8.634148   -1.421566   -4.806835
     88          1           0       -8.518728   -2.888259   -3.649732
     89          1           0       -9.705017   -1.489995   -3.264585
     90          1           0       -4.294591   -3.793550   -1.513826
     91          1           0        2.693147   -6.151920    1.021437
     92          1           0        2.289795   -5.274873   -0.312539
     93          1           0        3.691689   -4.225064    2.132409
     94          1           0        2.637483   -3.494383   -1.633760
     95          1           0        3.544248   -2.067639   -1.683595
     96          1           0        4.539320   -3.460392   -1.731884
     97          1           0        4.946814   -1.264012    0.309800
     98          1           0        5.233497   -2.410579    1.824227
     99          1           0        6.819519   -3.790736    0.379569
    100          1           0        6.403194   -2.766494   -1.139093
    101          1           0        7.299888   -0.826604    0.288547
    102          1           0        7.661644   -1.720158    1.719854
    103          1           0        8.856545   -1.622056   -1.279412
    104          1           0        8.785420   -4.081998   -1.033157
    105          1           0       10.439454   -3.478747   -0.597927
    106          1           0        9.707314   -3.587071    0.931217
    107          1           0        9.592642    0.164381    0.514120
    108          1           0       10.170766   -1.161646    1.423368
    109          1           0       11.852374   -1.813746   -0.260881
    110          1           0       11.193944   -0.481268   -1.433802
    111          1           0       11.916401    1.412192    0.009207
    112          1           0       12.391577    0.277107    1.332930
    113          1           0       13.183128    0.526323   -1.698425
    114          1           0       15.037987   -0.658088    0.777448
    115          1           0       14.172005   -1.789679   -0.420187
    116          1           0       15.430433   -0.590463   -0.916468
    117          1           0       13.692552    2.564400   -0.296935
    118          1           0       14.870960    1.600548    0.993542
    119          1           0       16.449420    1.439472   -0.971209
    120          1           0       15.141716    2.060400   -1.996289
    121          1           0       15.211240    4.002026   -0.999287
    122          1           0       16.333684    3.308863    0.438618
    123          1           0       18.025353    2.968574   -1.055852
    124          1           0       16.577422    4.935642   -2.877561
    125          1           0       18.215330    4.088441   -3.365820
    126          1           0       16.986562    3.014911   -3.444375
    127          1           0       18.139040    4.912333    0.274947
    128          1           0       18.759498    5.685384   -1.259915
    129          1           0       17.247736    6.061040   -0.678672
    130          1           0       -4.628545   -7.802718   -0.007816
    131          1           0       -6.362544   -7.223177    0.542424
    132          1           0       -5.163255   -6.728330    1.536179
    133          8           0       -7.971705    6.986399   -0.307519
    134          1           0       -9.191671    6.367044   -1.652823
 ---------------------------------------------------------------------

 SCF Done:  E(RCAM-B3LYP) =  -3043.41383128     A.U. after   15 cycles

 Excitation energies and oscillator strengths:

 Excited State   1:      Singlet-A      2.0888 eV  593.56 nm  f=0.1341  <S**2>=0.000
     243 -> 245       -0.27961
     243 -> 246       -0.25376
     244 -> 245        0.56194
     244 -> 246       -0.16402
 This state for optimization and/or second-order correction.
 Total Energy, E(TD-HF/TD-DFT) =  -3043.33706864
 Copying the excited state density for this state as the 1-particle RhoCI density.

 The electronic state is 1-A.
 Alpha  occ. eigenvalues --  -46.81024 -19.22626 -19.22190 -19.17558 -19.17467
 Alpha  occ. eigenvalues --  -19.17308 -19.15871 -19.15791 -14.37235 -14.37123
 Alpha  occ. eigenvalues --  -14.36972 -14.35792 -10.34301 -10.34021 -10.31355
 Alpha  occ. eigenvalues --  -10.30976 -10.30472 -10.27565 -10.27360 -10.26701
 Alpha  occ. eigenvalues --  -10.26604 -10.26566 -10.26316 -10.26202 -10.26184
 Alpha  occ. eigenvalues --  -10.25632 -10.25506 -10.25437 -10.24884 -10.24668
 Alpha  occ. eigenvalues --  -10.24634 -10.24456 -10.24446 -10.24419 -10.24075
 Alpha  occ. eigenvalues --  -10.23754 -10.23578 -10.23519 -10.23498 -10.23494
 Alpha  occ. eigenvalues --  -10.23494 -10.23136 -10.23064 -10.22859 -10.22836
 Alpha  occ. eigenvalues --  -10.22708 -10.22612 -10.22382 -10.22234 -10.22220
 Alpha  occ. eigenvalues --  -10.22161 -10.22041 -10.22003 -10.21891 -10.21703
 Alpha  occ. eigenvalues --  -10.21683 -10.21432 -10.21332 -10.21291 -10.21206
 Alpha  occ. eigenvalues --  -10.21189 -10.21017 -10.20594 -10.20538 -10.19795
 Alpha  occ. eigenvalues --  -10.19670  -3.09666  -1.84596  -1.84145  -1.84076
 Alpha  occ. eigenvalues --   -1.13060  -1.12354  -1.08655  -1.05066  -1.03471
 Alpha  occ. eigenvalues --   -1.02825  -1.02705  -1.02280  -1.00567  -0.99046
 Alpha  occ. eigenvalues --   -0.97802  -0.87850  -0.86301  -0.85874  -0.85738
 Alpha  occ. eigenvalues --   -0.84916  -0.84439  -0.84402  -0.83875  -0.83528
 Alpha  occ. eigenvalues --   -0.82667  -0.82218  -0.81692  -0.80495  -0.79520
 Alpha  occ. eigenvalues --   -0.78908  -0.78683  -0.77717  -0.77391  -0.76355
 Alpha  occ. eigenvalues --   -0.74808  -0.74356  -0.73699  -0.73086  -0.71883
 Alpha  occ. eigenvalues --   -0.70857  -0.70770  -0.70024  -0.69905  -0.69028
 Alpha  occ. eigenvalues --   -0.68695  -0.68615  -0.67603  -0.67155  -0.66556
 Alpha  occ. eigenvalues --   -0.66267  -0.64570  -0.64151  -0.62846  -0.62366
 Alpha  occ. eigenvalues --   -0.61907  -0.61300  -0.59618  -0.59574  -0.59275
 Alpha  occ. eigenvalues --   -0.59130  -0.58702  -0.57816  -0.57786  -0.56814
 Alpha  occ. eigenvalues --   -0.56313  -0.56227  -0.56077  -0.55089  -0.54781
 Alpha  occ. eigenvalues --   -0.54291  -0.53909  -0.53415  -0.52621  -0.52168
 Alpha  occ. eigenvalues --   -0.51943  -0.51827  -0.51060  -0.50747  -0.50305
 Alpha  occ. eigenvalues --   -0.49932  -0.49717  -0.49523  -0.49320  -0.48813
 Alpha  occ. eigenvalues --   -0.48619  -0.48438  -0.48120  -0.47825  -0.47762
 Alpha  occ. eigenvalues --   -0.47378  -0.47314  -0.46998  -0.46855  -0.46664
 Alpha  occ. eigenvalues --   -0.46582  -0.46496  -0.46361  -0.45966  -0.45871
 Alpha  occ. eigenvalues --   -0.45487  -0.45151  -0.44877  -0.44605  -0.44515
 Alpha  occ. eigenvalues --   -0.44315  -0.44121  -0.43954  -0.43593  -0.43454
 Alpha  occ. eigenvalues --   -0.43353  -0.42959  -0.42809  -0.42538  -0.42399
 Alpha  occ. eigenvalues --   -0.42185  -0.42078  -0.41690  -0.41608  -0.41438
 Alpha  occ. eigenvalues --   -0.41258  -0.41199  -0.40980  -0.40835  -0.40721
 Alpha  occ. eigenvalues --   -0.40424  -0.40274  -0.40073  -0.39880  -0.39829
 Alpha  occ. eigenvalues --   -0.39564  -0.39438  -0.39262  -0.39229  -0.39170
 Alpha  occ. eigenvalues --   -0.38619  -0.38291  -0.38250  -0.37947  -0.37699
 Alpha  occ. eigenvalues --   -0.37632  -0.37541  -0.37316  -0.36933  -0.36811
 Alpha  occ. eigenvalues --   -0.36777  -0.36481  -0.36178  -0.35711  -0.35624
 Alpha  occ. eigenvalues --   -0.35321  -0.35127  -0.34765  -0.34713  -0.34434
 Alpha  occ. eigenvalues --   -0.33905  -0.33698  -0.33410  -0.32970  -0.32862
 Alpha  occ. eigenvalues --   -0.32770  -0.32212  -0.31816  -0.31613  -0.31266
 Alpha  occ. eigenvalues --   -0.31098  -0.30301  -0.30166  -0.29903  -0.29344
 Alpha  occ. eigenvalues --   -0.28795  -0.28176  -0.27811  -0.27723  -0.27519
 Alpha  occ. eigenvalues --   -0.27065  -0.26176  -0.22481  -0.22321
 Alpha virt. eigenvalues --   -0.08938  -0.06602  -0.01325  -0.01164   0.00634
 Alpha virt. eigenvalues --    0.01444   0.03390   0.03602   0.04195   0.04786
 Alpha virt. eigenvalues --    0.05381   0.05525   0.07612   0.08648   0.08704

 Mulliken charges:
               1
     1  Mg   0.829732
     2  C    0.093890
     3  C   -0.198782
     4  C   -0.192702
     5  C   -0.111535
     6  N   -0.649240
     7  C    0.271459
     8  C   -0.110970
     9  C   -0.158874
    10  C    0.381678
    11  C   -0.322355
    12  C   -0.207513
    13  C   -0.256691
    14  C    0.628436
    15  O   -0.504478
    16  O   -0.462607
    17  N   -0.713619
    18  C    0.334355
    19  C    0.103078
    20  C   -0.100783
    21  C    0.350319
    22  C   -0.404873
    23  C    0.283282
    24  O   -0.422828
    25  N   -0.690161
    26  C    0.322132
    27  C   -0.051632
    28  C    0.050265
    29  C    0.269825
    30  C    0.252315
    31  C   -0.263796
    32  C   -0.325604
    33  N   -0.758489
    34  C    0.248183
    35  C    0.080932
    36  C   -0.060656
    37  C    0.309943
    38  C   -0.370328
    39  C    0.374930
    40  O   -0.431061
    41  C   -0.280231
    42  C    0.587575
    43  O   -0.501978
    44  O   -0.443573
    45  C   -0.097806
    46  C   -0.011799
    47  C   -0.128138
    48  C    0.139457
    49  C   -0.391185
    50  C   -0.214749
    51  C   -0.195284
    52  C   -0.155109
    53  C   -0.044800
    54  C   -0.303425
    55  C   -0.176282
    56  C   -0.168057
    57  C   -0.151275
    58  C   -0.052240
    59  C   -0.316320
    60  C   -0.158425
    61  C   -0.191261
    62  C   -0.163399
    63  C   -0.064339
    64  C   -0.305249
    65  C   -0.304207
    66  H    0.064303
    67  H    0.135677
    68  H    0.072182
    69  H    0.129837
    70  H    0.103688
    71  H    0.110017
    72  H    0.103779
    73  H    0.132084
    74  H    0.108336
    75  H    0.118788
    76  H    0.145226
    77  H    0.128485
    78  H    0.106966
    79  H    0.145411
    80  H    0.125725
    81  H    0.108627
    82  H    0.122120
    83  H    0.107978
    84  H    0.107610
    85  H    0.109323
    86  H    0.112508
    87  H    0.098666
    88  H    0.146772
    89  H    0.141415
    90  H    0.148740
    91  H    0.106797
    92  H    0.131214
    93  H    0.083842
    94  H    0.139283
    95  H    0.118366
    96  H    0.123004
    97  H    0.115831
    98  H    0.100726
    99  H    0.104180
   100  H    0.087494
   101  H    0.098884
   102  H    0.071963
   103  H    0.098749
   104  H    0.053580
   105  H    0.100144
   106  H    0.096338
   107  H    0.081690
   108  H    0.103925
   109  H    0.082921
   110  H    0.075848
   111  H    0.071639
   112  H    0.070525
   113  H    0.046444
   114  H    0.116377
   115  H    0.107428
   116  H    0.105131
   117  H    0.094120
   118  H    0.059795
   119  H    0.074895
   120  H    0.105687
   121  H    0.082106
   122  H    0.087994
   123  H    0.072119
   124  H    0.109013
   125  H    0.106671
   126  H    0.081487
   127  H    0.102356
   128  H    0.104178
   129  H    0.106999
   130  H    0.128976
   131  H    0.151184
   132  H    0.148771
   133  O   -0.450702
   134  H    0.084690
 Sum of Mulliken charges =  -0.00000

 Dipole moment (field-independent basis, Debye):
    X=              2.3078    Y=             -3.9995    Z=             -2.0930  Tot=              5.0698
 Quadrupole moment (field-independent basis, Debye-Ang):
   XX=           -354.8712   YY=           -431.5487   ZZ=           -393.8804
   XY=              7.3632   XZ=             27.6889   YZ=            -33.8312

 Normal termination of Gaussian 16 at Fri Oct 11 01:26:28 2019.
