 Gaussian 16, Revision A.03,
 Gaussian 16:  ES64L-G16RevA.03 25-Dec-2016

 ----------------------------------------------------------------------
 # td=(NStates=1) iop(3/107=0140000000,3/108=0140000000) iop(3/107=0140
 000000,3/108=0140000000) CAM-B3LYP/6-31G(d,p)
 ----------------------------------------------------------------------

 --
 TD
 --
 Symbolic Z-matrix:
 Charge =  0 Multiplicity = 1

                         Standard orientation:
 ---------------------------------------------------------------------
 Center     Atomic      Atomic             Coordinates (Angstroms)
 Number     Number       Type             X           Y           Z
 ---------------------------------------------------------------------
      1         12           0       -5.561257    1.203365    0.098586
      2          6           0       -5.029098   -2.076810   -0.291805
      3          6           0       -3.422902    1.163273    2.775103
      4          6           0       -6.206052    4.554860    0.685615
      5          6           0       -7.907311    1.199920   -2.540662
      6          7           0       -4.395343   -0.257793    1.013905
      7          6           0       -4.290686   -1.564028    0.716028
      8          6           0       -3.235705   -2.278569    1.487427
      9          6           0       -2.957208   -1.370656    2.553397
     10          6           0       -3.709180   -0.038641    2.096772
     11          6           0       -3.514962   -1.759305    3.947103
     12          6           0       -1.961675   -2.688199    0.623478
     13          6           0       -0.893373   -3.577730    1.423493
     14          6           0        0.200035   -3.918571    0.571499
     15          8           0        0.404842   -3.488570   -0.568838
     16          8           0        1.080329   -4.774596    1.137716
     17          7           0       -4.867722    2.600246    1.433044
     18          6           0       -4.014741    2.385767    2.438289
     19          6           0       -3.785739    3.690581    3.214249
     20          6           0       -4.570730    4.502630    2.637483
     21          6           0       -5.296299    3.915582    1.488289
     22          6           0       -2.942232    3.677398    4.475933
     23          6           0       -4.734655    5.869678    3.022530
     24          8           0       -4.124967    6.489694    3.880532
     25          7           0       -6.841635    2.712435   -0.739068
     26          6           0       -7.024821    3.944029   -0.354553
     27          6           0       -7.864063    4.635556   -1.132036
     28          6           0       -8.373001    3.692585   -2.132616
     29          6           0       -7.696936    2.471685   -1.880014
     30          6           0       -8.411216    5.994337   -1.075005
     31          6           0       -9.440568    3.784938   -3.208182
     32          6           0       -8.821862    4.198718   -4.613973
     33          7           0       -6.379305   -0.082011   -1.178023
     34          6           0       -7.320214   -0.016704   -2.191654
     35          6           0       -7.580553   -1.380228   -2.741564
     36          6           0       -6.808430   -2.213452   -1.989580
     37          6           0       -5.993642   -1.323022   -1.089324
     38          6           0       -8.514719   -1.598872   -3.858186
     39          6           0       -6.152537   -3.594609   -2.033985
     40          8           0       -6.600173   -4.603072   -2.590255
     41          6           0       -5.067535   -3.528683   -0.856311
     42          6           0       -5.305244   -4.619032    0.184802
     43          8           0       -5.763724   -4.388833    1.261876
     44          8           0       -5.042705   -5.860406   -0.263748
     45          6           0       -5.209981   -6.840358    0.717256
     46          6           0        2.340880   -5.085021    0.510405
     47          6           0        3.346798   -4.250595    0.945995
     48          6           0        4.085533   -3.263219    0.228225
     49          6           0        3.778009   -3.235875   -1.327939
     50          6           0        5.240292   -2.524997    0.713841
     51          6           0        6.646113   -2.894322    0.083160
     52          6           0        7.712059   -1.889034    0.588283
     53          6           0        9.047400   -1.964423   -0.083953
     54          6           0        9.670874   -3.410463   -0.001621
     55          6           0       10.061509   -0.907878    0.374042
     56          6           0       11.466951   -0.796290   -0.283296
     57          6           0       12.241137    0.386382    0.191199
     58          6           0       13.591092    0.608570   -0.563413
     59          6           0       14.443069   -0.676197   -0.493955
     60          6           0       14.254918    1.856988   -0.180264
     61          6           0       15.373930    2.207220   -1.029549
     62          6           0       16.032503    3.592962   -0.534982
     63          6           0       17.340614    3.981370   -1.286522
     64          6           0       17.171299    4.052735   -2.786695
     65          6           0       17.975343    5.280680   -0.653575
     66          1           0       -2.636557    1.324788    3.531081
     67          1           0       -6.515076    5.490554    0.754912
     68          1           0       -8.476474    1.115851   -3.560471
     69          1           0       -3.639867   -3.332180    1.679670
     70          1           0       -1.890681   -1.064188    2.777037
     71          1           0       -3.134232   -2.586279    4.419389
     72          1           0       -3.562607   -0.720459    4.595985
     73          1           0       -4.745431   -1.786585    3.771160
     74          1           0       -2.283293   -3.082631   -0.322659
     75          1           0       -1.463860   -1.707406    0.638171
     76          1           0       -0.628784   -3.007068    2.400706
     77          1           0       -1.495031   -4.412015    1.882131
     78          1           0       -1.921867    3.424947    4.383893
     79          1           0       -2.927964    4.677241    4.916224
     80          1           0       -3.435607    3.058754    5.304136
     81          1           0       -5.591615    6.462816    2.326016
     82          1           0      -10.099566    2.933847   -3.396932
     83          1           0      -10.399178    4.576347   -3.041949
     84          1           0       -9.599894    4.140182   -5.395205
     85          1           0       -8.426212    5.156616   -4.413617
     86          1           0       -7.852783    3.560776   -4.970215
     87          1           0       -8.289116   -0.857760   -4.574312
     88          1           0       -8.398487   -2.577147   -4.226160
     89          1           0       -9.474195   -1.395610   -3.633231
     90          1           0       -4.229594   -3.984650   -1.391607
     91          1           0        2.777191   -6.172080    0.965741
     92          1           0        2.009318   -5.067744   -0.545890
     93          1           0        3.529046   -4.500378    2.198117
     94          1           0        2.776080   -3.207011   -1.571706
     95          1           0        4.106481   -2.209844   -1.573276
     96          1           0        4.169847   -3.976996   -1.962307
     97          1           0        5.325527   -1.398398    0.331065
     98          1           0        5.187679   -2.549170    1.703233
     99          1           0        7.059290   -3.890759    0.420408
    100          1           0        6.477242   -3.028509   -0.992465
    101          1           0        7.319152   -0.868616    0.527761
    102          1           0        7.937157   -2.088712    1.626020
    103          1           0        8.962128   -2.039425   -1.137907
    104          1           0        9.085975   -4.289686   -0.649600
    105          1           0       10.726403   -3.386791   -0.440042
    106          1           0        9.640498   -3.708030    1.116562
    107          1           0        9.514583    0.203042    0.260698
    108          1           0       10.365016   -1.192159    1.398848
    109          1           0       12.023515   -1.702178    0.007578
    110          1           0       11.399515   -0.784511   -1.326824
    111          1           0       11.742521    1.418230   -0.010164
    112          1           0       12.564081    0.261920    1.472950
    113          1           0       13.433088    0.949303   -1.521834
    114          1           0       14.634912   -1.085735    0.676269
    115          1           0       13.661671   -1.578347   -1.019805
    116          1           0       15.366002   -0.544723   -1.132025
    117          1           0       13.542334    2.724231   -0.193857
    118          1           0       14.405380    1.743131    0.881491
    119          1           0       16.329644    1.509951   -0.883386
    120          1           0       15.086052    2.185088   -1.920695
    121          1           0       15.206442    4.386767   -0.749096
    122          1           0       16.192495    3.555579    0.621752
    123          1           0       18.040888    3.120790   -1.178716
    124          1           0       16.563488    5.017035   -3.135565
    125          1           0       18.092183    4.436145   -3.215200
    126          1           0       16.859581    3.084863   -3.108770
    127          1           0       18.043965    5.274577    0.447087
    128          1           0       19.061758    5.252773   -1.119342
    129          1           0       17.435331    6.086483   -1.125324
    130          1           0       -4.769087   -7.932725    0.332289
    131          1           0       -6.362690   -7.154431    0.970674
    132          1           0       -4.990243   -6.602608    1.764945
    133          8           0       -7.904684    6.703312   -0.329714
    134          1           0       -9.456607    6.294221   -1.648517
 ---------------------------------------------------------------------

 SCF Done:  E(RCAM-B3LYP) =  -3043.39057081     A.U. after   15 cycles

 Excitation energies and oscillator strengths:

 Excited State   1:      Singlet-A      2.3059 eV  537.68 nm  f=0.1120  <S**2>=0.000
     243 -> 246       -0.32745
     244 -> 245        0.60163
     244 -> 246        0.11930
 This state for optimization and/or second-order correction.
 Total Energy, E(TD-HF/TD-DFT) =  -3043.30582963
 Copying the excited state density for this state as the 1-particle RhoCI density.

 The electronic state is 1-A.
 Alpha  occ. eigenvalues --  -46.82009 -19.24438 -19.21481 -19.18320 -19.18024
 Alpha  occ. eigenvalues --  -19.17482 -19.17013 -19.16571 -14.39269 -14.37686
 Alpha  occ. eigenvalues --  -14.37112 -14.35651 -10.35840 -10.35431 -10.33122
 Alpha  occ. eigenvalues --  -10.30703 -10.30055 -10.29566 -10.28487 -10.28349
 Alpha  occ. eigenvalues --  -10.27463 -10.27319 -10.27106 -10.26515 -10.26365
 Alpha  occ. eigenvalues --  -10.26292 -10.26250 -10.25719 -10.25526 -10.25514
 Alpha  occ. eigenvalues --  -10.24667 -10.24602 -10.24591 -10.24570 -10.24469
 Alpha  occ. eigenvalues --  -10.24440 -10.24119 -10.24048 -10.23972 -10.23798
 Alpha  occ. eigenvalues --  -10.23730 -10.23409 -10.23283 -10.23193 -10.22741
 Alpha  occ. eigenvalues --  -10.22662 -10.22635 -10.22499 -10.22412 -10.22381
 Alpha  occ. eigenvalues --  -10.22333 -10.22126 -10.22053 -10.21983 -10.21822
 Alpha  occ. eigenvalues --  -10.21345 -10.21327 -10.21140 -10.21082 -10.21024
 Alpha  occ. eigenvalues --  -10.20747 -10.20730 -10.20377 -10.20147 -10.19953
 Alpha  occ. eigenvalues --  -10.19426  -3.10579  -1.85522  -1.85046  -1.84992
 Alpha  occ. eigenvalues --   -1.16102  -1.13056  -1.10962  -1.07032  -1.06725
 Alpha  occ. eigenvalues --   -1.06605  -1.03776  -1.03486  -1.01198  -1.00414
 Alpha  occ. eigenvalues --   -0.98752  -0.88050  -0.86963  -0.86854  -0.85965
 Alpha  occ. eigenvalues --   -0.85320  -0.85170  -0.84711  -0.84306  -0.83495
 Alpha  occ. eigenvalues --   -0.83079  -0.82560  -0.81895  -0.80985  -0.80600
 Alpha  occ. eigenvalues --   -0.79360  -0.78463  -0.77556  -0.76927  -0.76619
 Alpha  occ. eigenvalues --   -0.75880  -0.75171  -0.74582  -0.73169  -0.72987
 Alpha  occ. eigenvalues --   -0.71612  -0.70784  -0.69753  -0.69356  -0.69152
 Alpha  occ. eigenvalues --   -0.68805  -0.68657  -0.66911  -0.66537  -0.65686
 Alpha  occ. eigenvalues --   -0.65106  -0.64994  -0.63464  -0.63373  -0.62514
 Alpha  occ. eigenvalues --   -0.62016  -0.61465  -0.60749  -0.60074  -0.59017
 Alpha  occ. eigenvalues --   -0.58773  -0.58456  -0.58293  -0.57495  -0.56969
 Alpha  occ. eigenvalues --   -0.56762  -0.56339  -0.56228  -0.55168  -0.54872
 Alpha  occ. eigenvalues --   -0.54246  -0.53464  -0.53117  -0.53025  -0.52598
 Alpha  occ. eigenvalues --   -0.52139  -0.52038  -0.51744  -0.51282  -0.50793
 Alpha  occ. eigenvalues --   -0.50716  -0.50345  -0.49667  -0.49449  -0.49309
 Alpha  occ. eigenvalues --   -0.48837  -0.48465  -0.48454  -0.48333  -0.48137
 Alpha  occ. eigenvalues --   -0.47919  -0.47790  -0.47735  -0.47580  -0.47235
 Alpha  occ. eigenvalues --   -0.46969  -0.46799  -0.46281  -0.46214  -0.45808
 Alpha  occ. eigenvalues --   -0.45597  -0.45498  -0.45258  -0.45081  -0.44916
 Alpha  occ. eigenvalues --   -0.44816  -0.44653  -0.44407  -0.44326  -0.44208
 Alpha  occ. eigenvalues --   -0.43997  -0.43512  -0.43417  -0.43045  -0.43014
 Alpha  occ. eigenvalues --   -0.42997  -0.42830  -0.42544  -0.42209  -0.42130
 Alpha  occ. eigenvalues --   -0.41950  -0.41601  -0.41184  -0.41029  -0.40950
 Alpha  occ. eigenvalues --   -0.40873  -0.40681  -0.40427  -0.40273  -0.40134
 Alpha  occ. eigenvalues --   -0.39780  -0.39664  -0.39652  -0.39572  -0.39291
 Alpha  occ. eigenvalues --   -0.38871  -0.38810  -0.38722  -0.38487  -0.38262
 Alpha  occ. eigenvalues --   -0.38208  -0.38020  -0.37935  -0.37123  -0.36659
 Alpha  occ. eigenvalues --   -0.36614  -0.36428  -0.35904  -0.35544  -0.35488
 Alpha  occ. eigenvalues --   -0.35371  -0.35155  -0.34964  -0.34435  -0.34196
 Alpha  occ. eigenvalues --   -0.34045  -0.33989  -0.33691  -0.33163  -0.33158
 Alpha  occ. eigenvalues --   -0.32819  -0.32601  -0.32238  -0.32013  -0.31801
 Alpha  occ. eigenvalues --   -0.31717  -0.31502  -0.30832  -0.30778  -0.30414
 Alpha  occ. eigenvalues --   -0.29779  -0.29243  -0.28361  -0.27444  -0.27058
 Alpha  occ. eigenvalues --   -0.26315  -0.26077  -0.23226  -0.22126
 Alpha virt. eigenvalues --   -0.07422  -0.06404  -0.02172  -0.00114   0.00920
 Alpha virt. eigenvalues --    0.01201   0.02475   0.02944   0.03207   0.04140
 Alpha virt. eigenvalues --    0.04627   0.05846   0.07746   0.08312   0.08934

 Mulliken charges:
               1
     1  Mg   0.822104
     2  C    0.055209
     3  C   -0.198982
     4  C   -0.128703
     5  C   -0.166127
     6  N   -0.647675
     7  C    0.350361
     8  C   -0.136338
     9  C   -0.160036
    10  C    0.354643
    11  C   -0.294441
    12  C   -0.162608
    13  C   -0.290328
    14  C    0.638725
    15  O   -0.484508
    16  O   -0.470890
    17  N   -0.721528
    18  C    0.301373
    19  C    0.073066
    20  C   -0.002778
    21  C    0.345137
    22  C   -0.400409
    23  C    0.230685
    24  O   -0.416746
    25  N   -0.691562
    26  C    0.322814
    27  C   -0.069119
    28  C    0.044533
    29  C    0.238832
    30  C    0.239026
    31  C   -0.259953
    32  C   -0.301964
    33  N   -0.722124
    34  C    0.261719
    35  C    0.041733
    36  C   -0.036825
    37  C    0.307591
    38  C   -0.376167
    39  C    0.378160
    40  O   -0.440794
    41  C   -0.339444
    42  C    0.630264
    43  O   -0.451915
    44  O   -0.410077
    45  C   -0.101452
    46  C    0.015714
    47  C   -0.088017
    48  C    0.096552
    49  C   -0.390429
    50  C   -0.210578
    51  C   -0.183919
    52  C   -0.161262
    53  C   -0.057022
    54  C   -0.319285
    55  C   -0.155085
    56  C   -0.184720
    57  C   -0.138295
    58  C   -0.047125
    59  C   -0.279743
    60  C   -0.170207
    61  C   -0.160436
    62  C   -0.158466
    63  C   -0.058916
    64  C   -0.304701
    65  C   -0.309505
    66  H    0.091033
    67  H    0.102751
    68  H    0.100761
    69  H    0.118321
    70  H    0.105037
    71  H    0.123942
    72  H    0.093284
    73  H    0.096919
    74  H    0.124264
    75  H    0.119243
    76  H    0.140626
    77  H    0.137859
    78  H    0.134332
    79  H    0.158064
    80  H    0.127761
    81  H    0.047496
    82  H    0.114159
    83  H    0.078918
    84  H    0.107964
    85  H    0.127793
    86  H    0.086805
    87  H    0.128564
    88  H    0.148273
    89  H    0.147416
    90  H    0.155376
    91  H    0.097905
    92  H    0.124263
    93  H    0.052961
    94  H    0.152024
    95  H    0.099164
    96  H    0.124950
    97  H    0.087226
    98  H    0.105513
    99  H    0.097214
   100  H    0.105824
   101  H    0.087648
   102  H    0.096914
   103  H    0.093492
   104  H    0.080264
   105  H    0.100964
   106  H    0.086082
   107  H    0.061516
   108  H    0.091098
   109  H    0.106583
   110  H    0.102138
   111  H    0.076593
   112  H    0.036004
   113  H    0.087812
   114  H    0.080209
   115  H    0.062780
   116  H    0.103009
   117  H    0.079195
   118  H    0.083786
   119  H    0.072830
   120  H    0.098560
   121  H    0.070751
   122  H    0.081072
   123  H    0.081543
   124  H    0.076387
   125  H    0.105255
   126  H    0.114030
   127  H    0.108459
   128  H    0.082957
   129  H    0.111350
   130  H    0.109392
   131  H    0.099652
   132  H    0.142508
   133  O   -0.365912
   134  H    0.044035
 Sum of Mulliken charges =  -0.00000

 Dipole moment (field-independent basis, Debye):
    X=              3.1164    Y=             -4.6820    Z=             -0.8710  Tot=              5.6913
 Quadrupole moment (field-independent basis, Debye-Ang):
   XX=           -381.4088   YY=           -446.9002   ZZ=           -390.1043
   XY=             14.4853   XZ=             14.9491   YZ=            -32.3236

 Normal termination of Gaussian 16 at Wed Oct  9 02:07:26 2019.
