 Gaussian 16, Revision A.03,
 Gaussian 16:  ES64L-G16RevA.03 25-Dec-2016

 ----------------------------------------------------------------------
 # td=(NStates=1) iop(3/107=0140000000,3/108=0140000000) iop(3/107=0140
 000000,3/108=0140000000) CAM-B3LYP/6-31G(d,p)
 ----------------------------------------------------------------------

 --
 TD
 --
 Symbolic Z-matrix:
 Charge =  0 Multiplicity = 1

                         Standard orientation:
 ---------------------------------------------------------------------
 Center     Atomic      Atomic             Coordinates (Angstroms)
 Number     Number       Type             X           Y           Z
 ---------------------------------------------------------------------
      1         12           0       -5.691246    1.263164    0.132822
      2          6           0       -5.063492   -2.205389   -0.262287
      3          6           0       -3.367817    1.197076    2.689965
      4          6           0       -6.260864    4.559260    0.720919
      5          6           0       -7.997757    1.152232   -2.412918
      6          7           0       -4.386745   -0.232764    1.076661
      7          6           0       -4.384533   -1.678619    0.767976
      8          6           0       -3.305316   -2.302277    1.551518
      9          6           0       -3.007245   -1.294235    2.650087
     10          6           0       -3.547520   -0.032074    2.071465
     11          6           0       -3.504573   -1.760588    4.005608
     12          6           0       -2.163705   -2.827973    0.577820
     13          6           0       -1.125381   -3.604427    1.382620
     14          6           0        0.195641   -3.790571    0.636650
     15          8           0        0.416143   -3.449384   -0.468768
     16          8           0        1.138899   -4.532832    1.344166
     17          7           0       -5.009635    2.542180    1.407960
     18          6           0       -4.062573    2.423002    2.391185
     19          6           0       -3.743031    3.724456    3.083321
     20          6           0       -4.584272    4.573347    2.526973
     21          6           0       -5.305922    3.868056    1.505567
     22          6           0       -2.793194    3.912573    4.252183
     23          6           0       -4.747490    5.998282    2.893706
     24          8           0       -4.143915    6.558612    3.783868
     25          7           0       -6.871833    2.645075   -0.752122
     26          6           0       -7.007431    3.842148   -0.351768
     27          6           0       -8.020021    4.510759   -1.152482
     28          6           0       -8.447418    3.596355   -2.101152
     29          6           0       -7.807509    2.405721   -1.838971
     30          6           0       -8.395671    5.945840   -1.086733
     31          6           0       -9.278443    3.782054   -3.250640
     32          6           0       -8.667644    4.070350   -4.579271
     33          7           0       -6.482566   -0.183060   -1.067258
     34          6           0       -7.452711   -0.076621   -2.035446
     35          6           0       -7.683882   -1.347371   -2.665867
     36          6           0       -6.724528   -2.138562   -2.123001
     37          6           0       -5.994155   -1.445393   -1.096364
     38          6           0       -8.458698   -1.729041   -3.878065
     39          6           0       -6.243986   -3.585206   -2.028391
     40          8           0       -6.557833   -4.594460   -2.644035
     41          6           0       -5.002875   -3.592024   -0.849031
     42          6           0       -5.416317   -4.680271    0.162449
     43          8           0       -5.864538   -4.536439    1.276947
     44          8           0       -5.121330   -5.911732   -0.292509
     45          6           0       -5.252054   -7.027040    0.608587
     46          6           0        2.355328   -4.885454    0.576283
     47          6           0        3.383945   -3.919614    0.970395
     48          6           0        4.114586   -3.025073    0.233299
     49          6           0        3.764862   -2.816895   -1.285961
     50          6           0        5.190960   -2.237179    0.762435
     51          6           0        6.544706   -2.370988   -0.029194
     52          6           0        7.686703   -1.706055    0.577741
     53          6           0        9.124625   -1.973641   -0.022221
     54          6           0        9.687884   -3.388004    0.168610
     55          6           0       10.052732   -0.858631    0.400332
     56          6           0       11.370113   -0.813545   -0.300106
     57          6           0       12.295305    0.269849    0.132831
     58          6           0       13.681950    0.488372   -0.619692
     59          6           0       14.504498   -0.811817   -0.356387
     60          6           0       14.328139    1.805918   -0.223766
     61          6           0       15.561044    2.163831   -1.061472
     62          6           0       16.158607    3.435724   -0.609040
     63          6           0       17.506044    3.717654   -1.305709
     64          6           0       17.337147    3.701374   -2.847610
     65          6           0       18.089922    5.067438   -0.650124
     66          1           0       -2.638898    1.272704    3.474933
     67          1           0       -6.574567    5.643915    0.767718
     68          1           0       -8.764161    1.156019   -3.212685
     69          1           0       -3.718458   -3.309026    2.076388
     70          1           0       -1.871169   -1.248503    2.819959
     71          1           0       -3.091755   -2.762626    4.118309
     72          1           0       -3.100479   -1.163193    5.127250
     73          1           0       -4.790686   -1.793784    4.130597
     74          1           0       -2.402240   -3.433001   -0.331284
     75          1           0       -1.451528   -1.907344    0.166500
     76          1           0       -0.931288   -3.172281    2.398251
     77          1           0       -1.508289   -4.696555    1.539904
     78          1           0       -1.849061    3.584775    4.120469
     79          1           0       -2.930202    4.898372    4.663298
     80          1           0       -3.307031    3.194608    4.837680
     81          1           0       -5.530818    6.417824    2.186469
     82          1           0      -10.156090    2.973109   -3.495905
     83          1           0      -10.181999    4.497908   -3.060333
     84          1           0       -9.290535    4.080268   -5.308304
     85          1           0       -8.193700    4.981441   -4.381956
     86          1           0       -7.926982    3.316807   -4.738285
     87          1           0       -8.003961   -1.180921   -4.858725
     88          1           0       -8.648220   -2.841763   -3.992373
     89          1           0       -9.423395   -1.359574   -3.918738
     90          1           0       -3.984948   -3.741842   -1.376890
     91          1           0        2.626987   -5.926204    1.140677
     92          1           0        2.024626   -4.840821   -0.523895
     93          1           0        3.851636   -4.320400    1.962230
     94          1           0        2.688916   -3.209662   -1.594606
     95          1           0        3.671829   -1.670275   -1.364902
     96          1           0        4.491341   -3.305383   -1.880404
     97          1           0        4.797013   -1.302970    0.384231
     98          1           0        5.256609   -2.293885    1.951064
     99          1           0        6.909687   -3.336495    0.288667
    100          1           0        6.234972   -2.154093   -1.000609
    101          1           0        7.465979   -0.544563    0.446104
    102          1           0        7.922186   -1.837277    1.655148
    103          1           0        9.044793   -1.859840   -1.143669
    104          1           0        8.998825   -4.098014   -0.433115
    105          1           0       10.755647   -3.322149   -0.143008
    106          1           0        9.567942   -3.636654    1.204936
    107          1           0        9.798015    0.201592    0.239155
    108          1           0       10.482177   -0.884761    1.443764
    109          1           0       11.911365   -1.706048   -0.233405
    110          1           0       11.035124   -0.724731   -1.396581
    111          1           0       11.773687    1.486626    0.094382
    112          1           0       12.693860    0.015462    1.169658
    113          1           0       13.364818    0.487374   -1.693752
    114          1           0       14.896524   -0.864182    0.718357
    115          1           0       13.996685   -1.780799   -0.532413
    116          1           0       15.521386   -0.823585   -0.785854
    117          1           0       13.520381    2.774133   -0.107637
    118          1           0       14.628981    1.553623    0.824658
    119          1           0       16.310769    1.312668   -0.858531
    120          1           0       15.336810    2.199036   -2.244149
    121          1           0       15.380640    4.177077   -0.780752
    122          1           0       16.206905    3.344083    0.540094
    123          1           0       18.043564    2.795263   -1.043488
    124          1           0       16.693080    4.541311   -3.180418
    125          1           0       18.455672    4.025928   -3.275996
    126          1           0       17.182628    2.637959   -3.455853
    127          1           0       18.295332    4.829693    0.380304
    128          1           0       19.075011    5.337675   -1.172755
    129          1           0       17.384771    5.838446   -0.699682
    130          1           0       -4.842114   -7.750782   -0.066518
    131          1           0       -6.236936   -6.971851    0.806777
    132          1           0       -4.912373   -7.089667    1.756529
    133          8           0       -7.875701    6.791928   -0.411534
    134          1           0       -9.118972    6.403723   -1.763773
 ---------------------------------------------------------------------

 SCF Done:  E(RCAM-B3LYP) =  -3043.45847946     A.U. after   15 cycles

 Excitation energies and oscillator strengths:

 Excited State   1:      Singlet-A      2.2547 eV  549.89 nm  f=0.1042  <S**2>=0.000
     243 -> 246        0.33784
     244 -> 245        0.61147
 This state for optimization and/or second-order correction.
 Total Energy, E(TD-HF/TD-DFT) =  -3043.37562065
 Copying the excited state density for this state as the 1-particle RhoCI density.

 The electronic state is 1-A.
 Alpha  occ. eigenvalues --  -46.80829 -19.21900 -19.20286 -19.18371 -19.17921
 Alpha  occ. eigenvalues --  -19.17548 -19.16976 -19.16645 -14.38480 -14.37589
 Alpha  occ. eigenvalues --  -14.36728 -14.36504 -10.34973 -10.34585 -10.32586
 Alpha  occ. eigenvalues --  -10.31106 -10.29787 -10.28014 -10.27998 -10.27327
 Alpha  occ. eigenvalues --  -10.26867 -10.26840 -10.26828 -10.26261 -10.26185
 Alpha  occ. eigenvalues --  -10.26142 -10.26057 -10.25801 -10.25348 -10.25259
 Alpha  occ. eigenvalues --  -10.25242 -10.25230 -10.25164 -10.24884 -10.24876
 Alpha  occ. eigenvalues --  -10.24421 -10.24043 -10.23934 -10.23759 -10.23632
 Alpha  occ. eigenvalues --  -10.23379 -10.23237 -10.23091 -10.22794 -10.22523
 Alpha  occ. eigenvalues --  -10.22483 -10.22444 -10.22428 -10.22326 -10.22268
 Alpha  occ. eigenvalues --  -10.22264 -10.22260 -10.22255 -10.22251 -10.21777
 Alpha  occ. eigenvalues --  -10.21640 -10.21400 -10.21299 -10.21217 -10.21088
 Alpha  occ. eigenvalues --  -10.21068 -10.20716 -10.20393 -10.20278 -10.20239
 Alpha  occ. eigenvalues --  -10.19723  -3.09631  -1.84551  -1.84116  -1.84050
 Alpha  occ. eigenvalues --   -1.13560  -1.12998  -1.07879  -1.07693  -1.06755
 Alpha  occ. eigenvalues --   -1.04403  -1.04134  -1.01429  -1.00554  -1.00015
 Alpha  occ. eigenvalues --   -0.99088  -0.87856  -0.86874  -0.86775  -0.85686
 Alpha  occ. eigenvalues --   -0.85563  -0.85284  -0.84634  -0.83735  -0.83079
 Alpha  occ. eigenvalues --   -0.83012  -0.82811  -0.81729  -0.80705  -0.79776
 Alpha  occ. eigenvalues --   -0.79593  -0.78302  -0.77877  -0.77092  -0.76451
 Alpha  occ. eigenvalues --   -0.75843  -0.75341  -0.73658  -0.73375  -0.71866
 Alpha  occ. eigenvalues --   -0.71271  -0.70586  -0.70017  -0.69826  -0.69574
 Alpha  occ. eigenvalues --   -0.69089  -0.68377  -0.67501  -0.67043  -0.65894
 Alpha  occ. eigenvalues --   -0.65490  -0.64151  -0.63541  -0.62028  -0.61844
 Alpha  occ. eigenvalues --   -0.60961  -0.60535  -0.59283  -0.58926  -0.58596
 Alpha  occ. eigenvalues --   -0.58411  -0.58220  -0.57273  -0.57149  -0.56592
 Alpha  occ. eigenvalues --   -0.56317  -0.55804  -0.55114  -0.54815  -0.54557
 Alpha  occ. eigenvalues --   -0.54212  -0.53790  -0.53041  -0.52490  -0.52231
 Alpha  occ. eigenvalues --   -0.52039  -0.51540  -0.51326  -0.50883  -0.50260
 Alpha  occ. eigenvalues --   -0.50069  -0.49826  -0.49520  -0.49306  -0.49212
 Alpha  occ. eigenvalues --   -0.49062  -0.48861  -0.48284  -0.47923  -0.47856
 Alpha  occ. eigenvalues --   -0.47745  -0.47334  -0.47156  -0.46881  -0.46790
 Alpha  occ. eigenvalues --   -0.46659  -0.46247  -0.46112  -0.46097  -0.45878
 Alpha  occ. eigenvalues --   -0.45705  -0.45574  -0.45446  -0.45195  -0.44912
 Alpha  occ. eigenvalues --   -0.44732  -0.44694  -0.44537  -0.44411  -0.43976
 Alpha  occ. eigenvalues --   -0.43518  -0.43368  -0.43113  -0.42924  -0.42697
 Alpha  occ. eigenvalues --   -0.42568  -0.42535  -0.42295  -0.42247  -0.42008
 Alpha  occ. eigenvalues --   -0.41833  -0.41615  -0.41475  -0.41375  -0.41128
 Alpha  occ. eigenvalues --   -0.41042  -0.40944  -0.40597  -0.40414  -0.40086
 Alpha  occ. eigenvalues --   -0.39970  -0.39699  -0.39561  -0.39432  -0.39249
 Alpha  occ. eigenvalues --   -0.39148  -0.38941  -0.38812  -0.38702  -0.38594
 Alpha  occ. eigenvalues --   -0.38498  -0.38253  -0.37570  -0.37196  -0.36894
 Alpha  occ. eigenvalues --   -0.35942  -0.35668  -0.35625  -0.35522  -0.35440
 Alpha  occ. eigenvalues --   -0.35098  -0.34906  -0.34736  -0.34718  -0.34519
 Alpha  occ. eigenvalues --   -0.34322  -0.33722  -0.33416  -0.33196  -0.32857
 Alpha  occ. eigenvalues --   -0.32289  -0.32155  -0.32018  -0.31903  -0.31721
 Alpha  occ. eigenvalues --   -0.31132  -0.30869  -0.30790  -0.30526  -0.30291
 Alpha  occ. eigenvalues --   -0.29622  -0.28598  -0.28467  -0.27952  -0.27498
 Alpha  occ. eigenvalues --   -0.27302  -0.26049  -0.22816  -0.22083
 Alpha virt. eigenvalues --   -0.07674  -0.06517  -0.01324  -0.00277   0.00748
 Alpha virt. eigenvalues --    0.02931   0.03332   0.03653   0.04269   0.04525
 Alpha virt. eigenvalues --    0.04768   0.05683   0.07382   0.08292   0.09121

 Mulliken charges:
               1
     1  Mg   0.837823
     2  C    0.110111
     3  C   -0.213233
     4  C   -0.206810
     5  C   -0.150614
     6  N   -0.633796
     7  C    0.300426
     8  C   -0.169916
     9  C   -0.140794
    10  C    0.407424
    11  C   -0.272812
    12  C   -0.165743
    13  C   -0.264657
    14  C    0.593092
    15  O   -0.442730
    16  O   -0.489003
    17  N   -0.715897
    18  C    0.285723
    19  C    0.022174
    20  C   -0.008649
    21  C    0.327025
    22  C   -0.368461
    23  C    0.285394
    24  O   -0.419653
    25  N   -0.725544
    26  C    0.362034
    27  C   -0.087042
    28  C    0.119792
    29  C    0.243215
    30  C    0.239425
    31  C   -0.313643
    32  C   -0.273156
    33  N   -0.724683
    34  C    0.275500
    35  C    0.028774
    36  C    0.009181
    37  C    0.272465
    38  C   -0.380170
    39  C    0.366466
    40  O   -0.443023
    41  C   -0.353670
    42  C    0.622477
    43  O   -0.470626
    44  O   -0.446827
    45  C   -0.081032
    46  C   -0.018483
    47  C   -0.105090
    48  C    0.133222
    49  C   -0.379135
    50  C   -0.236428
    51  C   -0.150333
    52  C   -0.176380
    53  C   -0.063356
    54  C   -0.313219
    55  C   -0.154649
    56  C   -0.180257
    57  C   -0.153619
    58  C   -0.047021
    59  C   -0.334051
    60  C   -0.156654
    61  C   -0.160569
    62  C   -0.156367
    63  C   -0.049377
    64  C   -0.301078
    65  C   -0.315936
    66  H    0.071767
    67  H    0.155567
    68  H    0.098319
    69  H    0.118072
    70  H    0.106863
    71  H    0.125641
    72  H    0.070101
    73  H    0.099302
    74  H    0.124076
    75  H    0.101606
    76  H    0.130426
    77  H    0.129501
    78  H    0.134667
    79  H    0.164085
    80  H    0.136147
    81  H    0.080159
    82  H    0.079775
    83  H    0.096580
    84  H    0.119102
    85  H    0.119436
    86  H    0.109176
    87  H    0.112846
    88  H    0.144504
    89  H    0.127733
    90  H    0.156662
    91  H    0.104773
    92  H    0.126233
    93  H    0.063975
    94  H    0.132264
    95  H    0.102000
    96  H    0.135715
    97  H    0.105714
    98  H    0.093115
    99  H    0.103162
   100  H    0.107738
   101  H    0.061916
   102  H    0.095737
   103  H    0.074405
   104  H    0.101804
   105  H    0.109128
   106  H    0.106776
   107  H    0.098776
   108  H    0.075408
   109  H    0.094107
   110  H    0.073380
   111  H    0.033719
   112  H    0.080552
   113  H    0.083443
   114  H    0.086859
   115  H    0.112908
   116  H    0.103026
   117  H    0.060508
   118  H    0.088772
   119  H    0.078862
   120  H    0.080902
   121  H    0.087944
   122  H    0.075391
   123  H    0.088947
   124  H    0.110049
   125  H    0.066122
   126  H    0.097857
   127  H    0.113761
   128  H    0.091385
   129  H    0.116716
   130  H    0.132899
   131  H    0.145990
   132  H    0.106349
   133  O   -0.413872
   134  H    0.065115
 Sum of Mulliken charges =  -0.00000

 Dipole moment (field-independent basis, Debye):
    X=              2.8863    Y=             -3.5844    Z=             -0.9191  Tot=              4.6929
 Quadrupole moment (field-independent basis, Debye-Ang):
   XX=           -370.8583   YY=           -438.8445   ZZ=           -392.8138
   XY=             -0.0445   XZ=             24.3656   YZ=            -29.7840

 Normal termination of Gaussian 16 at Fri Oct 11 08:40:30 2019.
