 Gaussian 16, Revision A.03,
 Gaussian 16:  ES64L-G16RevA.03 25-Dec-2016

 ----------------------------------------------------------------------
 # td=(NStates=1) iop(3/107=0140000000,3/108=0140000000) iop(3/107=0140
 000000,3/108=0140000000) CAM-B3LYP/6-31G(d,p)
 ----------------------------------------------------------------------

 --
 TD
 --
 Symbolic Z-matrix:
 Charge =  0 Multiplicity = 1

                         Standard orientation:
 ---------------------------------------------------------------------
 Center     Atomic      Atomic             Coordinates (Angstroms)
 Number     Number       Type             X           Y           Z
 ---------------------------------------------------------------------
      1         12           0       -5.565235    1.251221    0.205924
      2          6           0       -4.986145   -2.053183   -0.320504
      3          6           0       -3.351172    1.154051    2.875873
      4          6           0       -6.184595    4.508479    0.657471
      5          6           0       -7.910865    1.246462   -2.380944
      6          7           0       -4.283363   -0.303287    0.989768
      7          6           0       -4.160035   -1.563597    0.675456
      8          6           0       -3.123460   -2.342570    1.434188
      9          6           0       -2.850081   -1.333056    2.591603
     10          6           0       -3.472113   -0.064958    2.106604
     11          6           0       -3.604197   -1.752591    3.943406
     12          6           0       -1.940990   -2.669043    0.579087
     13          6           0       -1.119013   -3.809534    1.316220
     14          6           0        0.237811   -4.084573    0.623272
     15          8           0        0.320513   -3.647830   -0.506788
     16          8           0        0.976698   -4.829435    1.243406
     17          7           0       -4.899888    2.596824    1.495511
     18          6           0       -3.981719    2.369520    2.499287
     19          6           0       -3.712186    3.550686    3.180130
     20          6           0       -4.413945    4.532602    2.608674
     21          6           0       -5.276997    3.889346    1.573491
     22          6           0       -2.812220    3.719395    4.415689
     23          6           0       -4.547839    5.966549    3.042445
     24          8           0       -4.058923    6.466789    3.990591
     25          7           0       -6.989713    2.529978   -0.624851
     26          6           0       -6.955748    3.893325   -0.400343
     27          6           0       -7.952333    4.588140   -1.134042
     28          6           0       -8.407018    3.652594   -2.041158
     29          6           0       -7.758190    2.372677   -1.722418
     30          6           0       -8.308899    6.058854   -1.174796
     31          6           0       -9.357847    4.032529   -3.144212
     32          6           0       -8.667849    4.299065   -4.445890
     33          7           0       -6.368792   -0.152194   -1.170667
     34          6           0       -7.231267    0.019164   -2.123181
     35          6           0       -7.497760   -1.194147   -2.751763
     36          6           0       -6.658854   -2.127109   -2.156032
     37          6           0       -5.965634   -1.337279   -1.127670
     38          6           0       -8.424871   -1.545043   -3.844975
     39          6           0       -6.118289   -3.486908   -2.111446
     40          8           0       -6.503548   -4.438575   -2.654069
     41          6           0       -5.025044   -3.500612   -0.906250
     42          6           0       -5.380622   -4.553949    0.118779
     43          8           0       -5.729101   -4.462158    1.259312
     44          8           0       -5.043356   -5.820733   -0.478933
     45          6           0       -5.393738   -6.963669    0.275609
     46          6           0        2.278728   -5.120042    0.683208
     47          6           0        3.378661   -4.121469    1.142417
     48          6           0        3.997819   -3.340757    0.302581
     49          6           0        3.560276   -3.192664   -1.135698
     50          6           0        5.218673   -2.457082    0.756322
     51          6           0        6.509244   -2.802243    0.077847
     52          6           0        7.643405   -1.944726    0.517663
     53          6           0        9.052630   -2.115988   -0.128390
     54          6           0        9.675227   -3.426085    0.181297
     55          6           0        9.936164   -0.943815    0.320306
     56          6           0       11.293331   -0.928145   -0.339987
     57          6           0       12.157778    0.264288    0.183480
     58          6           0       13.529226    0.508428   -0.572185
     59          6           0       14.439318   -0.593467   -0.429078
     60          6           0       14.249094    1.751607   -0.252910
     61          6           0       15.404619    2.253730   -1.076535
     62          6           0       16.005560    3.621182   -0.692127
     63          6           0       17.337423    4.016051   -1.237870
     64          6           0       17.157095    3.984061   -2.758154
     65          6           0       17.767030    5.428846   -0.796868
     66          1           0       -2.583428    1.165197    3.748227
     67          1           0       -6.414473    5.543277    0.754399
     68          1           0       -8.524023    1.264910   -3.340324
     69          1           0       -3.552289   -3.282841    1.827576
     70          1           0       -1.845339   -1.245578    2.819662
     71          1           0       -3.222139   -2.785519    4.181293
     72          1           0       -3.330054   -0.965690    4.663137
     73          1           0       -4.725195   -1.841063    3.931088
     74          1           0       -2.247720   -3.274447   -0.374322
     75          1           0       -1.477362   -1.765276    0.466829
     76          1           0       -0.738319   -3.354062    2.412445
     77          1           0       -1.728197   -4.684609    1.532943
     78          1           0       -1.804350    3.299772    4.378730
     79          1           0       -2.770400    4.821223    4.516374
     80          1           0       -3.469290    3.228605    5.245067
     81          1           0       -5.106175    6.646295    2.214570
     82          1           0       -9.899189    3.022269   -3.254745
     83          1           0      -10.067960    4.939452   -2.840776
     84          1           0       -9.688155    4.677813   -5.105023
     85          1           0       -8.262482    5.237514   -4.480962
     86          1           0       -7.895045    3.659698   -4.934996
     87          1           0       -8.011260   -1.015755   -4.658505
     88          1           0       -8.370249   -2.698623   -4.128052
     89          1           0       -9.519427   -0.990643   -3.716939
     90          1           0       -4.111639   -3.714640   -1.549338
     91          1           0        2.535163   -6.038578    0.988963
     92          1           0        2.022280   -5.071703   -0.419777
     93          1           0        3.853075   -4.427523    2.172778
     94          1           0        2.415811   -3.207507   -1.367860
     95          1           0        3.842001   -2.197967   -1.443509
     96          1           0        3.953822   -4.015185   -1.842055
     97          1           0        4.861992   -1.369537    0.506805
     98          1           0        5.437021   -2.618272    1.923599
     99          1           0        6.775833   -3.717596    0.171123
    100          1           0        6.420750   -2.517293   -0.991921
    101          1           0        7.357648   -0.839768    0.412541
    102          1           0        7.728183   -2.060047    1.563188
    103          1           0        8.780741   -2.072662   -1.133113
    104          1           0        8.843655   -4.217146   -0.142683
    105          1           0       10.478811   -3.659518   -0.501794
    106          1           0        9.784958   -3.513394    1.269712
    107          1           0        9.288098   -0.070164    0.260057
    108          1           0        9.950765   -0.958543    1.585491
    109          1           0       11.801935   -1.795487    0.092692
    110          1           0       11.222913   -0.981055   -1.367008
    111          1           0       11.566027    1.189853    0.094306
    112          1           0       12.289857    0.142721    1.188384
    113          1           0       13.425372    0.453770   -1.665069
    114          1           0       14.942217   -0.784377    0.598628
    115          1           0       13.997642   -1.710402   -0.531854
    116          1           0       15.072249   -0.418016   -1.182967
    117          1           0       13.590073    2.738944   -0.346003
    118          1           0       14.380468    1.853466    0.909673
    119          1           0       16.147395    1.527729   -1.130111
    120          1           0       14.894092    2.322074   -1.950140
    121          1           0       15.157431    4.320550   -0.928753
    122          1           0       16.158352    3.721756    0.415897
    123          1           0       18.123147    3.329170   -0.975604
    124          1           0       16.170126    4.627303   -3.047897
    125          1           0       18.114634    4.701047   -3.057560
    126          1           0       16.992118    2.958734   -3.210762
    127          1           0       17.878818    5.532820    0.367355
    128          1           0       18.797520    5.532235   -1.384990
    129          1           0       16.994771    6.151143   -0.983725
    130          1           0       -5.056798   -7.844725   -0.409215
    131          1           0       -6.471415   -7.005385    0.526537
    132          1           0       -4.784209   -6.769633    1.113094
    133          8           0       -7.749178    6.871673   -0.456437
    134          1           0       -9.166396    6.179176   -1.792747
 ---------------------------------------------------------------------

 SCF Done:  E(RCAM-B3LYP) =  -3043.48367573     A.U. after   15 cycles

 Excitation energies and oscillator strengths:

 Excited State   1:      Singlet-A      2.0629 eV  601.03 nm  f=0.1998  <S**2>=0.000
     243 -> 246       -0.25913
     244 -> 245        0.64278
 This state for optimization and/or second-order correction.
 Total Energy, E(TD-HF/TD-DFT) =  -3043.40786714
 Copying the excited state density for this state as the 1-particle RhoCI density.

 The electronic state is 1-A.
 Alpha  occ. eigenvalues --  -46.82120 -19.24008 -19.19853 -19.18384 -19.18236
 Alpha  occ. eigenvalues --  -19.17835 -19.16777 -19.15379 -14.38957 -14.36748
 Alpha  occ. eigenvalues --  -14.36508 -14.35297 -10.35019 -10.34059 -10.31359
 Alpha  occ. eigenvalues --  -10.30991 -10.30724 -10.27992 -10.27772 -10.26671
 Alpha  occ. eigenvalues --  -10.26302 -10.26190 -10.26068 -10.25994 -10.25362
 Alpha  occ. eigenvalues --  -10.25179 -10.24798 -10.24556 -10.24446 -10.24306
 Alpha  occ. eigenvalues --  -10.24279 -10.24184 -10.24118 -10.23767 -10.23730
 Alpha  occ. eigenvalues --  -10.23551 -10.23419 -10.23374 -10.23307 -10.23282
 Alpha  occ. eigenvalues --  -10.23087 -10.23005 -10.22974 -10.22843 -10.22546
 Alpha  occ. eigenvalues --  -10.22543 -10.22495 -10.22477 -10.22318 -10.22299
 Alpha  occ. eigenvalues --  -10.21963 -10.21872 -10.21807 -10.21460 -10.21352
 Alpha  occ. eigenvalues --  -10.21198 -10.20985 -10.20822 -10.20787 -10.20748
 Alpha  occ. eigenvalues --  -10.20579 -10.20333 -10.20189 -10.19941 -10.19892
 Alpha  occ. eigenvalues --  -10.19584  -3.10579  -1.85530  -1.85050  -1.84974
 Alpha  occ. eigenvalues --   -1.18549  -1.11766  -1.09748  -1.09411  -1.07586
 Alpha  occ. eigenvalues --   -1.05024  -1.04369  -1.03583  -1.00996  -1.00319
 Alpha  occ. eigenvalues --   -0.99640  -0.87020  -0.86850  -0.86648  -0.85680
 Alpha  occ. eigenvalues --   -0.85473  -0.85282  -0.84552  -0.84374  -0.83961
 Alpha  occ. eigenvalues --   -0.83524  -0.82746  -0.82227  -0.80506  -0.79722
 Alpha  occ. eigenvalues --   -0.78988  -0.78676  -0.77711  -0.76979  -0.76266
 Alpha  occ. eigenvalues --   -0.75988  -0.73712  -0.73175  -0.72358  -0.71161
 Alpha  occ. eigenvalues --   -0.71026  -0.70764  -0.70294  -0.69869  -0.69415
 Alpha  occ. eigenvalues --   -0.69159  -0.68994  -0.67666  -0.66868  -0.66071
 Alpha  occ. eigenvalues --   -0.65647  -0.65037  -0.64196  -0.63328  -0.62067
 Alpha  occ. eigenvalues --   -0.61320  -0.61110  -0.60633  -0.59745  -0.59226
 Alpha  occ. eigenvalues --   -0.58496  -0.58160  -0.58080  -0.57357  -0.57085
 Alpha  occ. eigenvalues --   -0.56372  -0.55999  -0.55238  -0.54997  -0.54677
 Alpha  occ. eigenvalues --   -0.54146  -0.53425  -0.53036  -0.52580  -0.52152
 Alpha  occ. eigenvalues --   -0.51882  -0.51694  -0.51134  -0.51050  -0.50661
 Alpha  occ. eigenvalues --   -0.50213  -0.49962  -0.49701  -0.49568  -0.49468
 Alpha  occ. eigenvalues --   -0.49045  -0.48637  -0.48514  -0.48381  -0.47961
 Alpha  occ. eigenvalues --   -0.47804  -0.47616  -0.47540  -0.47348  -0.47138
 Alpha  occ. eigenvalues --   -0.47099  -0.46948  -0.46652  -0.46482  -0.46081
 Alpha  occ. eigenvalues --   -0.46021  -0.45843  -0.45390  -0.45091  -0.44934
 Alpha  occ. eigenvalues --   -0.44675  -0.44518  -0.44210  -0.44083  -0.43794
 Alpha  occ. eigenvalues --   -0.43417  -0.43306  -0.43121  -0.42943  -0.42862
 Alpha  occ. eigenvalues --   -0.42794  -0.42565  -0.42351  -0.42304  -0.42081
 Alpha  occ. eigenvalues --   -0.41929  -0.41715  -0.41698  -0.41397  -0.41336
 Alpha  occ. eigenvalues --   -0.41179  -0.40999  -0.40547  -0.40474  -0.40180
 Alpha  occ. eigenvalues --   -0.39675  -0.39575  -0.39406  -0.39138  -0.39127
 Alpha  occ. eigenvalues --   -0.38822  -0.38609  -0.38422  -0.38214  -0.37988
 Alpha  occ. eigenvalues --   -0.37954  -0.37666  -0.37393  -0.37334  -0.37171
 Alpha  occ. eigenvalues --   -0.36821  -0.36319  -0.36040  -0.35551  -0.35498
 Alpha  occ. eigenvalues --   -0.35042  -0.34967  -0.34876  -0.34649  -0.34536
 Alpha  occ. eigenvalues --   -0.34193  -0.34083  -0.33980  -0.33850  -0.33284
 Alpha  occ. eigenvalues --   -0.32699  -0.32434  -0.31925  -0.31531  -0.31397
 Alpha  occ. eigenvalues --   -0.31264  -0.30949  -0.30939  -0.29497  -0.29230
 Alpha  occ. eigenvalues --   -0.28966  -0.28652  -0.28607  -0.28051  -0.27673
 Alpha  occ. eigenvalues --   -0.27581  -0.26936  -0.22260  -0.21205
 Alpha virt. eigenvalues --   -0.08140  -0.05627  -0.01093  -0.00344   0.01422
 Alpha virt. eigenvalues --    0.02937   0.03298   0.03380   0.04314   0.05329
 Alpha virt. eigenvalues --    0.05720   0.06453   0.07671   0.08486   0.09510

 Mulliken charges:
               1
     1  Mg   0.836426
     2  C    0.037512
     3  C   -0.197708
     4  C   -0.191034
     5  C   -0.187234
     6  N   -0.625849
     7  C    0.350016
     8  C   -0.149666
     9  C   -0.159031
    10  C    0.317521
    11  C   -0.308118
    12  C   -0.125390
    13  C   -0.281448
    14  C    0.593869
    15  O   -0.491776
    16  O   -0.379422
    17  N   -0.739657
    18  C    0.332859
    19  C    0.036241
    20  C   -0.051322
    21  C    0.308221
    22  C   -0.373873
    23  C    0.251689
    24  O   -0.381528
    25  N   -0.688864
    26  C    0.262108
    27  C   -0.021631
    28  C    0.008286
    29  C    0.367784
    30  C    0.294186
    31  C   -0.255611
    32  C   -0.294451
    33  N   -0.691458
    34  C    0.276886
    35  C    0.004130
    36  C    0.023930
    37  C    0.280074
    38  C   -0.387264
    39  C    0.329239
    40  O   -0.401301
    41  C   -0.339519
    42  C    0.626769
    43  O   -0.449468
    44  O   -0.480464
    45  C   -0.068912
    46  C   -0.011987
    47  C   -0.156619
    48  C    0.162955
    49  C   -0.394300
    50  C   -0.226417
    51  C   -0.145454
    52  C   -0.189685
    53  C   -0.052905
    54  C   -0.297279
    55  C   -0.159829
    56  C   -0.179007
    57  C   -0.176337
    58  C   -0.057391
    59  C   -0.283350
    60  C   -0.166926
    61  C   -0.186252
    62  C   -0.158975
    63  C   -0.053826
    64  C   -0.278493
    65  C   -0.299221
    66  H    0.099372
    67  H    0.120838
    68  H    0.087072
    69  H    0.117842
    70  H    0.106732
    71  H    0.108167
    72  H    0.110073
    73  H    0.131016
    74  H    0.116533
    75  H    0.112167
    76  H    0.077256
    77  H    0.134361
    78  H    0.118288
    79  H    0.155772
    80  H    0.120511
    81  H    0.056157
    82  H    0.107625
    83  H    0.111872
    84  H    0.070656
    85  H    0.131224
    86  H    0.126207
    87  H    0.137853
    88  H    0.140738
    89  H    0.099225
    90  H    0.163334
    91  H    0.123071
    92  H    0.133133
    93  H    0.078431
    94  H    0.157453
    95  H    0.106417
    96  H    0.114554
    97  H    0.097544
    98  H    0.080574
    99  H    0.105888
   100  H    0.090645
   101  H    0.071803
   102  H    0.083469
   103  H    0.087641
   104  H    0.069055
   105  H    0.113918
   106  H    0.106766
   107  H    0.090397
   108  H    0.043312
   109  H    0.108491
   110  H    0.102193
   111  H    0.084393
   112  H    0.101353
   113  H    0.076548
   114  H    0.083161
   115  H    0.070665
   116  H    0.109507
   117  H    0.054781
   118  H    0.068288
   119  H    0.097278
   120  H    0.110291
   121  H    0.082408
   122  H    0.076410
   123  H    0.097458
   124  H    0.076764
   125  H    0.064635
   126  H    0.109803
   127  H    0.088575
   128  H    0.089666
   129  H    0.115060
   130  H    0.114794
   131  H    0.122858
   132  H    0.120768
   133  O   -0.417356
   134  H    0.071807
 Sum of Mulliken charges =  -0.00000

 Dipole moment (field-independent basis, Debye):
    X=              3.6955    Y=             -3.3769    Z=             -1.4936  Tot=              5.2241
 Quadrupole moment (field-independent basis, Debye-Ang):
   XX=           -384.2285   YY=           -431.9447   ZZ=           -397.3202
   XY=            -14.1102   XZ=             22.4660   YZ=            -35.1430

 Normal termination of Gaussian 16 at Thu Oct 10 19:55:30 2019.
