 Gaussian 16, Revision A.03,
 Gaussian 16:  ES64L-G16RevA.03 25-Dec-2016

 ----------------------------------------------------------------------
 # td=(NStates=1) iop(3/107=0140000000,3/108=0140000000) iop(3/107=0140
 000000,3/108=0140000000) CAM-B3LYP/6-31G(d,p)
 ----------------------------------------------------------------------

 --
 TD
 --
 Symbolic Z-matrix:
 Charge =  0 Multiplicity = 1

                         Standard orientation:
 ---------------------------------------------------------------------
 Center     Atomic      Atomic             Coordinates (Angstroms)
 Number     Number       Type             X           Y           Z
 ---------------------------------------------------------------------
      1         12           0       -5.669334    1.280789    0.244802
      2          6           0       -5.095649   -2.230617   -0.315903
      3          6           0       -3.391931    1.178385    2.726479
      4          6           0       -6.140309    4.484569    0.687692
      5          6           0       -8.031798    1.087697   -2.257236
      6          7           0       -4.481425   -0.339519    1.032820
      7          6           0       -4.294970   -1.604086    0.573452
      8          6           0       -3.220509   -2.223032    1.528765
      9          6           0       -2.937647   -1.264928    2.701188
     10          6           0       -3.557772   -0.067145    2.150319
     11          6           0       -3.678382   -1.739240    3.958318
     12          6           0       -1.974420   -2.621188    0.653803
     13          6           0       -0.932173   -3.498927    1.436692
     14          6           0        0.241617   -3.954558    0.609924
     15          8           0        0.451045   -3.492506   -0.492574
     16          8           0        1.182954   -4.772686    1.337938
     17          7           0       -4.869636    2.480634    1.521282
     18          6           0       -4.051762    2.451050    2.473200
     19          6           0       -3.710318    3.761532    3.089940
     20          6           0       -4.544213    4.644975    2.484473
     21          6           0       -5.219034    3.967453    1.509091
     22          6           0       -2.802375    4.008541    4.305813
     23          6           0       -4.632647    5.983089    2.848479
     24          8           0       -4.015577    6.533689    3.794411
     25          7           0       -7.007719    2.685184   -0.694427
     26          6           0       -6.947847    3.941079   -0.376159
     27          6           0       -7.841924    4.600226   -1.252419
     28          6           0       -8.468668    3.668866   -2.104894
     29          6           0       -7.843498    2.414884   -1.721020
     30          6           0       -8.222467    6.019552   -1.253845
     31          6           0       -9.414985    3.774099   -3.288626
     32          6           0       -8.648184    4.123740   -4.543924
     33          7           0       -6.348037   -0.103511   -1.026937
     34          6           0       -7.399998   -0.020122   -2.012161
     35          6           0       -7.553322   -1.344911   -2.747157
     36          6           0       -6.697953   -2.147013   -2.038184
     37          6           0       -5.978159   -1.408670   -1.125045
     38          6           0       -8.637982   -1.732064   -3.698026
     39          6           0       -6.207083   -3.515192   -1.957248
     40          8           0       -6.544760   -4.546708   -2.580156
     41          6           0       -5.078210   -3.560154   -0.870721
     42          6           0       -5.305767   -4.660678    0.136390
     43          8           0       -5.662662   -4.576087    1.249075
     44          8           0       -4.831675   -5.833427   -0.363743
     45          6           0       -5.090023   -7.038195    0.416533
     46          6           0        2.369237   -5.111036    0.616639
     47          6           0        3.377152   -4.253875    1.014234
     48          6           0        4.041956   -3.324488    0.276676
     49          6           0        3.718528   -3.115250   -1.173284
     50          6           0        5.109133   -2.396986    0.751704
     51          6           0        6.450622   -2.662248    0.121043
     52          6           0        7.698306   -1.792277    0.523280
     53          6           0        9.041294   -2.000648   -0.210084
     54          6           0        9.513191   -3.414748    0.052251
     55          6           0       10.025328   -0.898691    0.281341
     56          6           0       11.250757   -0.801223   -0.375736
     57          6           0       12.138614    0.337114    0.083040
     58          6           0       13.472517    0.427678   -0.621555
     59          6           0       14.382866   -0.828895   -0.561832
     60          6           0       14.252383    1.672161   -0.225183
     61          6           0       15.508986    2.129984   -0.967865
     62          6           0       15.977227    3.503489   -0.482012
     63          6           0       17.352058    3.916375   -1.211502
     64          6           0       17.186595    4.162534   -2.731310
     65          6           0       17.931800    5.237791   -0.650168
     66          1           0       -2.748482    1.156294    3.483648
     67          1           0       -6.461876    5.632829    0.843506
     68          1           0       -8.691201    1.200316   -3.256869
     69          1           0       -3.606002   -3.137778    1.850153
     70          1           0       -1.903033   -1.060015    2.776400
     71          1           0       -3.249550   -2.814719    4.278726
     72          1           0       -3.466736   -0.972501    4.754575
     73          1           0       -4.615750   -1.972432    3.734359
     74          1           0       -2.212270   -3.077299   -0.166082
     75          1           0       -1.595517   -1.611444    0.258032
     76          1           0       -0.452531   -3.093804    2.418758
     77          1           0       -1.542750   -4.334813    1.923292
     78          1           0       -1.605392    3.685100    4.083187
     79          1           0       -3.137953    4.838302    4.784835
     80          1           0       -3.230039    3.130031    5.042370
     81          1           0       -5.201949    6.772828    2.306113
     82          1           0      -10.001727    2.793868   -3.216081
     83          1           0      -10.136686    4.504973   -3.114261
     84          1           0       -9.236753    4.369104   -5.382691
     85          1           0       -8.113580    5.155769   -4.515930
     86          1           0       -8.059170    3.216601   -4.763055
     87          1           0       -8.466874   -0.908711   -4.475641
     88          1           0       -8.215509   -2.778798   -4.154634
     89          1           0       -9.627638   -1.928130   -3.245723
     90          1           0       -4.126197   -3.895347   -1.353272
     91          1           0        2.538466   -6.128556    1.058897
     92          1           0        2.135056   -5.252160   -0.377673
     93          1           0        3.695989   -4.100018    1.955813
     94          1           0        2.766753   -3.578737   -1.442685
     95          1           0        3.791209   -2.265521   -1.743315
     96          1           0        4.227722   -3.636449   -1.674914
     97          1           0        4.984339   -1.349298    0.489552
     98          1           0        5.292247   -2.368915    1.816360
     99          1           0        6.851024   -3.763085    0.303019
    100          1           0        6.273108   -2.562141   -1.037958
    101          1           0        7.386511   -0.760840    0.406123
    102          1           0        8.113467   -1.907333    1.553330
    103          1           0        8.705692   -1.843451   -1.308064
    104          1           0        8.804523   -4.114612   -0.222607
    105          1           0       10.488468   -3.457694   -0.609512
    106          1           0        9.559657   -3.642130    1.124899
    107          1           0        9.388561    0.154413    0.340999
    108          1           0       10.212654   -1.073169    1.267745
    109          1           0       11.927082   -1.677692   -0.176694
    110          1           0       11.356305   -0.692133   -1.448391
    111          1           0       11.578018    1.219409   -0.011353
    112          1           0       12.134044    0.169063    1.306824
    113          1           0       13.243227    0.574414   -1.749926
    114          1           0       14.554045   -1.233305    0.384447
    115          1           0       14.000893   -1.696361   -1.091116
    116          1           0       15.244594   -0.447767   -1.036347
    117          1           0       13.449284    2.495918   -0.385795
    118          1           0       14.509429    1.782536    0.910763
    119          1           0       16.421809    1.547139   -0.885581
    120          1           0       15.168834    2.057263   -2.052915
    121          1           0       15.141490    4.364559   -0.589037
    122          1           0       16.287902    3.456208    0.610228
    123          1           0       18.187666    3.351313   -1.146024
    124          1           0       16.616645    5.041237   -2.931772
    125          1           0       18.131661    4.338969   -3.209609
    126          1           0       16.533323    3.302955   -3.246868
    127          1           0       18.207170    5.244202    0.373688
    128          1           0       18.802614    5.446220   -1.146957
    129          1           0       17.133159    6.051470   -0.731470
    130          1           0       -4.694864   -7.909799    0.006894
    131          1           0       -6.175348   -7.122294    0.489703
    132          1           0       -4.767074   -6.698958    1.383573
    133          8           0       -7.773211    6.888367   -0.527129
    134          1           0       -8.900500    6.186129   -1.955308
 ---------------------------------------------------------------------

 SCF Done:  E(RCAM-B3LYP) =  -3043.43002181     A.U. after   15 cycles

 Excitation energies and oscillator strengths:

 Excited State   1:      Singlet-A      2.1785 eV  569.13 nm  f=0.0977  <S**2>=0.000
     243 -> 245       -0.15772
     243 -> 246       -0.31033
     244 -> 245        0.57992
     244 -> 246       -0.17418
 This state for optimization and/or second-order correction.
 Total Energy, E(TD-HF/TD-DFT) =  -3043.34996394
 Copying the excited state density for this state as the 1-particle RhoCI density.

 The electronic state is 1-A.
 Alpha  occ. eigenvalues --  -46.81267 -19.21130 -19.20953 -19.18091 -19.17498
 Alpha  occ. eigenvalues --  -19.17322 -19.17232 -19.16241 -14.38276 -14.37531
 Alpha  occ. eigenvalues --  -14.37042 -14.36170 -10.35477 -10.34632 -10.31851
 Alpha  occ. eigenvalues --  -10.30534 -10.28286 -10.27728 -10.27286 -10.26895
 Alpha  occ. eigenvalues --  -10.26629 -10.26546 -10.26321 -10.26290 -10.26286
 Alpha  occ. eigenvalues --  -10.25922 -10.25724 -10.25393 -10.25390 -10.25222
 Alpha  occ. eigenvalues --  -10.25040 -10.25012 -10.24920 -10.24686 -10.24379
 Alpha  occ. eigenvalues --  -10.23646 -10.23502 -10.23486 -10.23441 -10.23077
 Alpha  occ. eigenvalues --  -10.23005 -10.22804 -10.22772 -10.22744 -10.22713
 Alpha  occ. eigenvalues --  -10.22536 -10.22473 -10.22409 -10.22273 -10.21910
 Alpha  occ. eigenvalues --  -10.21573 -10.21455 -10.21445 -10.21309 -10.21221
 Alpha  occ. eigenvalues --  -10.21071 -10.20822 -10.20753 -10.20691 -10.20311
 Alpha  occ. eigenvalues --  -10.19960 -10.19668 -10.19446 -10.19045 -10.18988
 Alpha  occ. eigenvalues --  -10.16921  -3.09955  -1.84882  -1.84465  -1.84346
 Alpha  occ. eigenvalues --   -1.14181  -1.11286  -1.05905  -1.05509  -1.05501
 Alpha  occ. eigenvalues --   -1.05251  -1.04691  -1.02021  -1.00957  -0.99507
 Alpha  occ. eigenvalues --   -0.97236  -0.89532  -0.87504  -0.86754  -0.86247
 Alpha  occ. eigenvalues --   -0.85681  -0.85092  -0.84457  -0.84209  -0.83671
 Alpha  occ. eigenvalues --   -0.83528  -0.83038  -0.82174  -0.81169  -0.79957
 Alpha  occ. eigenvalues --   -0.79220  -0.78732  -0.77979  -0.77373  -0.77155
 Alpha  occ. eigenvalues --   -0.76460  -0.75733  -0.74611  -0.73462  -0.72630
 Alpha  occ. eigenvalues --   -0.72116  -0.71544  -0.70411  -0.70141  -0.69787
 Alpha  occ. eigenvalues --   -0.69533  -0.69397  -0.68716  -0.68250  -0.66835
 Alpha  occ. eigenvalues --   -0.66523  -0.64758  -0.64497  -0.62293  -0.62111
 Alpha  occ. eigenvalues --   -0.61920  -0.60717  -0.59884  -0.59181  -0.59155
 Alpha  occ. eigenvalues --   -0.59124  -0.58410  -0.58145  -0.57781  -0.57434
 Alpha  occ. eigenvalues --   -0.57228  -0.56907  -0.56006  -0.55421  -0.54678
 Alpha  occ. eigenvalues --   -0.54442  -0.53507  -0.52968  -0.52274  -0.52244
 Alpha  occ. eigenvalues --   -0.51888  -0.51354  -0.51249  -0.51142  -0.50853
 Alpha  occ. eigenvalues --   -0.50076  -0.49788  -0.49642  -0.49447  -0.49390
 Alpha  occ. eigenvalues --   -0.49261  -0.48926  -0.48740  -0.48605  -0.48402
 Alpha  occ. eigenvalues --   -0.48056  -0.48020  -0.47652  -0.47337  -0.47255
 Alpha  occ. eigenvalues --   -0.47045  -0.46981  -0.46812  -0.46502  -0.46198
 Alpha  occ. eigenvalues --   -0.45877  -0.45650  -0.45377  -0.45197  -0.45124
 Alpha  occ. eigenvalues --   -0.44871  -0.44620  -0.44537  -0.44022  -0.43666
 Alpha  occ. eigenvalues --   -0.43580  -0.43510  -0.43451  -0.43288  -0.42938
 Alpha  occ. eigenvalues --   -0.42675  -0.42339  -0.42274  -0.42114  -0.41989
 Alpha  occ. eigenvalues --   -0.41814  -0.41778  -0.41382  -0.40921  -0.40900
 Alpha  occ. eigenvalues --   -0.40765  -0.40725  -0.40644  -0.40573  -0.40205
 Alpha  occ. eigenvalues --   -0.40140  -0.40030  -0.39762  -0.39440  -0.38937
 Alpha  occ. eigenvalues --   -0.38933  -0.38569  -0.38498  -0.38269  -0.38183
 Alpha  occ. eigenvalues --   -0.38070  -0.37781  -0.37490  -0.37209  -0.36996
 Alpha  occ. eigenvalues --   -0.36927  -0.36812  -0.36325  -0.36287  -0.35736
 Alpha  occ. eigenvalues --   -0.35583  -0.35533  -0.35133  -0.35025  -0.34392
 Alpha  occ. eigenvalues --   -0.33674  -0.33475  -0.33308  -0.33159  -0.32902
 Alpha  occ. eigenvalues --   -0.32845  -0.32622  -0.32593  -0.32403  -0.31923
 Alpha  occ. eigenvalues --   -0.31417  -0.31274  -0.31181  -0.30802  -0.29801
 Alpha  occ. eigenvalues --   -0.29463  -0.28549  -0.28127  -0.27914  -0.27339
 Alpha  occ. eigenvalues --   -0.27175  -0.26560  -0.23181  -0.22217
 Alpha virt. eigenvalues --   -0.08136  -0.06951  -0.01824  -0.00948   0.00500
 Alpha virt. eigenvalues --    0.02269   0.03472   0.03816   0.04123   0.04196
 Alpha virt. eigenvalues --    0.04512   0.05836   0.07664   0.07819   0.09214

 Mulliken charges:
               1
     1  Mg   0.824766
     2  C    0.103950
     3  C   -0.190440
     4  C   -0.208985
     5  C   -0.191470
     6  N   -0.642365
     7  C    0.317170
     8  C   -0.192692
     9  C   -0.121079
    10  C    0.313372
    11  C   -0.285182
    12  C   -0.159017
    13  C   -0.278768
    14  C    0.602667
    15  O   -0.438546
    16  O   -0.495501
    17  N   -0.667147
    18  C    0.345732
    19  C    0.011636
    20  C    0.110750
    21  C    0.254546
    22  C   -0.348639
    23  C    0.197874
    24  O   -0.434142
    25  N   -0.694993
    26  C    0.340257
    27  C   -0.094072
    28  C    0.008891
    29  C    0.265641
    30  C    0.281519
    31  C   -0.245806
    32  C   -0.300839
    33  N   -0.705645
    34  C    0.289207
    35  C    0.012521
    36  C    0.078804
    37  C    0.279543
    38  C   -0.360799
    39  C    0.348692
    40  O   -0.478395
    41  C   -0.342992
    42  C    0.625939
    43  O   -0.445474
    44  O   -0.475758
    45  C   -0.084986
    46  C    0.000802
    47  C   -0.089428
    48  C    0.137539
    49  C   -0.386228
    50  C   -0.233096
    51  C   -0.175181
    52  C   -0.168090
    53  C   -0.067929
    54  C   -0.302504
    55  C   -0.140517
    56  C   -0.171950
    57  C   -0.159460
    58  C   -0.063504
    59  C   -0.316921
    60  C   -0.164418
    61  C   -0.165467
    62  C   -0.164067
    63  C   -0.064825
    64  C   -0.306335
    65  C   -0.317179
    66  H    0.050739
    67  H    0.143516
    68  H    0.082029
    69  H    0.110346
    70  H    0.116405
    71  H    0.087269
    72  H    0.109140
    73  H    0.147173
    74  H    0.123649
    75  H    0.105493
    76  H    0.136034
    77  H    0.128286
    78  H    0.117777
    79  H    0.172282
    80  H    0.093221
    81  H    0.098814
    82  H    0.105517
    83  H    0.116857
    84  H    0.116053
    85  H    0.108901
    86  H    0.112200
    87  H    0.124672
    88  H    0.137775
    89  H    0.154386
    90  H    0.169388
    91  H    0.106910
    92  H    0.123725
    93  H    0.072772
    94  H    0.121623
    95  H    0.111746
    96  H    0.134656
    97  H    0.110663
    98  H    0.095012
    99  H    0.072363
   100  H    0.078966
   101  H    0.081728
   102  H    0.077468
   103  H    0.070812
   104  H    0.116064
   105  H    0.094302
   106  H    0.096723
   107  H    0.057502
   108  H    0.100943
   109  H    0.091739
   110  H    0.088638
   111  H    0.094402
   112  H    0.047864
   113  H    0.072591
   114  H    0.111266
   115  H    0.098295
   116  H    0.106994
   117  H    0.076428
   118  H    0.073812
   119  H    0.102433
   120  H    0.085681
   121  H    0.076699
   122  H    0.092831
   123  H    0.100930
   124  H    0.105428
   125  H    0.100098
   126  H    0.076621
   127  H    0.097032
   128  H    0.103704
   129  H    0.088145
   130  H    0.135169
   131  H    0.129606
   132  H    0.132365
   133  O   -0.448980
   134  H    0.057322
 Sum of Mulliken charges =  -0.00000

 Dipole moment (field-independent basis, Debye):
    X=              1.3585    Y=             -4.0018    Z=             -0.9568  Tot=              4.3331
 Quadrupole moment (field-independent basis, Debye-Ang):
   XX=           -365.1435   YY=           -439.4831   ZZ=           -391.9157
   XY=             10.8226   XZ=             20.8872   YZ=            -28.6626

 Normal termination of Gaussian 16 at Fri Oct 11 05:14:22 2019.
