 Gaussian 16, Revision A.03,
 Gaussian 16:  ES64L-G16RevA.03 25-Dec-2016

 ----------------------------------------------------------------------
 # td=(NStates=1) iop(3/107=0140000000,3/108=0140000000) iop(3/107=0140
 000000,3/108=0140000000) CAM-B3LYP/6-31G(d,p)
 ----------------------------------------------------------------------

 --
 TD
 --
 Symbolic Z-matrix:
 Charge =  0 Multiplicity = 1

                         Standard orientation:
 ---------------------------------------------------------------------
 Center     Atomic      Atomic             Coordinates (Angstroms)
 Number     Number       Type             X           Y           Z
 ---------------------------------------------------------------------
      1         12           0       -5.663871    1.305866    0.282346
      2          6           0       -5.010644   -2.176104   -0.505430
      3          6           0       -3.345664    1.088814    2.795625
      4          6           0       -6.093700    4.580038    0.619203
      5          6           0       -7.913026    1.283488   -2.418968
      6          7           0       -4.242363   -0.318954    0.961745
      7          6           0       -4.233407   -1.625339    0.514291
      8          6           0       -3.173469   -2.284572    1.383923
      9          6           0       -2.872858   -1.327659    2.538077
     10          6           0       -3.568724   -0.068873    2.089185
     11          6           0       -3.344086   -1.818310    3.985750
     12          6           0       -1.961832   -2.923942    0.624059
     13          6           0       -1.019185   -3.845024    1.497970
     14          6           0        0.161380   -4.052891    0.688331
     15          8           0        0.441104   -3.577378   -0.414308
     16          8           0        1.026230   -4.888306    1.375912
     17          7           0       -4.779828    2.630708    1.482774
     18          6           0       -3.938866    2.397657    2.510950
     19          6           0       -3.720239    3.614213    3.227428
     20          6           0       -4.428657    4.627522    2.604628
     21          6           0       -5.187416    3.968424    1.560100
     22          6           0       -2.691423    3.664788    4.460024
     23          6           0       -4.549539    6.008834    2.921764
     24          8           0       -3.842245    6.567043    3.869867
     25          7           0       -6.824747    2.686675   -0.671270
     26          6           0       -6.907307    3.981401   -0.380780
     27          6           0       -7.825707    4.710245   -1.168631
     28          6           0       -8.379032    3.723364   -2.025727
     29          6           0       -7.697826    2.496909   -1.631584
     30          6           0       -8.180539    6.094099   -1.102216
     31          6           0       -9.389707    3.974899   -3.167722
     32          6           0       -8.760360    4.099335   -4.553301
     33          7           0       -6.362338   -0.073287   -1.065902
     34          6           0       -7.292812    0.048256   -2.053122
     35          6           0       -7.552264   -1.203059   -2.622988
     36          6           0       -6.714666   -2.005656   -2.025233
     37          6           0       -6.014817   -1.334728   -1.101226
     38          6           0       -8.359464   -1.654033   -3.944825
     39          6           0       -6.178812   -3.445896   -2.093047
     40          8           0       -6.597336   -4.336274   -2.755395
     41          6           0       -5.130224   -3.558803   -0.957611
     42          6           0       -5.448201   -4.610185    0.123805
     43          8           0       -5.996099   -4.341926    1.213689
     44          8           0       -5.160195   -5.818099   -0.321218
     45          6           0       -5.528772   -6.881771    0.564044
     46          6           0        2.290609   -5.171929    0.575172
     47          6           0        3.401716   -4.292867    1.014516
     48          6           0        3.928799   -3.347335    0.188934
     49          6           0        3.529097   -3.199705   -1.263629
     50          6           0        5.126699   -2.522858    0.639167
     51          6           0        6.440872   -2.727673   -0.034640
     52          6           0        7.475303   -1.810189    0.492456
     53          6           0        8.957389   -1.887092   -0.106669
     54          6           0        9.471969   -3.489329   -0.006607
     55          6           0        9.916229   -0.835069    0.344421
     56          6           0       11.214433   -0.778228   -0.397723
     57          6           0       12.176566    0.384524    0.139796
     58          6           0       13.531793    0.521512   -0.534102
     59          6           0       14.410845   -0.623418   -0.254986
     60          6           0       14.137354    1.875221   -0.198303
     61          6           0       15.383740    2.172039   -0.991438
     62          6           0       16.153556    3.418291   -0.622846
     63          6           0       17.406892    3.810482   -1.274448
     64          6           0       17.326976    3.960063   -2.844432
     65          6           0       18.043977    5.097180   -0.737627
     66          1           0       -2.603171    1.170029    3.568363
     67          1           0       -6.251792    5.681428    0.840327
     68          1           0       -8.694440    1.350108   -3.214753
     69          1           0       -3.787959   -2.977106    1.961532
     70          1           0       -1.770202   -1.226700    2.427691
     71          1           0       -2.777655   -2.832409    4.244731
     72          1           0       -3.004989   -1.159111    4.739975
     73          1           0       -4.382940   -2.095478    3.795085
     74          1           0       -2.470660   -3.478032   -0.264388
     75          1           0       -1.430844   -2.108067    0.352116
     76          1           0       -0.878438   -3.156812    2.312755
     77          1           0       -1.337010   -4.911893    1.911418
     78          1           0       -1.605461    3.406486    4.045791
     79          1           0       -2.837111    4.570546    4.994271
     80          1           0       -3.220984    2.998656    5.131067
     81          1           0       -5.263382    6.496467    2.316845
     82          1           0      -10.080588    3.079689   -3.179988
     83          1           0      -10.012257    4.833012   -2.922175
     84          1           0       -9.607571    4.044906   -5.313291
     85          1           0       -8.007176    4.974464   -4.764108
     86          1           0       -8.098994    3.254233   -4.767786
     87          1           0       -8.045980   -1.094348   -5.001249
     88          1           0       -8.336594   -2.604341   -4.072075
     89          1           0       -9.462785   -1.225277   -3.717214
     90          1           0       -4.385197   -3.945648   -1.473390
     91          1           0        2.353283   -6.393179    0.549647
     92          1           0        2.010318   -5.112092   -0.563452
     93          1           0        3.934974   -4.322305    1.901318
     94          1           0        2.461334   -3.546439   -1.490291
     95          1           0        3.639245   -2.199840   -1.552950
     96          1           0        4.390058   -3.658090   -1.683625
     97          1           0        4.861556   -1.348892    0.753493
     98          1           0        5.141688   -2.761091    1.795442
     99          1           0        6.449030   -3.842999    0.006789
    100          1           0        6.138966   -2.409099   -1.205495
    101          1           0        7.183921   -0.778151    0.486412
    102          1           0        7.588935   -2.011312    1.527062
    103          1           0        8.641958   -1.874113   -1.189878
    104          1           0        8.585454   -4.200202   -0.175147
    105          1           0       10.329165   -3.538156   -0.597230
    106          1           0        9.561935   -3.563491    1.047375
    107          1           0        9.342958    0.128458    0.351286
    108          1           0       10.091685   -0.755107    1.486068
    109          1           0       11.735200   -1.804337   -0.410462
    110          1           0       10.996723   -0.481424   -1.414090
    111          1           0       11.427643    1.258748    0.172551
    112          1           0       12.207711    0.095878    1.195837
    113          1           0       13.317150    0.514225   -1.664333
    114          1           0       14.734739   -0.466340    0.841069
    115          1           0       14.001535   -1.751616   -0.290356
    116          1           0       15.402553   -0.885625   -1.033203
    117          1           0       13.395164    2.591701   -0.654462
    118          1           0       14.239847    1.933893    0.987065
    119          1           0       15.946806    1.176841   -0.830903
    120          1           0       15.113997    2.020257   -2.084062
    121          1           0       15.443779    4.229372   -0.668611
    122          1           0       16.434741    3.374255    0.602637
    123          1           0       18.208903    3.014363   -0.914060
    124          1           0       16.424675    4.564847   -3.126433
    125          1           0       18.317413    4.459713   -3.181777
    126          1           0       17.087960    3.031355   -3.217816
    127          1           0       17.916063    5.228304    0.411257
    128          1           0       19.101224    5.222259   -1.201664
    129          1           0       17.524918    5.916931   -1.195992
    130          1           0       -4.840920   -7.824335    0.047476
    131          1           0       -6.762104   -7.009988    0.720576
    132          1           0       -5.160558   -6.792681    1.712301
    133          8           0       -7.705013    6.963286   -0.355275
    134          1           0       -8.905315    6.237192   -1.949201
 ---------------------------------------------------------------------

 SCF Done:  E(RCAM-B3LYP) =  -3043.45551535     A.U. after   15 cycles

 Excitation energies and oscillator strengths:

 Excited State   1:      Singlet-A      2.0677 eV  599.61 nm  f=0.1357  <S**2>=0.000
     243 -> 246        0.30594
     244 -> 245        0.62733
 This state for optimization and/or second-order correction.
 Total Energy, E(TD-HF/TD-DFT) =  -3043.37952739
 Copying the excited state density for this state as the 1-particle RhoCI density.

 The electronic state is 1-A.
 Alpha  occ. eigenvalues --  -46.82106 -19.25542 -19.21521 -19.18644 -19.18012
 Alpha  occ. eigenvalues --  -19.17527 -19.17388 -19.16325 -14.38199 -14.37466
 Alpha  occ. eigenvalues --  -14.36961 -14.36557 -10.36558 -10.34839 -10.32405
 Alpha  occ. eigenvalues --  -10.32182 -10.30571 -10.29586 -10.28907 -10.27709
 Alpha  occ. eigenvalues --  -10.26973 -10.26803 -10.26624 -10.26520 -10.26196
 Alpha  occ. eigenvalues --  -10.26170 -10.25787 -10.25088 -10.25015 -10.24823
 Alpha  occ. eigenvalues --  -10.24805 -10.24583 -10.24548 -10.24414 -10.24177
 Alpha  occ. eigenvalues --  -10.24146 -10.23909 -10.23652 -10.23551 -10.23455
 Alpha  occ. eigenvalues --  -10.23452 -10.23449 -10.23434 -10.23311 -10.23277
 Alpha  occ. eigenvalues --  -10.22786 -10.22762 -10.22690 -10.22680 -10.22592
 Alpha  occ. eigenvalues --  -10.22551 -10.22508 -10.22015 -10.21949 -10.21875
 Alpha  occ. eigenvalues --  -10.21680 -10.21654 -10.21399 -10.21298 -10.21079
 Alpha  occ. eigenvalues --  -10.20983 -10.20816 -10.20687 -10.20649 -10.20281
 Alpha  occ. eigenvalues --  -10.20050  -3.10631  -1.85572  -1.85103  -1.85034
 Alpha  occ. eigenvalues --   -1.16018  -1.11231  -1.10034  -1.05713  -1.04701
 Alpha  occ. eigenvalues --   -1.03322  -1.03054  -1.02469  -1.01374  -0.99942
 Alpha  occ. eigenvalues --   -0.99151  -0.89948  -0.86588  -0.86137  -0.85479
 Alpha  occ. eigenvalues --   -0.85201  -0.84517  -0.84239  -0.83998  -0.83439
 Alpha  occ. eigenvalues --   -0.83077  -0.82502  -0.81730  -0.81075  -0.80519
 Alpha  occ. eigenvalues --   -0.79620  -0.78110  -0.77886  -0.77225  -0.76208
 Alpha  occ. eigenvalues --   -0.74961  -0.74508  -0.73804  -0.73548  -0.72287
 Alpha  occ. eigenvalues --   -0.71389  -0.70541  -0.70298  -0.70133  -0.70058
 Alpha  occ. eigenvalues --   -0.69724  -0.69171  -0.67941  -0.67706  -0.66792
 Alpha  occ. eigenvalues --   -0.66606  -0.64683  -0.64189  -0.62171  -0.61863
 Alpha  occ. eigenvalues --   -0.61396  -0.61162  -0.60516  -0.60171  -0.58901
 Alpha  occ. eigenvalues --   -0.58637  -0.57943  -0.57517  -0.57147  -0.57066
 Alpha  occ. eigenvalues --   -0.56605  -0.56256  -0.55531  -0.55117  -0.54792
 Alpha  occ. eigenvalues --   -0.54310  -0.53803  -0.52473  -0.52371  -0.52224
 Alpha  occ. eigenvalues --   -0.51887  -0.51414  -0.51190  -0.50870  -0.50773
 Alpha  occ. eigenvalues --   -0.50587  -0.50029  -0.49762  -0.49391  -0.49162
 Alpha  occ. eigenvalues --   -0.48803  -0.48704  -0.48410  -0.48183  -0.48054
 Alpha  occ. eigenvalues --   -0.47743  -0.47695  -0.47389  -0.47330  -0.47015
 Alpha  occ. eigenvalues --   -0.46518  -0.46490  -0.46422  -0.46276  -0.45712
 Alpha  occ. eigenvalues --   -0.45458  -0.45414  -0.45238  -0.45122  -0.44876
 Alpha  occ. eigenvalues --   -0.44694  -0.44582  -0.44256  -0.44052  -0.43944
 Alpha  occ. eigenvalues --   -0.43787  -0.43471  -0.43337  -0.42985  -0.42925
 Alpha  occ. eigenvalues --   -0.42654  -0.42540  -0.42332  -0.42175  -0.41730
 Alpha  occ. eigenvalues --   -0.41662  -0.41463  -0.41365  -0.41193  -0.41124
 Alpha  occ. eigenvalues --   -0.40928  -0.40387  -0.40347  -0.39988  -0.39768
 Alpha  occ. eigenvalues --   -0.39623  -0.39321  -0.39222  -0.39156  -0.39043
 Alpha  occ. eigenvalues --   -0.38980  -0.38798  -0.38746  -0.38586  -0.38288
 Alpha  occ. eigenvalues --   -0.37972  -0.37922  -0.37545  -0.37305  -0.36909
 Alpha  occ. eigenvalues --   -0.36667  -0.36405  -0.36172  -0.35700  -0.35569
 Alpha  occ. eigenvalues --   -0.35301  -0.35085  -0.34971  -0.34890  -0.34522
 Alpha  occ. eigenvalues --   -0.34119  -0.34070  -0.33462  -0.33249  -0.32822
 Alpha  occ. eigenvalues --   -0.32724  -0.32667  -0.31943  -0.31755  -0.31352
 Alpha  occ. eigenvalues --   -0.31217  -0.31003  -0.30804  -0.30743  -0.29996
 Alpha  occ. eigenvalues --   -0.29323  -0.29011  -0.28630  -0.28225  -0.27900
 Alpha  occ. eigenvalues --   -0.27323  -0.27278  -0.22800  -0.22119
 Alpha virt. eigenvalues --   -0.08715  -0.06886  -0.01777  -0.01091   0.00160
 Alpha virt. eigenvalues --    0.02272   0.02460   0.02556   0.03347   0.04295
 Alpha virt. eigenvalues --    0.05210   0.05752   0.07753   0.08433   0.09107

 Mulliken charges:
               1
     1  Mg   0.846042
     2  C    0.067056
     3  C   -0.166895
     4  C   -0.185166
     5  C   -0.154398
     6  N   -0.644754
     7  C    0.294574
     8  C   -0.193033
     9  C   -0.174452
    10  C    0.364532
    11  C   -0.306718
    12  C   -0.165176
    13  C   -0.274730
    14  C    0.641426
    15  O   -0.483028
    16  O   -0.492740
    17  N   -0.719988
    18  C    0.329568
    19  C   -0.027992
    20  C    0.031446
    21  C    0.262921
    22  C   -0.354702
    23  C    0.227435
    24  O   -0.464844
    25  N   -0.684860
    26  C    0.293721
    27  C    0.024232
    28  C   -0.010223
    29  C    0.285374
    30  C    0.253056
    31  C   -0.241955
    32  C   -0.307404
    33  N   -0.733790
    34  C    0.255343
    35  C   -0.040769
    36  C    0.034815
    37  C    0.339618
    38  C   -0.328530
    39  C    0.369433
    40  O   -0.421452
    41  C   -0.280243
    42  C    0.626456
    43  O   -0.491900
    44  O   -0.400652
    45  C   -0.083977
    46  C   -0.025711
    47  C   -0.081195
    48  C    0.109608
    49  C   -0.372593
    50  C   -0.229446
    51  C   -0.148296
    52  C   -0.182116
    53  C   -0.068887
    54  C   -0.332410
    55  C   -0.174976
    56  C   -0.178110
    57  C   -0.182427
    58  C   -0.045265
    59  C   -0.290822
    60  C   -0.152592
    61  C   -0.178426
    62  C   -0.138056
    63  C   -0.038559
    64  C   -0.315199
    65  C   -0.306791
    66  H    0.087301
    67  H    0.134171
    68  H    0.102893
    69  H    0.121952
    70  H    0.097003
    71  H    0.089390
    72  H    0.128165
    73  H    0.135442
    74  H    0.101113
    75  H    0.138771
    76  H    0.152667
    77  H    0.137634
    78  H    0.123368
    79  H    0.158235
    80  H    0.125594
    81  H    0.100299
    82  H    0.109634
    83  H    0.121040
    84  H    0.108569
    85  H    0.110310
    86  H    0.116528
    87  H    0.103449
    88  H    0.151237
    89  H    0.096806
    90  H    0.154976
    91  H    0.093024
    92  H    0.130125
    93  H    0.076999
    94  H    0.147634
    95  H    0.115786
    96  H    0.125022
    97  H    0.079807
    98  H    0.074632
    99  H    0.108570
   100  H    0.064882
   101  H    0.098535
   102  H    0.097975
   103  H    0.083839
   104  H    0.095862
   105  H    0.115328
   106  H    0.111127
   107  H    0.087878
   108  H    0.077368
   109  H    0.088205
   110  H    0.100730
   111  H    0.085511
   112  H    0.090932
   113  H    0.076711
   114  H    0.096419
   115  H    0.090634
   116  H    0.078356
   117  H    0.090735
   118  H    0.077670
   119  H    0.083748
   120  H    0.083143
   121  H    0.088499
   122  H    0.052566
   123  H    0.069293
   124  H    0.097161
   125  H    0.095512
   126  H    0.117329
   127  H    0.088608
   128  H    0.092003
   129  H    0.104598
   130  H    0.109598
   131  H    0.130245
   132  H    0.127613
   133  O   -0.445349
   134  H    0.058184
 Sum of Mulliken charges =  -0.00000

 Dipole moment (field-independent basis, Debye):
    X=              0.5994    Y=             -6.1298    Z=             -1.9186  Tot=              6.4509
 Quadrupole moment (field-independent basis, Debye-Ang):
   XX=           -381.1867   YY=           -445.3367   ZZ=           -396.8221
   XY=             15.6670   XZ=             18.3178   YZ=            -35.6445

 Normal termination of Gaussian 16 at Thu Oct  3 23:02:35 2019.
