 Gaussian 16, Revision A.03,
 Gaussian 16:  ES64L-G16RevA.03 25-Dec-2016

 ----------------------------------------------------------------------
 # td=(NStates=1) iop(3/107=0140000000,3/108=0140000000) iop(3/107=0140
 000000,3/108=0140000000) CAM-B3LYP/6-31G(d,p)
 ----------------------------------------------------------------------

 --
 TD
 --
 Symbolic Z-matrix:
 Charge =  0 Multiplicity = 1

                         Standard orientation:
 ---------------------------------------------------------------------
 Center     Atomic      Atomic             Coordinates (Angstroms)
 Number     Number       Type             X           Y           Z
 ---------------------------------------------------------------------
      1         12           0       -5.586878    1.200812    0.261135
      2          6           0       -5.046534   -2.071872   -0.358398
      3          6           0       -3.263688    1.150904    2.624859
      4          6           0       -6.128340    4.575777    0.690304
      5          6           0       -7.859967    1.289416   -2.476459
      6          7           0       -4.348562   -0.377639    1.058122
      7          6           0       -4.214059   -1.658433    0.655529
      8          6           0       -3.154650   -2.417615    1.499398
      9          6           0       -2.881849   -1.405272    2.623738
     10          6           0       -3.576081   -0.058343    2.065013
     11          6           0       -3.541617   -1.711870    3.989328
     12          6           0       -2.010361   -2.759935    0.579032
     13          6           0       -1.068344   -3.563659    1.368204
     14          6           0        0.302532   -3.946229    0.579326
     15          8           0        0.564793   -3.630520   -0.576448
     16          8           0        1.032018   -4.692659    1.367383
     17          7           0       -4.834694    2.648864    1.490912
     18          6           0       -3.927083    2.440121    2.464969
     19          6           0       -3.706000    3.617547    3.188167
     20          6           0       -4.537858    4.571476    2.673153
     21          6           0       -5.219186    3.996846    1.498039
     22          6           0       -2.827221    3.755673    4.399106
     23          6           0       -4.631963    6.017004    3.048207
     24          8           0       -4.166019    6.581459    4.020501
     25          7           0       -6.744595    2.605887   -0.748316
     26          6           0       -6.883118    3.922195   -0.529470
     27          6           0       -7.885304    4.583767   -1.274108
     28          6           0       -8.364744    3.662895   -2.148451
     29          6           0       -7.675114    2.431355   -1.805188
     30          6           0       -8.261876    5.990374   -1.205573
     31          6           0       -9.397949    3.852813   -3.203730
     32          6           0       -8.788196    4.044901   -4.618962
     33          7           0       -6.338647   -0.083082   -1.251382
     34          6           0       -7.304215   -0.053266   -2.238740
     35          6           0       -7.488582   -1.334999   -2.767229
     36          6           0       -6.676340   -2.187548   -2.052637
     37          6           0       -6.007471   -1.455794   -1.022767
     38          6           0       -8.548463   -1.509087   -3.766427
     39          6           0       -6.229104   -3.649162   -2.034144
     40          8           0       -6.497193   -4.558515   -2.748059
     41          6           0       -5.016228   -3.603370   -0.829812
     42          6           0       -5.327028   -4.599654    0.141993
     43          8           0       -5.841675   -4.366522    1.297320
     44          8           0       -5.130347   -5.854123   -0.270774
     45          6           0       -5.449394   -6.905485    0.645663
     46          6           0        2.340813   -5.063229    0.685673
     47          6           0        3.462292   -4.192061    1.145486
     48          6           0        4.069118   -3.322700    0.316919
     49          6           0        3.776659   -3.127054   -1.247873
     50          6           0        5.153636   -2.398611    0.769679
     51          6           0        6.446600   -2.654874    0.057273
     52          6           0        7.611422   -1.785063    0.529660
     53          6           0        8.998418   -2.016012   -0.205359
     54          6           0        9.597556   -3.404387    0.085095
     55          6           0       10.071892   -0.914315    0.279469
     56          6           0       11.396752   -0.909259   -0.389801
     57          6           0       12.219045    0.267133    0.006426
     58          6           0       13.502922    0.426982   -0.753595
     59          6           0       14.370387   -0.788013   -0.447809
     60          6           0       14.068880    1.707561   -0.283582
     61          6           0       15.487126    2.173077   -1.101858
     62          6           0       15.901907    3.560982   -0.577546
     63          6           0       17.248443    4.110233   -1.213396
     64          6           0       17.299387    3.954219   -2.800436
     65          6           0       17.619501    5.460767   -0.497986
     66          1           0       -2.607464    1.118147    3.506453
     67          1           0       -6.376059    5.662561    0.897727
     68          1           0       -8.687503    1.329788   -3.170895
     69          1           0       -3.368421   -3.344216    2.091246
     70          1           0       -1.818689   -0.976001    2.630458
     71          1           0       -2.922731   -2.408027    4.544437
     72          1           0       -3.691867   -0.971556    4.633365
     73          1           0       -4.567992   -2.092445    3.795222
     74          1           0       -2.193041   -3.091772   -0.426815
     75          1           0       -1.432446   -1.831329    0.290181
     76          1           0       -0.607260   -3.087210    2.320442
     77          1           0       -1.465918   -4.456032    1.698628
     78          1           0       -1.865798    3.701966    4.155105
     79          1           0       -2.889804    4.787689    4.774014
     80          1           0       -3.210793    3.014827    5.179027
     81          1           0       -5.425681    6.429653    2.573767
     82          1           0      -10.058709    3.018744   -3.315399
     83          1           0      -10.212639    4.673099   -2.919884
     84          1           0       -9.549141    4.394127   -5.230216
     85          1           0       -8.115798    4.951505   -4.640748
     86          1           0       -8.191284    3.005158   -5.026787
     87          1           0       -8.591980   -0.727292   -4.677554
     88          1           0       -8.354112   -2.588480   -4.094655
     89          1           0       -9.649064   -1.373790   -3.292993
     90          1           0       -4.320792   -3.961478   -1.487736
     91          1           0        2.508051   -6.150522    0.973696
     92          1           0        1.986321   -5.396125   -0.301041
     93          1           0        3.811267   -4.051698    2.210165
     94          1           0        2.813718   -3.215295   -1.561750
     95          1           0        4.303999   -2.159785   -1.557484
     96          1           0        4.615999   -3.956132   -1.584669
     97          1           0        4.788313   -1.288869    0.629006
     98          1           0        5.126744   -2.382075    2.066906
     99          1           0        6.556873   -3.708665    0.314185
    100          1           0        6.372697   -2.596669   -0.958343
    101          1           0        7.251674   -0.723890    0.414230
    102          1           0        7.525444   -1.904637    1.606113
    103          1           0        8.932650   -1.873112   -1.345553
    104          1           0        8.920025   -4.154621   -0.379203
    105          1           0       10.783165   -3.317503   -0.168259
    106          1           0        9.800313   -3.595514    1.069053
    107          1           0        9.658014    0.163196    0.354772
    108          1           0       10.213948   -1.097115    1.260169
    109          1           0       11.890414   -1.902446   -0.014186
    110          1           0       11.332639   -0.973905   -1.585619
    111          1           0       11.574026    1.145302   -0.052792
    112          1           0       12.313929    0.133397    1.049908
    113          1           0       13.317773    0.410399   -1.842505
    114          1           0       14.776330   -0.770572    0.708617
    115          1           0       13.964142   -1.834533   -0.735755
    116          1           0       15.260540   -0.747648   -1.179169
    117          1           0       13.503537    2.460532   -0.123683
    118          1           0       14.232710    1.523273    0.911226
    119          1           0       16.178842    1.442458   -0.685290
    120          1           0       15.071441    2.116216   -2.228524
    121          1           0       15.126980    4.470199   -0.944523
    122          1           0       15.788170    3.751375    0.652554
    123          1           0       17.979809    3.434380   -0.813939
    124          1           0       16.452143    4.550970   -3.096458
    125          1           0       18.432642    4.319084   -3.281190
    126          1           0       17.081406    3.080143   -3.216761
    127          1           0       17.410522    5.339529    0.552886
    128          1           0       18.728905    5.651859   -0.776193
    129          1           0       16.853844    6.150079   -0.996747
    130          1           0       -5.488524   -7.743983    0.108874
    131          1           0       -6.438194   -6.520653    1.311331
    132          1           0       -4.415351   -6.989162    1.366219
    133          8           0       -7.819726    6.883280   -0.441951
    134          1           0       -9.233846    6.286840   -1.649628
 ---------------------------------------------------------------------

 SCF Done:  E(RCAM-B3LYP) =  -3043.38268622     A.U. after   15 cycles

 Excitation energies and oscillator strengths:

 Excited State   1:      Singlet-A      2.0410 eV  607.46 nm  f=0.2285  <S**2>=0.000
     243 -> 246       -0.21540
     244 -> 245        0.66690
 This state for optimization and/or second-order correction.
 Total Energy, E(TD-HF/TD-DFT) =  -3043.30767938
 Copying the excited state density for this state as the 1-particle RhoCI density.

 The electronic state is 1-A.
 Alpha  occ. eigenvalues --  -46.82579 -19.22635 -19.22460 -19.19002 -19.17502
 Alpha  occ. eigenvalues --  -19.17480 -19.16435 -19.15042 -14.38481 -14.37963
 Alpha  occ. eigenvalues --  -14.36785 -14.35916 -10.34463 -10.34101 -10.32870
 Alpha  occ. eigenvalues --  -10.31007 -10.29597 -10.28471 -10.28456 -10.28098
 Alpha  occ. eigenvalues --  -10.27271 -10.26972 -10.26925 -10.26488 -10.26100
 Alpha  occ. eigenvalues --  -10.25446 -10.25390 -10.25098 -10.25051 -10.24731
 Alpha  occ. eigenvalues --  -10.24678 -10.24536 -10.24436 -10.24384 -10.24215
 Alpha  occ. eigenvalues --  -10.24108 -10.24078 -10.24011 -10.23904 -10.23867
 Alpha  occ. eigenvalues --  -10.23795 -10.23775 -10.23444 -10.23357 -10.23278
 Alpha  occ. eigenvalues --  -10.23097 -10.23088 -10.22802 -10.22729 -10.22501
 Alpha  occ. eigenvalues --  -10.22426 -10.22358 -10.22212 -10.21766 -10.21562
 Alpha  occ. eigenvalues --  -10.21514 -10.21432 -10.21312 -10.21252 -10.21218
 Alpha  occ. eigenvalues --  -10.21135 -10.20812 -10.20763 -10.20507 -10.20199
 Alpha  occ. eigenvalues --  -10.19531  -3.10876  -1.85827  -1.85363  -1.85255
 Alpha  occ. eigenvalues --   -1.13377  -1.12883  -1.09701  -1.06898  -1.05196
 Alpha  occ. eigenvalues --   -1.03601  -1.01271  -1.00668  -1.00468  -0.99769
 Alpha  occ. eigenvalues --   -0.97929  -0.88087  -0.86578  -0.86457  -0.86374
 Alpha  occ. eigenvalues --   -0.86108  -0.84189  -0.83731  -0.83522  -0.83465
 Alpha  occ. eigenvalues --   -0.82640  -0.82192  -0.81484  -0.80956  -0.80017
 Alpha  occ. eigenvalues --   -0.79695  -0.78571  -0.78024  -0.76615  -0.76029
 Alpha  occ. eigenvalues --   -0.74879  -0.74791  -0.73708  -0.73029  -0.71637
 Alpha  occ. eigenvalues --   -0.71353  -0.70872  -0.70218  -0.70136  -0.69779
 Alpha  occ. eigenvalues --   -0.69139  -0.69048  -0.67583  -0.67385  -0.66806
 Alpha  occ. eigenvalues --   -0.66373  -0.63981  -0.63885  -0.62973  -0.62392
 Alpha  occ. eigenvalues --   -0.61642  -0.60507  -0.60102  -0.59410  -0.59064
 Alpha  occ. eigenvalues --   -0.58835  -0.58475  -0.57743  -0.57467  -0.57155
 Alpha  occ. eigenvalues --   -0.56300  -0.55602  -0.55300  -0.55244  -0.54518
 Alpha  occ. eigenvalues --   -0.53793  -0.53439  -0.52988  -0.52053  -0.51734
 Alpha  occ. eigenvalues --   -0.51628  -0.51230  -0.51051  -0.50686  -0.50614
 Alpha  occ. eigenvalues --   -0.50392  -0.49872  -0.49668  -0.49333  -0.48885
 Alpha  occ. eigenvalues --   -0.48788  -0.48562  -0.48479  -0.48196  -0.48042
 Alpha  occ. eigenvalues --   -0.47665  -0.47430  -0.47090  -0.46973  -0.46871
 Alpha  occ. eigenvalues --   -0.46579  -0.46297  -0.45940  -0.45818  -0.45702
 Alpha  occ. eigenvalues --   -0.45341  -0.45207  -0.44978  -0.44826  -0.44731
 Alpha  occ. eigenvalues --   -0.44398  -0.44303  -0.44217  -0.44147  -0.43993
 Alpha  occ. eigenvalues --   -0.43486  -0.43223  -0.42800  -0.42514  -0.42466
 Alpha  occ. eigenvalues --   -0.42237  -0.42165  -0.42094  -0.41812  -0.41765
 Alpha  occ. eigenvalues --   -0.41618  -0.41458  -0.41387  -0.41251  -0.41164
 Alpha  occ. eigenvalues --   -0.40923  -0.40701  -0.40352  -0.40183  -0.40007
 Alpha  occ. eigenvalues --   -0.39820  -0.39641  -0.39442  -0.39252  -0.39078
 Alpha  occ. eigenvalues --   -0.38993  -0.38821  -0.38608  -0.38356  -0.38010
 Alpha  occ. eigenvalues --   -0.37814  -0.37588  -0.37410  -0.37128  -0.37083
 Alpha  occ. eigenvalues --   -0.36588  -0.36273  -0.36214  -0.35799  -0.35632
 Alpha  occ. eigenvalues --   -0.35514  -0.35136  -0.35067  -0.34970  -0.34673
 Alpha  occ. eigenvalues --   -0.34356  -0.33530  -0.33370  -0.33189  -0.33092
 Alpha  occ. eigenvalues --   -0.32817  -0.32012  -0.31713  -0.31521  -0.31506
 Alpha  occ. eigenvalues --   -0.31219  -0.30590  -0.29690  -0.29561  -0.29467
 Alpha  occ. eigenvalues --   -0.28945  -0.28503  -0.28200  -0.27807  -0.27543
 Alpha  occ. eigenvalues --   -0.27514  -0.27281  -0.23871  -0.21002
 Alpha virt. eigenvalues --   -0.08283  -0.06950  -0.01967  -0.01487   0.00832
 Alpha virt. eigenvalues --    0.02444   0.03050   0.03308   0.04583   0.05067
 Alpha virt. eigenvalues --    0.05345   0.05881   0.07948   0.08436   0.09325

 Mulliken charges:
               1
     1  Mg   0.822755
     2  C    0.033174
     3  C   -0.179619
     4  C   -0.213180
     5  C   -0.181906
     6  N   -0.622794
     7  C    0.299349
     8  C   -0.134124
     9  C   -0.153487
    10  C    0.335368
    11  C   -0.319237
    12  C   -0.163913
    13  C   -0.268412
    14  C    0.583076
    15  O   -0.491418
    16  O   -0.447101
    17  N   -0.733545
    18  C    0.330523
    19  C    0.031984
    20  C   -0.060385
    21  C    0.340671
    22  C   -0.381336
    23  C    0.273000
    24  O   -0.410192
    25  N   -0.648637
    26  C    0.274346
    27  C    0.004819
    28  C    0.087941
    29  C    0.290856
    30  C    0.225844
    31  C   -0.275831
    32  C   -0.299623
    33  N   -0.686291
    34  C    0.282275
    35  C    0.040150
    36  C   -0.022067
    37  C    0.286389
    38  C   -0.382031
    39  C    0.353077
    40  O   -0.403581
    41  C   -0.321270
    42  C    0.640736
    43  O   -0.539836
    44  O   -0.438551
    45  C   -0.065719
    46  C   -0.019815
    47  C   -0.144354
    48  C    0.145487
    49  C   -0.346509
    50  C   -0.225707
    51  C   -0.177520
    52  C   -0.172260
    53  C   -0.052907
    54  C   -0.309133
    55  C   -0.185128
    56  C   -0.164569
    57  C   -0.163816
    58  C   -0.044670
    59  C   -0.297280
    60  C   -0.164810
    61  C   -0.179085
    62  C   -0.159759
    63  C   -0.064093
    64  C   -0.302730
    65  C   -0.302043
    66  H    0.079843
    67  H    0.138226
    68  H    0.078808
    69  H    0.128557
    70  H    0.103700
    71  H    0.111766
    72  H    0.124695
    73  H    0.132598
    74  H    0.132680
    75  H    0.109389
    76  H    0.123779
    77  H    0.135610
    78  H    0.136810
    79  H    0.154743
    80  H    0.119029
    81  H    0.079224
    82  H    0.127720
    83  H    0.106138
    84  H    0.126524
    85  H    0.115285
    86  H    0.095698
    87  H    0.107786
    88  H    0.133551
    89  H    0.116936
    90  H    0.159367
    91  H    0.103220
    92  H    0.150879
    93  H    0.092899
    94  H    0.157652
    95  H    0.108806
    96  H    0.099708
    97  H    0.093430
    98  H    0.049768
    99  H    0.102085
   100  H    0.110608
   101  H    0.084656
   102  H    0.095438
   103  H    0.080418
   104  H    0.105043
   105  H    0.077262
   106  H    0.117193
   107  H    0.067193
   108  H    0.104288
   109  H    0.079938
   110  H    0.063480
   111  H    0.086284
   112  H    0.095781
   113  H    0.083306
   114  H    0.080909
   115  H    0.102214
   116  H    0.088678
   117  H    0.103247
   118  H    0.045721
   119  H    0.121770
   120  H    0.093816
   121  H    0.045771
   122  H    0.072294
   123  H    0.089225
   124  H    0.102825
   125  H    0.067346
   126  H    0.125574
   127  H    0.113515
   128  H    0.096935
   129  H    0.095960
   130  H    0.137157
   131  H    0.140522
   132  H    0.083086
   133  O   -0.430337
   134  H    0.074425
 Sum of Mulliken charges =  -0.00000

 Dipole moment (field-independent basis, Debye):
    X=              1.5823    Y=             -3.4129    Z=             -1.0447  Tot=              3.9043
 Quadrupole moment (field-independent basis, Debye-Ang):
   XX=           -370.1025   YY=           -442.4302   ZZ=           -395.2587
   XY=             -9.7094   XZ=             27.2000   YZ=            -32.5111

 Normal termination of Gaussian 16 at Fri Oct  4 12:31:10 2019.
