 Gaussian 16, Revision A.03,
 Gaussian 16:  ES64L-G16RevA.03 25-Dec-2016

 ----------------------------------------------------------------------
 # td=(NStates=1) iop(3/107=0140000000,3/108=0140000000) iop(3/107=0140
 000000,3/108=0140000000) CAM-B3LYP/6-31G(d,p)
 ----------------------------------------------------------------------

 --
 TD
 --
 Symbolic Z-matrix:
 Charge =  0 Multiplicity = 1

                         Standard orientation:
 ---------------------------------------------------------------------
 Center     Atomic      Atomic             Coordinates (Angstroms)
 Number     Number       Type             X           Y           Z
 ---------------------------------------------------------------------
      1         12           0       -5.618606    1.206958    0.133153
      2          6           0       -5.047037   -2.179305   -0.417642
      3          6           0       -3.507647    1.176869    2.698124
      4          6           0       -6.259827    4.508653    0.739891
      5          6           0       -7.988276    1.086185   -2.406972
      6          7           0       -4.376951   -0.275611    0.996880
      7          6           0       -4.297143   -1.556041    0.606143
      8          6           0       -3.234509   -2.320430    1.420093
      9          6           0       -2.968468   -1.352412    2.558229
     10          6           0       -3.620493   -0.085399    2.116045
     11          6           0       -3.508598   -1.809579    3.922088
     12          6           0       -1.955708   -2.618271    0.637148
     13          6           0       -0.980709   -3.543086    1.444091
     14          6           0        0.278782   -3.844170    0.615381
     15          8           0        0.554185   -3.449312   -0.512318
     16          8           0        1.126356   -4.622225    1.391428
     17          7           0       -4.984623    2.603773    1.385261
     18          6           0       -4.152276    2.333393    2.464350
     19          6           0       -3.901159    3.732812    3.213742
     20          6           0       -4.681221    4.582906    2.507344
     21          6           0       -5.337512    3.932689    1.480201
     22          6           0       -2.985163    3.827709    4.334818
     23          6           0       -4.641358    5.997421    3.064651
     24          8           0       -4.015942    6.458729    4.010997
     25          7           0       -6.901729    2.581380   -0.671002
     26          6           0       -7.027128    3.907064   -0.309451
     27          6           0       -7.937594    4.550873   -1.287337
     28          6           0       -8.360130    3.530470   -2.195319
     29          6           0       -7.743792    2.340346   -1.836099
     30          6           0       -8.348503    5.848936   -1.141701
     31          6           0       -9.491455    3.682972   -3.267957
     32          6           0       -8.866011    4.202514   -4.574896
     33          7           0       -6.325652   -0.185209   -1.134139
     34          6           0       -7.294235   -0.063687   -2.051005
     35          6           0       -7.512344   -1.402571   -2.727852
     36          6           0       -6.601243   -2.254342   -2.077637
     37          6           0       -5.970930   -1.503010   -1.181031
     38          6           0       -8.373538   -1.739848   -3.917775
     39          6           0       -6.108843   -3.676887   -2.091023
     40          8           0       -6.484529   -4.622799   -2.659368
     41          6           0       -4.853287   -3.609183   -0.934266
     42          6           0       -5.239499   -4.667862    0.134091
     43          8           0       -5.749755   -4.325814    1.141023
     44          8           0       -4.782386   -5.817222   -0.260814
     45          6           0       -5.132592   -6.947652    0.629939
     46          6           0        2.389987   -4.967522    0.708630
     47          6           0        3.436024   -3.950696    1.047097
     48          6           0        4.063307   -3.128927    0.232748
     49          6           0        3.698528   -3.087358   -1.232036
     50          6           0        5.239895   -2.288813    0.667547
     51          6           0        6.573835   -2.595043    0.141946
     52          6           0        7.663769   -1.632122    0.565679
     53          6           0        8.976326   -1.898755   -0.000045
     54          6           0        9.545420   -3.322537    0.230219
     55          6           0        9.993925   -0.782140    0.565476
     56          6           0       11.328166   -0.893642   -0.302396
     57          6           0       12.314933    0.332144    0.212026
     58          6           0       13.638693    0.423436   -0.489821
     59          6           0       14.582618   -0.688018   -0.266488
     60          6           0       14.317897    1.708062   -0.115935
     61          6           0       15.574098    2.059731   -0.958983
     62          6           0       16.049147    3.461157   -0.695308
     63          6           0       17.262024    3.871915   -1.419527
     64          6           0       16.879632    4.037543   -2.941251
     65          6           0       17.642463    5.319887   -0.950786
     66          1           0       -3.014774    1.147072    3.683208
     67          1           0       -6.428260    5.537482    0.864449
     68          1           0       -8.748008    1.155863   -3.120158
     69          1           0       -3.522664   -3.292963    1.972534
     70          1           0       -1.913747   -1.078205    2.580685
     71          1           0       -2.997302   -2.682679    4.537934
     72          1           0       -3.593712   -1.073030    4.754104
     73          1           0       -4.583572   -1.856682    3.624225
     74          1           0       -2.177554   -3.190061   -0.285987
     75          1           0       -1.446609   -1.777838    0.291858
     76          1           0       -0.527586   -2.798613    2.329839
     77          1           0       -1.531750   -4.431872    1.854444
     78          1           0       -1.943169    3.787272    3.970935
     79          1           0       -3.014669    4.701869    4.812927
     80          1           0       -3.217605    3.099150    5.129088
     81          1           0       -5.343389    6.646420    2.640961
     82          1           0       -9.941056    2.761891   -3.366078
     83          1           0      -10.102678    4.566805   -2.762218
     84          1           0       -9.769934    4.187416   -5.148709
     85          1           0       -8.620723    5.381736   -4.562368
     86          1           0       -8.051109    3.548652   -5.012811
     87          1           0       -7.843639   -1.107714   -4.874119
     88          1           0       -8.447937   -2.879022   -4.303535
     89          1           0       -9.516779   -1.310524   -3.698686
     90          1           0       -3.916852   -3.845885   -1.456953
     91          1           0        2.583011   -5.830751    1.273222
     92          1           0        2.106844   -5.362281   -0.387905
     93          1           0        3.547556   -4.055187    2.170718
     94          1           0        2.789818   -3.462762   -1.612983
     95          1           0        3.908982   -2.024628   -1.555919
     96          1           0        4.175339   -3.846914   -1.880347
     97          1           0        4.976633   -1.122491    0.606684
     98          1           0        5.143835   -2.304967    1.879951
     99          1           0        6.696981   -3.678985    0.577812
    100          1           0        6.443768   -2.931399   -1.020222
    101          1           0        7.194547   -0.666107    0.572980
    102          1           0        7.698120   -1.960145    1.638289
    103          1           0        9.100174   -1.562245   -1.103450
    104          1           0        8.957167   -4.089354   -0.335602
    105          1           0       10.479296   -3.349319   -0.215806
    106          1           0        9.494009   -3.804229    1.162663
    107          1           0        9.596782    0.234312    0.092005
    108          1           0       10.159337   -0.729739    1.583794
    109          1           0       11.929922   -1.833546   -0.204471
    110          1           0       11.309183   -0.610003   -1.410707
    111          1           0       11.867154    1.290479    0.040671
    112          1           0       12.620700    0.248860    1.142925
    113          1           0       13.135426    0.552494   -1.437914
    114          1           0       14.787988   -0.882740    0.658253
    115          1           0       14.078314   -1.664457   -0.483770
    116          1           0       15.441282   -0.645969   -1.042313
    117          1           0       13.616414    2.482803   -0.428952
    118          1           0       14.794898    1.718942    0.956716
    119          1           0       16.424332    1.340781   -1.002746
    120          1           0       15.199774    1.772414   -2.111809
    121          1           0       15.397571    4.124867   -0.974609
    122          1           0       16.213590    3.398839    0.383906
    123          1           0       18.050162    3.063641   -1.194154
    124          1           0       16.083729    4.939676   -2.906407
    125          1           0       17.719721    4.624662   -3.678150
    126          1           0       16.557991    3.036805   -3.469011
    127          1           0       17.985335    5.515899    0.168760
    128          1           0       18.468717    5.628641   -1.574828
    129          1           0       16.657564    6.099595   -1.152426
    130          1           0       -4.767415   -7.796380    0.284725
    131          1           0       -6.300736   -7.012584    0.663075
    132          1           0       -4.498275   -6.685208    1.452854
    133          8           0       -7.954043    6.706570   -0.239543
    134          1           0       -8.743054    6.186623   -2.192344
 ---------------------------------------------------------------------

 SCF Done:  E(RCAM-B3LYP) =  -3043.40421480     A.U. after   16 cycles

 Excitation energies and oscillator strengths:

 Excited State   1:      Singlet-A      2.1691 eV  571.60 nm  f=0.0730  <S**2>=0.000
     243 -> 245       -0.31588
     243 -> 246       -0.23139
     244 -> 245       -0.36885
     244 -> 246        0.44886
 This state for optimization and/or second-order correction.
 Total Energy, E(TD-HF/TD-DFT) =  -3043.32450256
 Copying the excited state density for this state as the 1-particle RhoCI density.

 The electronic state is 1-A.
 Alpha  occ. eigenvalues --  -46.80096 -19.23507 -19.21778 -19.18904 -19.17880
 Alpha  occ. eigenvalues --  -19.17484 -19.16921 -19.14866 -14.38916 -14.36509
 Alpha  occ. eigenvalues --  -14.36258 -14.36079 -10.35465 -10.34587 -10.32442
 Alpha  occ. eigenvalues --  -10.30281 -10.28489 -10.28152 -10.27839 -10.27702
 Alpha  occ. eigenvalues --  -10.27244 -10.27093 -10.26652 -10.26298 -10.25943
 Alpha  occ. eigenvalues --  -10.25925 -10.25702 -10.25102 -10.25098 -10.24951
 Alpha  occ. eigenvalues --  -10.24522 -10.24355 -10.24147 -10.24116 -10.24050
 Alpha  occ. eigenvalues --  -10.23990 -10.23898 -10.23656 -10.23510 -10.23287
 Alpha  occ. eigenvalues --  -10.23222 -10.23088 -10.22929 -10.22743 -10.22722
 Alpha  occ. eigenvalues --  -10.22616 -10.22538 -10.22534 -10.22495 -10.22396
 Alpha  occ. eigenvalues --  -10.22247 -10.22011 -10.21847 -10.21641 -10.21487
 Alpha  occ. eigenvalues --  -10.21306 -10.21213 -10.21018 -10.20925 -10.20739
 Alpha  occ. eigenvalues --  -10.20441 -10.19798 -10.19775 -10.19245 -10.18738
 Alpha  occ. eigenvalues --  -10.18607  -3.08904  -1.83832  -1.83371  -1.83331
 Alpha  occ. eigenvalues --   -1.15373  -1.11717  -1.10950  -1.06946  -1.06680
 Alpha  occ. eigenvalues --   -1.04068  -1.01399  -1.00451  -1.00276  -0.99008
 Alpha  occ. eigenvalues --   -0.96290  -0.88270  -0.86612  -0.86370  -0.86142
 Alpha  occ. eigenvalues --   -0.85440  -0.84739  -0.84518  -0.84294  -0.83847
 Alpha  occ. eigenvalues --   -0.82889  -0.82581  -0.81510  -0.80341  -0.79721
 Alpha  occ. eigenvalues --   -0.78918  -0.78122  -0.77842  -0.77277  -0.76482
 Alpha  occ. eigenvalues --   -0.75487  -0.75076  -0.73773  -0.73352  -0.72105
 Alpha  occ. eigenvalues --   -0.72063  -0.71774  -0.70225  -0.69842  -0.69461
 Alpha  occ. eigenvalues --   -0.67985  -0.67557  -0.67131  -0.66467  -0.66088
 Alpha  occ. eigenvalues --   -0.65229  -0.64666  -0.63917  -0.62091  -0.61972
 Alpha  occ. eigenvalues --   -0.61579  -0.60637  -0.60498  -0.59242  -0.58982
 Alpha  occ. eigenvalues --   -0.58677  -0.58311  -0.57994  -0.57728  -0.56990
 Alpha  occ. eigenvalues --   -0.56083  -0.56056  -0.55820  -0.54666  -0.54518
 Alpha  occ. eigenvalues --   -0.54134  -0.53729  -0.52786  -0.52659  -0.52357
 Alpha  occ. eigenvalues --   -0.51822  -0.51619  -0.51576  -0.51461  -0.50785
 Alpha  occ. eigenvalues --   -0.50578  -0.50435  -0.50016  -0.49733  -0.49189
 Alpha  occ. eigenvalues --   -0.48878  -0.48655  -0.48157  -0.48045  -0.47692
 Alpha  occ. eigenvalues --   -0.47512  -0.47097  -0.46884  -0.46747  -0.46647
 Alpha  occ. eigenvalues --   -0.46493  -0.46360  -0.46294  -0.45736  -0.45560
 Alpha  occ. eigenvalues --   -0.45416  -0.45115  -0.44984  -0.44895  -0.44527
 Alpha  occ. eigenvalues --   -0.44326  -0.44249  -0.44001  -0.43812  -0.43465
 Alpha  occ. eigenvalues --   -0.43422  -0.43229  -0.43167  -0.42994  -0.42907
 Alpha  occ. eigenvalues --   -0.42667  -0.42405  -0.42280  -0.42128  -0.42014
 Alpha  occ. eigenvalues --   -0.41781  -0.41582  -0.41372  -0.41218  -0.40867
 Alpha  occ. eigenvalues --   -0.40740  -0.40405  -0.40229  -0.39922  -0.39725
 Alpha  occ. eigenvalues --   -0.39268  -0.39076  -0.38967  -0.38705  -0.38540
 Alpha  occ. eigenvalues --   -0.38332  -0.38241  -0.38076  -0.37944  -0.37871
 Alpha  occ. eigenvalues --   -0.37867  -0.37492  -0.37424  -0.37264  -0.37052
 Alpha  occ. eigenvalues --   -0.36945  -0.36741  -0.36278  -0.36109  -0.35732
 Alpha  occ. eigenvalues --   -0.35530  -0.35260  -0.35112  -0.34726  -0.34466
 Alpha  occ. eigenvalues --   -0.34408  -0.34326  -0.34181  -0.33919  -0.33180
 Alpha  occ. eigenvalues --   -0.32611  -0.32332  -0.31820  -0.31629  -0.31570
 Alpha  occ. eigenvalues --   -0.31335  -0.31001  -0.30847  -0.29861  -0.29763
 Alpha  occ. eigenvalues --   -0.28595  -0.27965  -0.27709  -0.27643  -0.27529
 Alpha  occ. eigenvalues --   -0.26443  -0.25701  -0.22856  -0.21171
 Alpha virt. eigenvalues --   -0.07116  -0.06951  -0.01619  -0.00832   0.00719
 Alpha virt. eigenvalues --    0.02647   0.03773   0.04089   0.04448   0.04782
 Alpha virt. eigenvalues --    0.05165   0.06269   0.08075   0.08097   0.09020

 Mulliken charges:
               1
     1  Mg   0.813255
     2  C    0.074920
     3  C   -0.199622
     4  C   -0.177708
     5  C   -0.135754
     6  N   -0.626542
     7  C    0.313907
     8  C   -0.150354
     9  C   -0.144001
    10  C    0.324536
    11  C   -0.317636
    12  C   -0.169633
    13  C   -0.259439
    14  C    0.609987
    15  O   -0.462304
    16  O   -0.484242
    17  N   -0.724587
    18  C    0.289466
    19  C    0.062571
    20  C   -0.041127
    21  C    0.377788
    22  C   -0.387432
    23  C    0.276881
    24  O   -0.418247
    25  N   -0.702538
    26  C    0.301866
    27  C    0.008123
    28  C    0.034264
    29  C    0.265020
    30  C    0.175007
    31  C   -0.233163
    32  C   -0.305558
    33  N   -0.727947
    34  C    0.307602
    35  C   -0.008269
    36  C    0.045833
    37  C    0.305914
    38  C   -0.367932
    39  C    0.366940
    40  O   -0.400980
    41  C   -0.370446
    42  C    0.635344
    43  O   -0.454869
    44  O   -0.445519
    45  C   -0.087881
    46  C    0.002605
    47  C   -0.125285
    48  C    0.155871
    49  C   -0.366352
    50  C   -0.234319
    51  C   -0.161754
    52  C   -0.152369
    53  C   -0.042022
    54  C   -0.327785
    55  C   -0.169270
    56  C   -0.207451
    57  C   -0.182510
    58  C   -0.066142
    59  C   -0.301534
    60  C   -0.146344
    61  C   -0.196034
    62  C   -0.100868
    63  C   -0.071184
    64  C   -0.281680
    65  C   -0.290243
    66  H    0.078724
    67  H    0.124494
    68  H    0.080881
    69  H    0.115218
    70  H    0.110718
    71  H    0.108219
    72  H    0.111945
    73  H    0.129334
    74  H    0.112844
    75  H    0.126179
    76  H    0.117018
    77  H    0.131520
    78  H    0.133951
    79  H    0.165118
    80  H    0.119002
    81  H    0.087182
    82  H    0.117416
    83  H    0.115434
    84  H    0.118315
    85  H    0.108411
    86  H    0.117493
    87  H    0.106940
    88  H    0.141984
    89  H    0.104439
    90  H    0.148600
    91  H    0.117681
    92  H    0.109187
    93  H    0.085959
    94  H    0.143950
    95  H    0.105535
    96  H    0.105329
    97  H    0.074650
    98  H    0.072424
    99  H    0.085461
   100  H    0.079589
   101  H    0.099808
   102  H    0.096727
   103  H    0.079971
   104  H    0.096937
   105  H    0.113858
   106  H    0.111793
   107  H    0.081537
   108  H    0.106305
   109  H    0.099175
   110  H    0.090578
   111  H    0.083915
   112  H    0.089101
   113  H    0.077502
   114  H    0.113708
   115  H    0.079663
   116  H    0.100156
   117  H    0.090128
   118  H    0.073887
   119  H    0.087392
   120  H    0.041414
   121  H    0.090808
   122  H    0.088336
   123  H    0.078886
   124  H    0.086324
   125  H    0.067870
   126  H    0.105252
   127  H    0.088197
   128  H    0.110412
   129  H    0.065819
   130  H    0.139107
   131  H    0.140338
   132  H    0.134770
   133  O   -0.483225
   134  H    0.041587
 Sum of Mulliken charges =  -0.00000

 Dipole moment (field-independent basis, Debye):
    X=              3.1357    Y=             -8.1469    Z=             -0.2887  Tot=              8.7343
 Quadrupole moment (field-independent basis, Debye-Ang):
   XX=           -399.6020   YY=           -432.1480   ZZ=           -389.5312
   XY=             28.4279   XZ=             28.7512   YZ=            -29.5948

 Normal termination of Gaussian 16 at Thu Oct 10 02:11:31 2019.
