 Gaussian 16, Revision A.03,
 Gaussian 16:  ES64L-G16RevA.03 25-Dec-2016

 ----------------------------------------------------------------------
 # td=(NStates=1) iop(3/107=0140000000,3/108=0140000000) iop(3/107=0140
 000000,3/108=0140000000) CAM-B3LYP/6-31G(d,p)
 ----------------------------------------------------------------------

 --
 TD
 --
 Symbolic Z-matrix:
 Charge =  0 Multiplicity = 1

                         Standard orientation:
 ---------------------------------------------------------------------
 Center     Atomic      Atomic             Coordinates (Angstroms)
 Number     Number       Type             X           Y           Z
 ---------------------------------------------------------------------
      1         12           0       -5.670010    1.283175    0.218907
      2          6           0       -4.929616   -2.152225   -0.449242
      3          6           0       -3.451215    1.096028    2.840031
      4          6           0       -6.256779    4.531731    0.757730
      5          6           0       -8.022525    1.200076   -2.364316
      6          7           0       -4.371097   -0.303106    1.087913
      7          6           0       -4.188174   -1.679673    0.659960
      8          6           0       -3.129349   -2.333859    1.454289
      9          6           0       -2.794350   -1.360565    2.599602
     10          6           0       -3.479624   -0.148265    2.160461
     11          6           0       -3.391618   -1.827082    3.947018
     12          6           0       -1.844983   -2.739151    0.681305
     13          6           0       -1.017126   -3.678773    1.474885
     14          6           0        0.202014   -3.967615    0.680003
     15          8           0        0.355691   -3.613013   -0.539701
     16          8           0        1.117055   -4.734248    1.330157
     17          7           0       -4.925658    2.585421    1.565161
     18          6           0       -4.034241    2.407171    2.529564
     19          6           0       -3.790936    3.617741    3.205331
     20          6           0       -4.570489    4.584775    2.661308
     21          6           0       -5.349905    3.916659    1.610198
     22          6           0       -2.841934    3.823955    4.369425
     23          6           0       -4.846762    5.956663    3.061660
     24          8           0       -4.181189    6.504416    3.918830
     25          7           0       -6.874809    2.567504   -0.721693
     26          6           0       -6.897231    3.923169   -0.381940
     27          6           0       -7.932430    4.565474   -1.139158
     28          6           0       -8.359132    3.684067   -2.131536
     29          6           0       -7.740194    2.403504   -1.868333
     30          6           0       -8.404392    6.034625   -1.150305
     31          6           0       -9.462236    3.768918   -3.271051
     32          6           0       -8.780644    4.073095   -4.643594
     33          7           0       -6.350789   -0.119738   -1.106547
     34          6           0       -7.340113   -0.047394   -2.193869
     35          6           0       -7.544261   -1.335975   -2.763172
     36          6           0       -6.732364   -2.172320   -2.103072
     37          6           0       -5.928927   -1.424674   -1.175803
     38          6           0       -8.501481   -1.531148   -3.930185
     39          6           0       -6.184114   -3.604196   -2.017595
     40          8           0       -6.577294   -4.472355   -2.718357
     41          6           0       -5.070063   -3.564072   -0.950235
     42          6           0       -5.263093   -4.596922    0.119528
     43          8           0       -5.720079   -4.421971    1.192404
     44          8           0       -4.973252   -5.823551   -0.370355
     45          6           0       -5.318390   -6.879201    0.420619
     46          6           0        2.329232   -5.056807    0.721043
     47          6           0        3.429456   -4.075373    1.163645
     48          6           0        4.093208   -3.189011    0.315353
     49          6           0        3.737210   -3.051334   -1.145556
     50          6           0        5.148285   -2.267837    0.856732
     51          6           0        6.552798   -2.653673    0.167746
     52          6           0        7.696671   -1.723775    0.633578
     53          6           0        8.977312   -1.940671   -0.208291
     54          6           0        9.531067   -3.223520    0.144153
     55          6           0        9.980522   -0.727929    0.259825
     56          6           0       11.319118   -0.860818   -0.296926
     57          6           0       12.135416    0.366174    0.065147
     58          6           0       13.570699    0.509972   -0.623680
     59          6           0       14.348087   -0.802065   -0.475474
     60          6           0       14.401127    1.742965   -0.177120
     61          6           0       15.587510    1.978807   -1.010765
     62          6           0       16.121230    3.427569   -0.648399
     63          6           0       17.447253    3.943623   -1.364615
     64          6           0       17.175225    4.027107   -2.844348
     65          6           0       17.917585    5.306487   -0.760259
     66          1           0       -2.559716    1.292228    3.610711
     67          1           0       -6.555252    5.619014    0.817587
     68          1           0       -8.495527    1.243530   -3.304519
     69          1           0       -3.778532   -3.298725    1.741861
     70          1           0       -1.629173   -1.374231    2.778530
     71          1           0       -2.977868   -2.771221    4.330030
     72          1           0       -3.449952   -1.111727    4.846917
     73          1           0       -4.750373   -2.085250    3.809903
     74          1           0       -2.079411   -3.077424   -0.477322
     75          1           0       -1.381452   -1.743659    0.397077
     76          1           0       -0.682406   -3.277915    2.350310
     77          1           0       -1.394954   -4.725622    1.661466
     78          1           0       -1.733480    3.420205    3.878199
     79          1           0       -3.114268    4.774609    4.796566
     80          1           0       -3.119927    3.163971    5.087894
     81          1           0       -5.578346    6.535706    2.370749
     82          1           0       -9.887286    2.676224   -3.298203
     83          1           0      -10.243577    4.436424   -2.974113
     84          1           0       -9.648053    4.033603   -5.296272
     85          1           0       -8.120917    4.919940   -4.656408
     86          1           0       -8.070954    3.224142   -4.996258
     87          1           0       -7.964311   -1.009823   -4.878329
     88          1           0       -8.617338   -2.657631   -4.106012
     89          1           0       -9.309582   -1.099224   -3.612888
     90          1           0       -4.098297   -3.997182   -1.576171
     91          1           0        2.450597   -6.090594    1.123532
     92          1           0        2.160667   -5.001389   -0.312423
     93          1           0        3.720620   -4.294281    2.059766
     94          1           0        2.658420   -3.192266   -1.275064
     95          1           0        3.823873   -1.903319   -1.568826
     96          1           0        4.170303   -3.673982   -1.810477
     97          1           0        5.057153   -1.168537    0.637404
     98          1           0        5.346319   -2.307715    1.914740
     99          1           0        6.681430   -3.693305    0.332365
    100          1           0        6.266337   -2.500239   -0.763647
    101          1           0        7.228536   -0.714522    0.592915
    102          1           0        7.920632   -1.858986    1.618161
    103          1           0        8.667261   -1.694371   -1.172519
    104          1           0        8.689823   -4.151124   -0.172271
    105          1           0       10.287150   -3.393659   -0.549155
    106          1           0        9.715717   -3.457864    1.247302
    107          1           0        9.531651    0.287587    0.145798
    108          1           0       10.093997   -0.977952    1.421482
    109          1           0       11.757179   -1.898380    0.025921
    110          1           0       11.200027   -1.115918   -1.463459
    111          1           0       11.651895    1.411699   -0.153058
    112          1           0       12.424953    0.586863    1.154100
    113          1           0       13.187246    0.678828   -1.750468
    114          1           0       14.329508   -1.077633    0.663144
    115          1           0       13.891431   -1.603090   -1.135512
    116          1           0       15.541842   -0.598604   -0.706724
    117          1           0       13.609219    2.618962   -0.119849
    118          1           0       14.786126    1.606590    0.908871
    119          1           0       16.419380    1.204252   -0.890295
    120          1           0       15.385788    2.207016   -2.080024
    121          1           0       15.407568    4.170522   -0.909114
    122          1           0       16.300588    3.374890    0.422880
    123          1           0       18.186633    2.965188   -1.211153
    124          1           0       16.455133    4.678110   -3.213957
    125          1           0       18.206712    4.425350   -3.339605
    126          1           0       16.957723    3.035227   -3.198475
    127          1           0       17.962121    5.440227    0.417183
    128          1           0       18.944784    5.226963   -1.132853
    129          1           0       17.408545    6.152912   -1.109416
    130          1           0       -5.037100   -7.789343   -0.185806
    131          1           0       -6.486515   -6.969421    0.496550
    132          1           0       -4.840664   -6.790029    1.430856
    133          8           0       -8.005845    6.835691   -0.437340
    134          1           0       -9.117761    6.380397   -1.923742
 ---------------------------------------------------------------------

 SCF Done:  E(RCAM-B3LYP) =  -3043.45305953     A.U. after   16 cycles

 Excitation energies and oscillator strengths:

 Excited State   1:      Singlet-A      2.0221 eV  613.15 nm  f=0.1742  <S**2>=0.000
     243 -> 245        0.10494
     243 -> 246       -0.26382
     244 -> 245        0.63916
 This state for optimization and/or second-order correction.
 Total Energy, E(TD-HF/TD-DFT) =  -3043.37874927
 Copying the excited state density for this state as the 1-particle RhoCI density.

 The electronic state is 1-A.
 Alpha  occ. eigenvalues --  -46.80664 -19.22703 -19.22501 -19.18208 -19.17928
 Alpha  occ. eigenvalues --  -19.17572 -19.17214 -19.17011 -14.38965 -14.36714
 Alpha  occ. eigenvalues --  -14.36376 -14.35847 -10.35585 -10.35360 -10.31854
 Alpha  occ. eigenvalues --  -10.30739 -10.30595 -10.28061 -10.28029 -10.27931
 Alpha  occ. eigenvalues --  -10.26868 -10.26584 -10.26567 -10.26331 -10.26190
 Alpha  occ. eigenvalues --  -10.26015 -10.25760 -10.25324 -10.25263 -10.25153
 Alpha  occ. eigenvalues --  -10.24802 -10.24764 -10.24693 -10.24400 -10.24388
 Alpha  occ. eigenvalues --  -10.24277 -10.24239 -10.24175 -10.23996 -10.23901
 Alpha  occ. eigenvalues --  -10.23637 -10.23322 -10.23088 -10.22963 -10.22754
 Alpha  occ. eigenvalues --  -10.22656 -10.22542 -10.22362 -10.22200 -10.22147
 Alpha  occ. eigenvalues --  -10.22133 -10.22049 -10.22005 -10.21891 -10.21583
 Alpha  occ. eigenvalues --  -10.21483 -10.21419 -10.21184 -10.21113 -10.21105
 Alpha  occ. eigenvalues --  -10.20839 -10.20821 -10.20367 -10.19883 -10.19693
 Alpha  occ. eigenvalues --  -10.19414  -3.09249  -1.84185  -1.83749  -1.83632
 Alpha  occ. eigenvalues --   -1.16120  -1.13319  -1.11936  -1.09240  -1.07615
 Alpha  occ. eigenvalues --   -1.07040  -1.02653  -1.00430  -0.98092  -0.97447
 Alpha  occ. eigenvalues --   -0.96570  -0.87970  -0.86729  -0.86084  -0.84807
 Alpha  occ. eigenvalues --   -0.84666  -0.84235  -0.83551  -0.83315  -0.82758
 Alpha  occ. eigenvalues --   -0.82612  -0.82513  -0.82284  -0.80634  -0.80106
 Alpha  occ. eigenvalues --   -0.78699  -0.78254  -0.77565  -0.76709  -0.76424
 Alpha  occ. eigenvalues --   -0.75441  -0.74458  -0.73819  -0.72345  -0.71870
 Alpha  occ. eigenvalues --   -0.71361  -0.71115  -0.69993  -0.69260  -0.68910
 Alpha  occ. eigenvalues --   -0.68739  -0.68531  -0.67198  -0.66181  -0.65905
 Alpha  occ. eigenvalues --   -0.65450  -0.64538  -0.63302  -0.62426  -0.62307
 Alpha  occ. eigenvalues --   -0.60567  -0.60399  -0.60045  -0.59146  -0.58691
 Alpha  occ. eigenvalues --   -0.58474  -0.57870  -0.57714  -0.57495  -0.57317
 Alpha  occ. eigenvalues --   -0.56229  -0.56093  -0.55542  -0.54978  -0.54462
 Alpha  occ. eigenvalues --   -0.54043  -0.53414  -0.52949  -0.52346  -0.52191
 Alpha  occ. eigenvalues --   -0.52034  -0.51675  -0.51328  -0.51212  -0.50930
 Alpha  occ. eigenvalues --   -0.49996  -0.49706  -0.49510  -0.49387  -0.48985
 Alpha  occ. eigenvalues --   -0.48655  -0.48326  -0.48171  -0.48075  -0.47809
 Alpha  occ. eigenvalues --   -0.47666  -0.47338  -0.47163  -0.47008  -0.46973
 Alpha  occ. eigenvalues --   -0.46694  -0.46394  -0.46275  -0.46035  -0.45798
 Alpha  occ. eigenvalues --   -0.45689  -0.45537  -0.45301  -0.45012  -0.44944
 Alpha  occ. eigenvalues --   -0.44693  -0.44532  -0.44267  -0.44169  -0.43931
 Alpha  occ. eigenvalues --   -0.43807  -0.43593  -0.43274  -0.42975  -0.42959
 Alpha  occ. eigenvalues --   -0.42517  -0.42335  -0.42197  -0.42085  -0.42077
 Alpha  occ. eigenvalues --   -0.41710  -0.41563  -0.41345  -0.41027  -0.40952
 Alpha  occ. eigenvalues --   -0.40647  -0.40586  -0.40256  -0.40170  -0.39428
 Alpha  occ. eigenvalues --   -0.39401  -0.39343  -0.38966  -0.38760  -0.38584
 Alpha  occ. eigenvalues --   -0.38454  -0.38380  -0.38254  -0.38153  -0.37890
 Alpha  occ. eigenvalues --   -0.37823  -0.37757  -0.37508  -0.37109  -0.36923
 Alpha  occ. eigenvalues --   -0.36897  -0.36670  -0.36381  -0.36011  -0.35949
 Alpha  occ. eigenvalues --   -0.35599  -0.35042  -0.34944  -0.34895  -0.34733
 Alpha  occ. eigenvalues --   -0.34420  -0.33878  -0.33649  -0.33514  -0.33348
 Alpha  occ. eigenvalues --   -0.32292  -0.32006  -0.31977  -0.31943  -0.31284
 Alpha  occ. eigenvalues --   -0.30745  -0.30716  -0.30298  -0.29511  -0.29369
 Alpha  occ. eigenvalues --   -0.28755  -0.28315  -0.27840  -0.27828  -0.27595
 Alpha  occ. eigenvalues --   -0.26965  -0.26452  -0.22570  -0.21397
 Alpha virt. eigenvalues --   -0.08389  -0.05874  -0.01291  -0.00225   0.00943
 Alpha virt. eigenvalues --    0.01887   0.02880   0.03061   0.03853   0.04672
 Alpha virt. eigenvalues --    0.04860   0.05358   0.07754   0.08201   0.09271

 Mulliken charges:
               1
     1  Mg   0.823893
     2  C    0.083969
     3  C   -0.201468
     4  C   -0.186437
     5  C   -0.182095
     6  N   -0.598426
     7  C    0.288220
     8  C   -0.162765
     9  C   -0.138972
    10  C    0.355642
    11  C   -0.285835
    12  C   -0.177264
    13  C   -0.234087
    14  C    0.587446
    15  O   -0.497681
    16  O   -0.452862
    17  N   -0.717364
    18  C    0.339584
    19  C   -0.005579
    20  C    0.009977
    21  C    0.292999
    22  C   -0.357693
    23  C    0.236437
    24  O   -0.410835
    25  N   -0.692511
    26  C    0.291402
    27  C   -0.084720
    28  C    0.018081
    29  C    0.295972
    30  C    0.261920
    31  C   -0.240622
    32  C   -0.310396
    33  N   -0.692785
    34  C    0.223869
    35  C   -0.011371
    36  C    0.003392
    37  C    0.278598
    38  C   -0.347986
    39  C    0.396916
    40  O   -0.419311
    41  C   -0.334485
    42  C    0.610516
    43  O   -0.444361
    44  O   -0.416887
    45  C   -0.086720
    46  C   -0.004694
    47  C   -0.116483
    48  C    0.140590
    49  C   -0.398862
    50  C   -0.250377
    51  C   -0.190750
    52  C   -0.169214
    53  C   -0.058081
    54  C   -0.289782
    55  C   -0.159963
    56  C   -0.162902
    57  C   -0.178706
    58  C   -0.040840
    59  C   -0.290826
    60  C   -0.162371
    61  C   -0.172359
    62  C   -0.172804
    63  C   -0.058761
    64  C   -0.301198
    65  C   -0.309859
    66  H    0.063654
    67  H    0.138637
    68  H    0.087857
    69  H    0.124819
    70  H    0.109849
    71  H    0.115320
    72  H    0.120132
    73  H    0.066323
    74  H    0.114653
    75  H    0.124855
    76  H    0.145096
    77  H    0.149686
    78  H    0.099225
    79  H    0.158438
    80  H    0.135148
    81  H    0.081200
    82  H    0.105192
    83  H    0.120014
    84  H    0.118007
    85  H    0.127479
    86  H    0.103089
    87  H    0.115143
    88  H    0.137792
    89  H    0.138903
    90  H    0.147406
    91  H    0.107596
    92  H    0.124458
    93  H    0.075195
    94  H    0.157082
    95  H    0.083701
    96  H    0.138101
    97  H    0.096814
    98  H    0.098314
    99  H    0.100330
   100  H    0.112031
   101  H    0.073868
   102  H    0.094414
   103  H    0.096696
   104  H    0.057266
   105  H    0.115211
   106  H    0.110924
   107  H    0.091727
   108  H    0.068124
   109  H    0.098194
   110  H    0.069942
   111  H    0.076115
   112  H    0.086601
   113  H    0.060745
   114  H    0.089278
   115  H    0.105329
   116  H    0.072122
   117  H    0.077346
   118  H    0.079799
   119  H    0.092221
   120  H    0.095060
   121  H    0.090576
   122  H    0.082004
   123  H    0.056561
   124  H    0.112715
   125  H    0.069063
   126  H    0.112768
   127  H    0.087590
   128  H    0.112111
   129  H    0.116212
   130  H    0.120963
   131  H    0.110797
   132  H    0.118779
   133  O   -0.360935
   134  H    0.059199
 Sum of Mulliken charges =  -0.00000

 Dipole moment (field-independent basis, Debye):
    X=              1.9929    Y=             -3.8660    Z=             -0.9170  Tot=              4.4451
 Quadrupole moment (field-independent basis, Debye-Ang):
   XX=           -387.3173   YY=           -425.5884   ZZ=           -395.4628
   XY=              1.7517   XZ=             22.7251   YZ=            -37.4697

 Normal termination of Gaussian 16 at Sat Oct  5 09:16:55 2019.
