 Gaussian 16, Revision A.03,
 Gaussian 16:  ES64L-G16RevA.03 25-Dec-2016

 ----------------------------------------------------------------------
 # td=(NStates=1) iop(3/107=0140000000,3/108=0140000000) iop(3/107=0140
 000000,3/108=0140000000) CAM-B3LYP/6-31G(d,p)
 ----------------------------------------------------------------------

 --
 TD
 --
 Symbolic Z-matrix:
 Charge =  0 Multiplicity = 1

                         Standard orientation:
 ---------------------------------------------------------------------
 Center     Atomic      Atomic             Coordinates (Angstroms)
 Number     Number       Type             X           Y           Z
 ---------------------------------------------------------------------
      1         12           0       -5.558439    1.211661    0.191986
      2          6           0       -5.105926   -2.065176   -0.344063
      3          6           0       -3.399336    1.201735    2.799690
      4          6           0       -6.122949    4.513008    0.520598
      5          6           0       -7.984139    1.197402   -2.345896
      6          7           0       -4.362684   -0.198990    1.033934
      7          6           0       -4.323636   -1.521698    0.675654
      8          6           0       -3.273066   -2.252159    1.519368
      9          6           0       -2.915549   -1.281361    2.627934
     10          6           0       -3.583927    0.062764    2.139877
     11          6           0       -3.506084   -1.708014    3.993137
     12          6           0       -1.982990   -2.654104    0.715454
     13          6           0       -0.961861   -3.618439    1.363520
     14          6           0        0.182096   -3.902178    0.602986
     15          8           0        0.542531   -3.471367   -0.525167
     16          8           0        0.939071   -4.726762    1.269939
     17          7           0       -4.729657    2.598739    1.327178
     18          6           0       -4.023423    2.472952    2.496334
     19          6           0       -3.799981    3.704533    3.264151
     20          6           0       -4.562451    4.636609    2.520193
     21          6           0       -5.168354    3.993341    1.403665
     22          6           0       -2.831747    3.836103    4.347640
     23          6           0       -4.571602    6.080872    2.851615
     24          8           0       -3.973872    6.597949    3.804095
     25          7           0       -6.897043    2.611494   -0.790657
     26          6           0       -6.975324    3.930190   -0.422043
     27          6           0       -7.917032    4.541980   -1.243064
     28          6           0       -8.333634    3.618295   -2.121639
     29          6           0       -7.788838    2.350848   -1.718437
     30          6           0       -8.445253    5.889272   -1.171191
     31          6           0       -9.330283    3.722624   -3.248104
     32          6           0       -8.648785    4.002468   -4.600925
     33          7           0       -6.437649   -0.115301   -1.135184
     34          6           0       -7.409920   -0.045410   -2.127271
     35          6           0       -7.609252   -1.360770   -2.626534
     36          6           0       -6.643300   -2.182336   -2.080304
     37          6           0       -5.953150   -1.402525   -1.143024
     38          6           0       -8.447541   -1.664359   -3.843351
     39          6           0       -6.240151   -3.594860   -1.941498
     40          8           0       -6.571764   -4.553807   -2.537580
     41          6           0       -5.111893   -3.538735   -0.797448
     42          6           0       -5.481505   -4.615825    0.204182
     43          8           0       -5.952354   -4.392106    1.289539
     44          8           0       -4.984804   -5.826180   -0.182265
     45          6           0       -5.349487   -6.909134    0.674963
     46          6           0        2.292940   -5.080783    0.609510
     47          6           0        3.313474   -4.124254    0.890169
     48          6           0        4.035325   -3.273337    0.115828
     49          6           0        3.761910   -3.208691   -1.366244
     50          6           0        5.103159   -2.404735    0.657859
     51          6           0        6.450013   -2.759047   -0.038923
     52          6           0        7.595543   -1.806956    0.643149
     53          6           0        8.916788   -1.877758   -0.037291
     54          6           0        9.524139   -3.203753    0.156630
     55          6           0        9.901552   -0.821926    0.360883
     56          6           0       11.322879   -0.759326   -0.343101
     57          6           0       12.186376    0.451797    0.164754
     58          6           0       13.579170    0.543688   -0.611272
     59          6           0       14.487722   -0.662364   -0.439974
     60          6           0       14.330485    1.799202   -0.099972
     61          6           0       15.642375    2.026473   -0.895275
     62          6           0       16.118638    3.372337   -0.584160
     63          6           0       17.435951    3.718687   -1.241202
     64          6           0       17.276979    3.753468   -2.822648
     65          6           0       18.005411    5.062354   -0.766185
     66          1           0       -2.766271    1.132881    3.567068
     67          1           0       -6.378541    5.589317    0.550921
     68          1           0       -8.768594    1.182230   -3.052506
     69          1           0       -3.803968   -3.242269    1.854479
     70          1           0       -1.762586   -1.335256    2.847310
     71          1           0       -3.060277   -2.505808    4.692744
     72          1           0       -3.514136   -1.004067    4.793900
     73          1           0       -4.589643   -1.733407    3.942636
     74          1           0       -2.010615   -3.226455   -0.275396
     75          1           0       -1.505267   -1.691363    0.287935
     76          1           0       -0.494590   -3.147183    2.256994
     77          1           0       -1.391496   -4.474425    1.735143
     78          1           0       -1.784240    3.380010    4.159958
     79          1           0       -3.119412    4.726975    4.692039
     80          1           0       -3.078913    3.160242    5.053580
     81          1           0       -5.119132    6.738824    2.110239
     82          1           0       -9.967110    2.879302   -3.344181
     83          1           0      -10.117073    4.602302   -3.032659
     84          1           0       -9.227446    3.950078   -5.469820
     85          1           0       -8.021628    4.896114   -4.708260
     86          1           0       -7.946474    3.401847   -4.883386
     87          1           0       -7.946493   -1.108648   -4.921064
     88          1           0       -8.404919   -2.729882   -3.976792
     89          1           0       -9.564666   -1.218435   -3.766491
     90          1           0       -4.164823   -3.841990   -1.238512
     91          1           0        2.621350   -6.074710    1.093842
     92          1           0        2.111129   -5.340670   -0.338589
     93          1           0        3.502828   -4.029168    1.846423
     94          1           0        2.693112   -3.411679   -1.581073
     95          1           0        3.869381   -2.298232   -1.703328
     96          1           0        4.339741   -3.757905   -2.012807
     97          1           0        4.887036   -1.290298    0.277180
     98          1           0        5.171842   -2.422170    1.721090
     99          1           0        6.756679   -3.701808    0.243203
    100          1           0        6.528430   -2.605512   -1.134073
    101          1           0        7.198441   -0.700093    0.578509
    102          1           0        7.867975   -1.933006    1.748783
    103          1           0        8.503960   -1.849356   -1.152164
    104          1           0        8.945092   -4.165640   -0.312421
    105          1           0       10.462536   -3.289656   -0.505907
    106          1           0        9.695239   -3.385742    1.287446
    107          1           0        9.501521    0.330629    0.386915
    108          1           0        9.967439   -0.907575    1.456855
    109          1           0       11.711611   -1.686400   -0.371660
    110          1           0       10.847406   -0.384090   -1.420647
    111          1           0       11.547665    1.402941   -0.002047
    112          1           0       12.354716    0.259561    1.254242
    113          1           0       13.479441    0.624225   -1.697616
    114          1           0       14.440353   -1.162537    0.573795
    115          1           0       14.321689   -1.561178   -0.983605
    116          1           0       15.506074   -0.542136   -0.702431
    117          1           0       13.707866    2.839646    0.005342
    118          1           0       14.550643    1.665824    0.917223
    119          1           0       16.300723    1.197815   -0.580407
    120          1           0       15.489035    2.029037   -1.986148
    121          1           0       15.435997    4.208400   -0.794242
    122          1           0       16.153829    3.505258    0.572162
    123          1           0       18.230046    2.917924   -0.984414
    124          1           0       16.578977    4.487464   -3.127837
    125          1           0       18.209300    3.915236   -3.341400
    126          1           0       16.913691    2.779139   -3.058687
    127          1           0       18.585095    5.179388    0.367751
    128          1           0       18.747017    5.329834   -1.538316
    129          1           0       17.232401    5.833968   -0.987268
    130          1           0       -5.412200   -7.648358    0.223514
    131          1           0       -6.264378   -6.775127    1.076836
    132          1           0       -4.500940   -7.054266    1.436844
    133          8           0       -7.868150    6.751309   -0.397645
    134          1           0       -9.599586    6.148313   -1.537026
 ---------------------------------------------------------------------

 SCF Done:  E(RCAM-B3LYP) =  -3043.44238482     A.U. after   16 cycles

 Excitation energies and oscillator strengths:

 Excited State   1:      Singlet-A      2.0246 eV  612.40 nm  f=0.2086  <S**2>=0.000
     243 -> 246        0.25341
     244 -> 245        0.65191
 This state for optimization and/or second-order correction.
 Total Energy, E(TD-HF/TD-DFT) =  -3043.36798361
 Copying the excited state density for this state as the 1-particle RhoCI density.

 The electronic state is 1-A.
 Alpha  occ. eigenvalues --  -46.81000 -19.22563 -19.21724 -19.18071 -19.17635
 Alpha  occ. eigenvalues --  -19.17327 -19.17317 -19.15337 -14.38857 -14.37376
 Alpha  occ. eigenvalues --  -14.36194 -14.35713 -10.35132 -10.33742 -10.32223
 Alpha  occ. eigenvalues --  -10.31867 -10.30682 -10.28023 -10.27244 -10.27209
 Alpha  occ. eigenvalues --  -10.26947 -10.26805 -10.25769 -10.25671 -10.25375
 Alpha  occ. eigenvalues --  -10.25093 -10.24983 -10.24904 -10.24890 -10.24752
 Alpha  occ. eigenvalues --  -10.24694 -10.24675 -10.24647 -10.24517 -10.23982
 Alpha  occ. eigenvalues --  -10.23893 -10.23717 -10.23714 -10.23517 -10.23156
 Alpha  occ. eigenvalues --  -10.23074 -10.22852 -10.22700 -10.22689 -10.22497
 Alpha  occ. eigenvalues --  -10.22305 -10.22168 -10.22042 -10.22039 -10.21996
 Alpha  occ. eigenvalues --  -10.21925 -10.21876 -10.21787 -10.21770 -10.21692
 Alpha  occ. eigenvalues --  -10.21556 -10.21402 -10.20904 -10.20605 -10.20249
 Alpha  occ. eigenvalues --  -10.20206 -10.20018 -10.19742 -10.19583 -10.19574
 Alpha  occ. eigenvalues --  -10.18153  -3.09642  -1.84580  -1.84146  -1.84026
 Alpha  occ. eigenvalues --   -1.13611  -1.12807  -1.09952  -1.05731  -1.05371
 Alpha  occ. eigenvalues --   -1.03608  -1.01570  -1.01155  -1.00028  -0.99103
 Alpha  occ. eigenvalues --   -0.97766  -0.89054  -0.86761  -0.85889  -0.85519
 Alpha  occ. eigenvalues --   -0.85350  -0.85069  -0.84938  -0.84483  -0.84040
 Alpha  occ. eigenvalues --   -0.82964  -0.82816  -0.82557  -0.80860  -0.80123
 Alpha  occ. eigenvalues --   -0.79748  -0.78994  -0.78494  -0.77985  -0.76728
 Alpha  occ. eigenvalues --   -0.75929  -0.75451  -0.74570  -0.74471  -0.72504
 Alpha  occ. eigenvalues --   -0.71817  -0.70692  -0.70478  -0.70221  -0.69566
 Alpha  occ. eigenvalues --   -0.69231  -0.68909  -0.67992  -0.67310  -0.67111
 Alpha  occ. eigenvalues --   -0.66316  -0.64901  -0.64813  -0.62804  -0.62739
 Alpha  occ. eigenvalues --   -0.61832  -0.61076  -0.60498  -0.59521  -0.59351
 Alpha  occ. eigenvalues --   -0.58669  -0.58605  -0.57983  -0.57727  -0.57037
 Alpha  occ. eigenvalues --   -0.56888  -0.56707  -0.55739  -0.55163  -0.54872
 Alpha  occ. eigenvalues --   -0.54125  -0.53730  -0.53182  -0.52828  -0.52456
 Alpha  occ. eigenvalues --   -0.51926  -0.51695  -0.51233  -0.50979  -0.50836
 Alpha  occ. eigenvalues --   -0.50624  -0.49972  -0.49669  -0.49510  -0.49477
 Alpha  occ. eigenvalues --   -0.49118  -0.48943  -0.48564  -0.48265  -0.48083
 Alpha  occ. eigenvalues --   -0.48046  -0.47654  -0.47169  -0.46830  -0.46726
 Alpha  occ. eigenvalues --   -0.46675  -0.46435  -0.46122  -0.45930  -0.45714
 Alpha  occ. eigenvalues --   -0.45435  -0.45377  -0.45255  -0.44964  -0.44942
 Alpha  occ. eigenvalues --   -0.44447  -0.44216  -0.44148  -0.43627  -0.43469
 Alpha  occ. eigenvalues --   -0.43291  -0.43167  -0.42813  -0.42693  -0.42618
 Alpha  occ. eigenvalues --   -0.42523  -0.42377  -0.42309  -0.42203  -0.42052
 Alpha  occ. eigenvalues --   -0.41899  -0.41609  -0.41295  -0.41261  -0.40951
 Alpha  occ. eigenvalues --   -0.40715  -0.40656  -0.40384  -0.40219  -0.40085
 Alpha  occ. eigenvalues --   -0.39673  -0.39650  -0.39537  -0.39395  -0.39257
 Alpha  occ. eigenvalues --   -0.39164  -0.39063  -0.39003  -0.38882  -0.38086
 Alpha  occ. eigenvalues --   -0.37905  -0.37626  -0.37561  -0.37245  -0.36889
 Alpha  occ. eigenvalues --   -0.36834  -0.36667  -0.36361  -0.36204  -0.35785
 Alpha  occ. eigenvalues --   -0.35544  -0.35379  -0.35335  -0.35146  -0.34512
 Alpha  occ. eigenvalues --   -0.34190  -0.33757  -0.33531  -0.33412  -0.33371
 Alpha  occ. eigenvalues --   -0.33157  -0.32462  -0.32239  -0.32027  -0.31988
 Alpha  occ. eigenvalues --   -0.31291  -0.31170  -0.30416  -0.30246  -0.29309
 Alpha  occ. eigenvalues --   -0.28899  -0.28252  -0.28162  -0.28004  -0.27853
 Alpha  occ. eigenvalues --   -0.27610  -0.26765  -0.23307  -0.21775
 Alpha virt. eigenvalues --   -0.08821  -0.06547  -0.02141  -0.01513   0.00641
 Alpha virt. eigenvalues --    0.02675   0.03177   0.03913   0.03961   0.04287
 Alpha virt. eigenvalues --    0.04629   0.05388   0.07543   0.09077   0.09536

 Mulliken charges:
               1
     1  Mg   0.813052
     2  C    0.089442
     3  C   -0.153597
     4  C   -0.193186
     5  C   -0.182666
     6  N   -0.683289
     7  C    0.322802
     8  C   -0.147546
     9  C   -0.141166
    10  C    0.350469
    11  C   -0.330154
    12  C   -0.192277
    13  C   -0.254635
    14  C    0.614621
    15  O   -0.525167
    16  O   -0.474005
    17  N   -0.684848
    18  C    0.280376
    19  C    0.052918
    20  C   -0.039770
    21  C    0.294091
    22  C   -0.357175
    23  C    0.248884
    24  O   -0.424399
    25  N   -0.688108
    26  C    0.308858
    27  C    0.000527
    28  C    0.039123
    29  C    0.343933
    30  C    0.208087
    31  C   -0.245940
    32  C   -0.328209
    33  N   -0.734226
    34  C    0.315224
    35  C   -0.007249
    36  C    0.025412
    37  C    0.302086
    38  C   -0.350184
    39  C    0.369276
    40  O   -0.421007
    41  C   -0.335610
    42  C    0.615994
    43  O   -0.461538
    44  O   -0.459908
    45  C   -0.045100
    46  C    0.010075
    47  C   -0.114430
    48  C    0.154129
    49  C   -0.397265
    50  C   -0.230223
    51  C   -0.182807
    52  C   -0.170479
    53  C   -0.036749
    54  C   -0.291828
    55  C   -0.168905
    56  C   -0.166423
    57  C   -0.172416
    58  C   -0.043118
    59  C   -0.336472
    60  C   -0.173944
    61  C   -0.169581
    62  C   -0.154226
    63  C   -0.057377
    64  C   -0.328317
    65  C   -0.293845
    66  H    0.061615
    67  H    0.136928
    68  H    0.075746
    69  H    0.123132
    70  H    0.100789
    71  H    0.104795
    72  H    0.108630
    73  H    0.124263
    74  H    0.113367
    75  H    0.115257
    76  H    0.136418
    77  H    0.150283
    78  H    0.129792
    79  H    0.155252
    80  H    0.134185
    81  H    0.086967
    82  H    0.121515
    83  H    0.088578
    84  H    0.111105
    85  H    0.111250
    86  H    0.127130
    87  H    0.092768
    88  H    0.149929
    89  H    0.104229
    90  H    0.165179
    91  H    0.106827
    92  H    0.133442
    93  H    0.067034
    94  H    0.148778
    95  H    0.115943
    96  H    0.118955
    97  H    0.092187
    98  H    0.107387
    99  H    0.121248
   100  H    0.107147
   101  H    0.072083
   102  H    0.072010
   103  H    0.058076
   104  H    0.079392
   105  H    0.097908
   106  H    0.091364
   107  H    0.059215
   108  H    0.078913
   109  H    0.105244
   110  H    0.071106
   111  H    0.091789
   112  H    0.092765
   113  H    0.090849
   114  H    0.090056
   115  H    0.104260
   116  H    0.109541
   117  H    0.059959
   118  H    0.103038
   119  H    0.103097
   120  H    0.093611
   121  H    0.088548
   122  H    0.071056
   123  H    0.071120
   124  H    0.108207
   125  H    0.105351
   126  H    0.108601
   127  H    0.073139
   128  H    0.096157
   129  H    0.093719
   130  H    0.117713
   131  H    0.135488
   132  H    0.100096
   133  O   -0.436050
   134  H    0.084517
 Sum of Mulliken charges =  -0.00000

 Dipole moment (field-independent basis, Debye):
    X=              1.9835    Y=             -5.4809    Z=             -0.8916  Tot=              5.8965
 Quadrupole moment (field-independent basis, Debye-Ang):
   XX=           -368.9020   YY=           -436.6519   ZZ=           -388.6854
   XY=              0.2395   XZ=             17.5287   YZ=            -34.8405

 Normal termination of Gaussian 16 at Tue Oct  8 10:25:46 2019.
