 Gaussian 16, Revision A.03,
 Gaussian 16:  ES64L-G16RevA.03 25-Dec-2016

 ----------------------------------------------------------------------
 # td=(NStates=1) iop(3/107=0140000000,3/108=0140000000) iop(3/107=0140
 000000,3/108=0140000000) CAM-B3LYP/6-31G(d,p)
 ----------------------------------------------------------------------

 --
 TD
 --
 Symbolic Z-matrix:
 Charge =  0 Multiplicity = 1

                         Standard orientation:
 ---------------------------------------------------------------------
 Center     Atomic      Atomic             Coordinates (Angstroms)
 Number     Number       Type             X           Y           Z
 ---------------------------------------------------------------------
      1         12           0       -5.583953    1.247144    0.120186
      2          6           0       -5.004954   -2.201275   -0.480351
      3          6           0       -3.473700    1.107040    2.856105
      4          6           0       -6.177506    4.544028    0.726432
      5          6           0       -7.929933    1.195388   -2.486032
      6          7           0       -4.368924   -0.305057    0.988398
      7          6           0       -4.359269   -1.636254    0.658354
      8          6           0       -3.227833   -2.311504    1.554474
      9          6           0       -2.810122   -1.361416    2.618617
     10          6           0       -3.608028   -0.077116    2.131766
     11          6           0       -3.298974   -1.751702    4.085373
     12          6           0       -2.003153   -2.591473    0.774874
     13          6           0       -1.072093   -3.511307    1.520435
     14          6           0        0.209905   -3.829466    0.659728
     15          8           0        0.436256   -3.385724   -0.437683
     16          8           0        1.062649   -4.586704    1.374192
     17          7           0       -4.883254    2.626100    1.424315
     18          6           0       -4.050103    2.424838    2.484395
     19          6           0       -3.877243    3.629680    3.227955
     20          6           0       -4.615610    4.580564    2.659718
     21          6           0       -5.300459    3.945831    1.510289
     22          6           0       -2.955214    3.788961    4.399418
     23          6           0       -4.660441    6.030033    2.984969
     24          8           0       -4.104191    6.507377    3.943734
     25          7           0       -6.814971    2.616919   -0.774735
     26          6           0       -6.923725    3.970991   -0.360428
     27          6           0       -7.945641    4.559016   -1.206300
     28          6           0       -8.364049    3.603156   -2.119328
     29          6           0       -7.675007    2.420929   -1.830403
     30          6           0       -8.349703    5.960944   -1.182819
     31          6           0       -9.348389    3.807398   -3.221831
     32          6           0       -8.765785    4.030938   -4.691895
     33          7           0       -6.367105   -0.161186   -1.027926
     34          6           0       -7.256314   -0.039490   -2.119954
     35          6           0       -7.380783   -1.275916   -2.752003
     36          6           0       -6.556502   -2.174715   -2.119543
     37          6           0       -5.930454   -1.481644   -1.130322
     38          6           0       -8.325713   -1.715970   -3.911060
     39          6           0       -6.130910   -3.561495   -1.914370
     40          8           0       -6.386345   -4.452345   -2.650629
     41          6           0       -5.074284   -3.654428   -0.869656
     42          6           0       -5.414491   -4.667901    0.159030
     43          8           0       -5.878164   -4.488473    1.288871
     44          8           0       -5.114588   -5.856845   -0.359178
     45          6           0       -5.443443   -6.934185    0.524408
     46          6           0        2.323680   -5.050119    0.646791
     47          6           0        3.444225   -4.166481    1.100892
     48          6           0        4.105539   -3.377591    0.156098
     49          6           0        3.787226   -3.203723   -1.339471
     50          6           0        5.194432   -2.411113    0.602829
     51          6           0        6.427831   -2.631662   -0.006399
     52          6           0        7.599386   -1.740147    0.406950
     53          6           0        8.951508   -1.904168   -0.182608
     54          6           0        9.486402   -3.288521    0.094801
     55          6           0        9.904673   -0.795755    0.358957
     56          6           0       11.252628   -0.742569   -0.334836
     57          6           0       12.155222    0.323217    0.252818
     58          6           0       13.564039    0.421449   -0.493908
     59          6           0       14.426930   -0.842586   -0.210921
     60          6           0       14.271192    1.734378   -0.158573
     61          6           0       15.526870    2.033566   -0.788742
     62          6           0       16.046400    3.441544   -0.654658
     63          6           0       17.321248    3.848772   -1.355557
     64          6           0       17.063108    3.963810   -2.966562
     65          6           0       17.840189    5.242207   -0.822279
     66          1           0       -2.693376    1.297762    3.601922
     67          1           0       -6.478689    5.614354    0.809377
     68          1           0       -8.407685    1.363060   -3.585851
     69          1           0       -3.520883   -3.407104    1.931522
     70          1           0       -1.782664   -1.112233    2.398564
     71          1           0       -2.743997   -2.604328    4.152399
     72          1           0       -3.173027   -0.904489    4.634043
     73          1           0       -4.391217   -1.829456    4.156928
     74          1           0       -2.561848   -3.266096    0.009367
     75          1           0       -1.519786   -1.742798    0.306226
     76          1           0       -0.779803   -3.083620    2.456753
     77          1           0       -1.684912   -4.492362    1.639803
     78          1           0       -1.766680    4.015492    4.032872
     79          1           0       -3.384320    4.754119    4.966833
     80          1           0       -2.924321    2.928116    5.173914
     81          1           0       -5.032609    6.718125    2.120837
     82          1           0      -10.276444    3.072783   -3.280779
     83          1           0       -9.852923    4.598779   -2.889110
     84          1           0       -9.384552    4.300216   -5.507507
     85          1           0       -7.881246    4.903879   -4.370606
     86          1           0       -8.185503    3.051259   -5.144330
     87          1           0       -8.060687   -1.027350   -4.670230
     88          1           0       -7.973418   -2.759117   -4.202756
     89          1           0       -9.448443   -1.773577   -3.829335
     90          1           0       -4.164829   -3.888921   -1.432605
     91          1           0        2.371125   -6.058159    1.000382
     92          1           0        2.099892   -4.973151   -0.335640
     93          1           0        3.661296   -4.077756    2.107012
     94          1           0        2.799745   -3.318654   -1.683283
     95          1           0        3.829476   -2.250878   -1.707760
     96          1           0        4.375539   -3.726869   -1.847654
     97          1           0        4.750723   -1.395185    0.416079
     98          1           0        5.243520   -2.477885    1.760490
     99          1           0        6.871946   -3.671636    0.205324
    100          1           0        6.387911   -2.357412   -1.093375
    101          1           0        7.326306   -0.713382    0.261234
    102          1           0        7.803808   -1.887038    1.366646
    103          1           0        8.824684   -1.806752   -1.382426
    104          1           0        8.952463   -4.184025   -0.347495
    105          1           0       10.662982   -3.423731   -0.276102
    106          1           0        9.686790   -3.409554    1.176349
    107          1           0        9.386340   -0.019928    0.232050
    108          1           0       10.123043   -0.944430    1.447834
    109          1           0       11.839847   -1.720337   -0.087993
    110          1           0       11.189530   -0.597012   -1.347170
    111          1           0       11.701894    1.311807   -0.068824
    112          1           0       12.524757   -0.040829    1.243810
    113          1           0       13.151138    0.714929   -1.528705
    114          1           0       14.543044   -0.831711    0.944288
    115          1           0       13.843742   -1.631255   -0.560582
    116          1           0       15.324168   -0.798487   -0.744542
    117          1           0       13.716413    2.500526   -0.194358
    118          1           0       14.730385    1.845170    0.798097
    119          1           0       16.373887    1.371954   -0.564297
    120          1           0       15.348447    1.969346   -1.879459
    121          1           0       15.278253    4.302000   -1.031610
    122          1           0       16.115594    3.585057    0.535318
    123          1           0       18.153712    3.233625   -1.133089
    124          1           0       16.169893    4.798597   -3.082337
    125          1           0       18.098843    4.313845   -3.240135
    126          1           0       16.990850    3.053344   -3.417898
    127          1           0       17.993601    5.102611    0.245754
    128          1           0       18.746402    5.504269   -1.333067
    129          1           0       17.089079    5.987802   -0.913250
    130          1           0       -5.219511   -7.712773   -0.272725
    131          1           0       -6.590846   -6.763601    1.266185
    132          1           0       -4.480554   -6.806189    1.267459
    133          8           0       -7.819237    6.820564   -0.413081
    134          1           0       -8.796922    6.349380   -2.035185
 ---------------------------------------------------------------------

 SCF Done:  E(RCAM-B3LYP) =  -3043.38063122     A.U. after   15 cycles

 Excitation energies and oscillator strengths:

 Excited State   1:      Singlet-A      2.0674 eV  599.71 nm  f=0.1620  <S**2>=0.000
     243 -> 245       -0.13121
     243 -> 246       -0.27648
     244 -> 245        0.62219
 This state for optimization and/or second-order correction.
 Total Energy, E(TD-HF/TD-DFT) =  -3043.30465568
 Copying the excited state density for this state as the 1-particle RhoCI density.

 The electronic state is 1-A.
 Alpha  occ. eigenvalues --  -46.80292 -19.23841 -19.21333 -19.17959 -19.17951
 Alpha  occ. eigenvalues --  -19.16919 -19.16900 -19.16639 -14.39053 -14.37181
 Alpha  occ. eigenvalues --  -14.36656 -14.35891 -10.35724 -10.34661 -10.31262
 Alpha  occ. eigenvalues --  -10.30971 -10.30770 -10.29892 -10.28226 -10.27891
 Alpha  occ. eigenvalues --  -10.27132 -10.26692 -10.26628 -10.26344 -10.26058
 Alpha  occ. eigenvalues --  -10.25926 -10.25304 -10.25245 -10.24794 -10.24534
 Alpha  occ. eigenvalues --  -10.24423 -10.24249 -10.24236 -10.24204 -10.23912
 Alpha  occ. eigenvalues --  -10.23751 -10.23736 -10.23700 -10.23541 -10.23393
 Alpha  occ. eigenvalues --  -10.23357 -10.23352 -10.23075 -10.23058 -10.22406
 Alpha  occ. eigenvalues --  -10.22365 -10.22342 -10.22008 -10.22001 -10.21911
 Alpha  occ. eigenvalues --  -10.21864 -10.21673 -10.21597 -10.21306 -10.21270
 Alpha  occ. eigenvalues --  -10.21162 -10.21016 -10.20818 -10.20423 -10.20341
 Alpha  occ. eigenvalues --  -10.19735 -10.19652 -10.19397 -10.18927 -10.18633
 Alpha  occ. eigenvalues --  -10.17607  -3.09018  -1.83953  -1.83473  -1.83449
 Alpha  occ. eigenvalues --   -1.15308  -1.12121  -1.09098  -1.08085  -1.05051
 Alpha  occ. eigenvalues --   -1.04088  -1.03960  -1.00204  -0.99639  -0.98461
 Alpha  occ. eigenvalues --   -0.97902  -0.90256  -0.87400  -0.87077  -0.86172
 Alpha  occ. eigenvalues --   -0.85320  -0.85161  -0.84062  -0.83837  -0.83097
 Alpha  occ. eigenvalues --   -0.82954  -0.82122  -0.81645  -0.81261  -0.80172
 Alpha  occ. eigenvalues --   -0.79593  -0.78464  -0.77527  -0.77109  -0.76382
 Alpha  occ. eigenvalues --   -0.76170  -0.74365  -0.73817  -0.73220  -0.72439
 Alpha  occ. eigenvalues --   -0.71509  -0.71271  -0.70741  -0.70304  -0.69795
 Alpha  occ. eigenvalues --   -0.69611  -0.68837  -0.67557  -0.66979  -0.66508
 Alpha  occ. eigenvalues --   -0.65506  -0.64872  -0.63670  -0.62544  -0.62217
 Alpha  occ. eigenvalues --   -0.60713  -0.60525  -0.59789  -0.58808  -0.58634
 Alpha  occ. eigenvalues --   -0.58604  -0.58071  -0.57854  -0.57459  -0.57273
 Alpha  occ. eigenvalues --   -0.56826  -0.56320  -0.56057  -0.55290  -0.55125
 Alpha  occ. eigenvalues --   -0.54308  -0.53568  -0.52760  -0.52681  -0.52179
 Alpha  occ. eigenvalues --   -0.52020  -0.51718  -0.51665  -0.51368  -0.50744
 Alpha  occ. eigenvalues --   -0.50584  -0.50134  -0.49811  -0.49574  -0.49240
 Alpha  occ. eigenvalues --   -0.49044  -0.48966  -0.48576  -0.48358  -0.48174
 Alpha  occ. eigenvalues --   -0.48097  -0.47742  -0.47585  -0.47304  -0.47038
 Alpha  occ. eigenvalues --   -0.46731  -0.46658  -0.46613  -0.46258  -0.46211
 Alpha  occ. eigenvalues --   -0.45767  -0.45472  -0.45250  -0.44964  -0.44921
 Alpha  occ. eigenvalues --   -0.44489  -0.44413  -0.44278  -0.43932  -0.43436
 Alpha  occ. eigenvalues --   -0.43272  -0.43216  -0.43082  -0.42982  -0.42710
 Alpha  occ. eigenvalues --   -0.42301  -0.42125  -0.41959  -0.41885  -0.41846
 Alpha  occ. eigenvalues --   -0.41356  -0.41321  -0.41179  -0.41077  -0.41031
 Alpha  occ. eigenvalues --   -0.40817  -0.40569  -0.40531  -0.40509  -0.40021
 Alpha  occ. eigenvalues --   -0.39933  -0.39788  -0.39691  -0.39622  -0.39514
 Alpha  occ. eigenvalues --   -0.39253  -0.38978  -0.38975  -0.38891  -0.38454
 Alpha  occ. eigenvalues --   -0.38270  -0.37996  -0.37725  -0.37628  -0.37088
 Alpha  occ. eigenvalues --   -0.36520  -0.36222  -0.36035  -0.35709  -0.35667
 Alpha  occ. eigenvalues --   -0.35132  -0.35074  -0.34740  -0.34720  -0.34170
 Alpha  occ. eigenvalues --   -0.34111  -0.33722  -0.33332  -0.33269  -0.33124
 Alpha  occ. eigenvalues --   -0.32768  -0.32477  -0.31902  -0.31709  -0.31582
 Alpha  occ. eigenvalues --   -0.31359  -0.31060  -0.30417  -0.30094  -0.30061
 Alpha  occ. eigenvalues --   -0.29080  -0.28257  -0.27915  -0.27872  -0.27733
 Alpha  occ. eigenvalues --   -0.27447  -0.27298  -0.23379  -0.21566
 Alpha virt. eigenvalues --   -0.08316  -0.07052  -0.01776  -0.01328   0.00762
 Alpha virt. eigenvalues --    0.02570   0.02658   0.03664   0.04352   0.04811
 Alpha virt. eigenvalues --    0.05242   0.05499   0.06780   0.07248   0.08533

 Mulliken charges:
               1
     1  Mg   0.820355
     2  C    0.001517
     3  C   -0.183627
     4  C   -0.178388
     5  C   -0.157117
     6  N   -0.614590
     7  C    0.321173
     8  C   -0.161772
     9  C   -0.148691
    10  C    0.304284
    11  C   -0.293743
    12  C   -0.162273
    13  C   -0.259631
    14  C    0.595097
    15  O   -0.462733
    16  O   -0.485353
    17  N   -0.712714
    18  C    0.298444
    19  C    0.053899
    20  C   -0.002669
    21  C    0.330100
    22  C   -0.388259
    23  C    0.248581
    24  O   -0.397859
    25  N   -0.714557
    26  C    0.266306
    27  C   -0.025701
    28  C    0.031191
    29  C    0.314049
    30  C    0.226882
    31  C   -0.247334
    32  C   -0.288009
    33  N   -0.744344
    34  C    0.281275
    35  C   -0.038564
    36  C    0.059358
    37  C    0.325898
    38  C   -0.376611
    39  C    0.345583
    40  O   -0.428092
    41  C   -0.283509
    42  C    0.621125
    43  O   -0.488916
    44  O   -0.414476
    45  C   -0.078570
    46  C    0.003481
    47  C   -0.125642
    48  C    0.114582
    49  C   -0.380418
    50  C   -0.217128
    51  C   -0.157746
    52  C   -0.161312
    53  C   -0.058944
    54  C   -0.307011
    55  C   -0.138089
    56  C   -0.170346
    57  C   -0.171415
    58  C   -0.079003
    59  C   -0.317032
    60  C   -0.128382
    61  C   -0.180154
    62  C   -0.139930
    63  C   -0.077861
    64  C   -0.297528
    65  C   -0.310935
    66  H    0.094117
    67  H    0.142214
    68  H    0.105816
    69  H    0.091219
    70  H    0.121068
    71  H    0.119884
    72  H    0.119494
    73  H    0.128428
    74  H    0.081227
    75  H    0.124332
    76  H    0.135074
    77  H    0.119688
    78  H    0.103838
    79  H    0.152768
    80  H    0.110143
    81  H    0.084996
    82  H    0.097596
    83  H    0.119457
    84  H    0.131780
    85  H    0.080729
    86  H    0.088178
    87  H    0.123964
    88  H    0.139817
    89  H    0.128404
    90  H    0.182523
    91  H    0.121304
    92  H    0.137761
    93  H    0.090601
    94  H    0.140680
    95  H    0.117556
    96  H    0.136398
    97  H    0.103012
    98  H    0.078165
    99  H    0.090214
   100  H    0.090990
   101  H    0.080136
   102  H    0.093550
   103  H    0.049230
   104  H    0.103388
   105  H    0.068815
   106  H    0.099090
   107  H    0.094503
   108  H    0.083523
   109  H    0.077835
   110  H    0.094957
   111  H    0.084173
   112  H    0.086730
   113  H    0.065675
   114  H    0.096527
   115  H    0.116820
   116  H    0.117943
   117  H    0.086301
   118  H    0.076942
   119  H    0.089189
   120  H    0.072913
   121  H    0.056299
   122  H    0.049388
   123  H    0.089031
   124  H    0.086967
   125  H    0.093032
   126  H    0.120502
   127  H    0.101415
   128  H    0.100753
   129  H    0.103768
   130  H    0.139180
   131  H    0.131860
   132  H    0.105872
   133  O   -0.445753
   134  H    0.089817
 Sum of Mulliken charges =  -0.00000

 Dipole moment (field-independent basis, Debye):
    X=              3.0705    Y=             -4.4685    Z=             -1.5690  Tot=              5.6442
 Quadrupole moment (field-independent basis, Debye-Ang):
   XX=           -377.5328   YY=           -433.9697   ZZ=           -396.0366
   XY=              2.9097   XZ=             23.1804   YZ=            -31.4669

 Normal termination of Gaussian 16 at Thu Oct 10 04:31:49 2019.
