 Gaussian 16, Revision A.03,
 Gaussian 16:  ES64L-G16RevA.03 25-Dec-2016

 ----------------------------------------------------------------------
 # td=(NStates=1) iop(3/107=0140000000,3/108=0140000000) iop(3/107=0140
 000000,3/108=0140000000) CAM-B3LYP/6-31G(d,p)
 ----------------------------------------------------------------------

 --
 TD
 --
 Symbolic Z-matrix:
 Charge =  0 Multiplicity = 1

                         Standard orientation:
 ---------------------------------------------------------------------
 Center     Atomic      Atomic             Coordinates (Angstroms)
 Number     Number       Type             X           Y           Z
 ---------------------------------------------------------------------
      1         12           0       -5.541535    1.213271    0.181368
      2          6           0       -5.084570   -2.082009   -0.319576
      3          6           0       -3.195688    1.049228    2.790200
      4          6           0       -6.148710    4.513321    0.718295
      5          6           0       -7.966423    1.186517   -2.353888
      6          7           0       -4.295182   -0.267417    1.060672
      7          6           0       -4.263379   -1.603853    0.622875
      8          6           0       -3.123048   -2.298519    1.336321
      9          6           0       -2.835706   -1.341913    2.527062
     10          6           0       -3.492390   -0.035522    2.119210
     11          6           0       -3.341460   -1.805944    3.912433
     12          6           0       -1.955373   -2.788046    0.446700
     13          6           0       -0.964627   -3.694747    1.313886
     14          6           0        0.324187   -3.958736    0.500795
     15          8           0        0.497589   -3.630159   -0.623397
     16          8           0        1.110049   -4.776236    1.246802
     17          7           0       -4.982761    2.498252    1.581808
     18          6           0       -3.931899    2.282607    2.548105
     19          6           0       -3.670056    3.610821    3.162736
     20          6           0       -4.534461    4.589248    2.569112
     21          6           0       -5.305239    3.897334    1.604349
     22          6           0       -2.589741    3.696688    4.238163
     23          6           0       -4.581704    5.978347    2.857589
     24          8           0       -3.988010    6.529388    3.743188
     25          7           0       -6.806478    2.720543   -0.731792
     26          6           0       -6.903631    3.919544   -0.347206
     27          6           0       -7.879575    4.603443   -1.194396
     28          6           0       -8.434096    3.658394   -1.981491
     29          6           0       -7.746751    2.359454   -1.689305
     30          6           0       -8.279983    6.023847   -0.953151
     31          6           0       -9.557563    3.887493   -2.983221
     32          6           0       -8.822650    4.195220   -4.318094
     33          7           0       -6.361926   -0.122146   -1.149204
     34          6           0       -7.326144    0.009261   -2.122676
     35          6           0       -7.500620   -1.255579   -2.781757
     36          6           0       -6.678543   -2.162613   -2.184743
     37          6           0       -5.959525   -1.342487   -1.150264
     38          6           0       -8.648211   -1.570405   -3.722457
     39          6           0       -6.304068   -3.499970   -2.064919
     40          8           0       -6.584481   -4.478430   -2.672881
     41          6           0       -5.140038   -3.483415   -0.930446
     42          6           0       -5.350917   -4.663923    0.071008
     43          8           0       -5.677642   -4.471043    1.245226
     44          8           0       -5.096805   -5.852716   -0.472393
     45          6           0       -5.311875   -6.925815    0.393268
     46          6           0        2.350733   -5.050956    0.528095
     47          6           0        3.340248   -4.109908    1.023295
     48          6           0        4.048610   -3.328305    0.205332
     49          6           0        3.830040   -3.129157   -1.326015
     50          6           0        5.095971   -2.380750    0.830746
     51          6           0        6.514307   -2.853170    0.177842
     52          6           0        7.573524   -1.927468    0.700661
     53          6           0        8.961384   -1.943054    0.117845
     54          6           0        9.619270   -3.362917    0.201084
     55          6           0        9.956902   -0.888393    0.696500
     56          6           0       11.266820   -0.763547   -0.020374
     57          6           0       12.219016    0.357166    0.334115
     58          6           0       13.446389    0.559361   -0.534293
     59          6           0       14.449345   -0.670543   -0.435866
     60          6           0       14.123589    1.905250   -0.130370
     61          6           0       15.355330    2.152382   -0.992682
     62          6           0       15.928517    3.577426   -0.676385
     63          6           0       17.197964    3.914202   -1.535970
     64          6           0       17.020704    3.924919   -3.018106
     65          6           0       17.783153    5.267460   -1.106291
     66          1           0       -2.516526    1.025430    3.639111
     67          1           0       -6.481614    5.598119    0.811271
     68          1           0       -9.069087    1.183488   -3.095242
     69          1           0       -3.398734   -3.359891    1.752341
     70          1           0       -1.673941   -1.148572    2.615572
     71          1           0       -2.865522   -2.692598    4.189323
     72          1           0       -3.088021   -1.021741    4.623382
     73          1           0       -4.308635   -2.063529    3.880872
     74          1           0       -2.374978   -3.263430   -0.513955
     75          1           0       -1.541963   -1.933549    0.027132
     76          1           0       -0.849779   -3.151207    2.234573
     77          1           0       -1.528971   -4.613491    1.639751
     78          1           0       -1.658309    3.524576    3.791818
     79          1           0       -2.467606    4.785359    4.576911
     80          1           0       -2.837943    3.191030    5.106656
     81          1           0       -5.280475    6.500152    2.148825
     82          1           0      -10.155555    3.145336   -2.869254
     83          1           0      -10.117010    4.806371   -2.744652
     84          1           0       -9.605227    4.402467   -5.267194
     85          1           0       -8.350893    5.236154   -4.225015
     86          1           0       -8.051133    3.515501   -4.608961
     87          1           0       -8.561168   -1.026073   -4.678360
     88          1           0       -8.529025   -2.705355   -3.961210
     89          1           0       -9.411160   -1.437103   -3.242877
     90          1           0       -4.311206   -4.038176   -1.494256
     91          1           0        2.505638   -6.256619    0.580112
     92          1           0        2.153262   -4.923340   -0.609565
     93          1           0        3.531813   -4.318331    2.072965
     94          1           0        2.803223   -3.667619   -1.470771
     95          1           0        3.807288   -2.059103   -1.686683
     96          1           0        4.574600   -3.612988   -2.033809
     97          1           0        5.058884   -1.424921    0.602922
     98          1           0        5.317496   -2.518376    1.996088
     99          1           0        6.816351   -3.887711    0.363032
    100          1           0        6.580757   -2.711499   -0.792623
    101          1           0        7.214087   -1.017515    0.759353
    102          1           0        7.888967   -2.054831    1.725223
    103          1           0        8.847759   -1.612831   -0.929432
    104          1           0        8.861858   -4.253177    0.066941
    105          1           0       10.407624   -3.616837   -0.420589
    106          1           0       10.061207   -3.401418    1.443234
    107          1           0        9.381744    0.095423    0.449605
    108          1           0       10.059987   -0.913951    1.910852
    109          1           0       11.795252   -1.791099    0.209448
    110          1           0       10.956042   -0.354075   -1.091291
    111          1           0       11.715223    1.348026    0.253628
    112          1           0       12.641455    0.283120    1.447528
    113          1           0       13.114153    0.787121   -1.651804
    114          1           0       14.786049   -0.697878    0.517093
    115          1           0       13.865951   -1.524709   -0.786234
    116          1           0       15.065751   -0.574840   -1.069233
    117          1           0       13.500801    2.676006   -0.203364
    118          1           0       14.667235    2.015107    0.896809
    119          1           0       16.064360    1.137065   -0.894656
    120          1           0       15.203868    2.178084   -2.038445
    121          1           0       15.048652    4.175863   -1.130308
    122          1           0       16.104118    3.829940    0.212896
    123          1           0       18.087085    3.171423   -1.289937
    124          1           0       16.198375    4.636752   -3.133099
    125          1           0       17.833448    4.290830   -3.631170
    126          1           0       16.840729    2.870693   -3.309913
    127          1           0       17.522681    5.367218    0.095473
    128          1           0       18.836907    5.507601   -1.556965
    129          1           0       17.192527    6.109554   -1.415375
    130          1           0       -5.046497   -7.717052   -0.284694
    131          1           0       -6.286976   -6.726380    0.801406
    132          1           0       -4.526143   -6.990407    1.236815
    133          8           0       -7.858685    6.900581   -0.274233
    134          1           0       -9.076392    6.369828   -1.635398
 ---------------------------------------------------------------------

 SCF Done:  E(RCAM-B3LYP) =  -3043.39721039     A.U. after   15 cycles

 Excitation energies and oscillator strengths:

 Excited State   1:      Singlet-A      2.1437 eV  578.37 nm  f=0.2197  <S**2>=0.000
     243 -> 246       -0.23753
     244 -> 245        0.65160
 This state for optimization and/or second-order correction.
 Total Energy, E(TD-HF/TD-DFT) =  -3043.31843109
 Copying the excited state density for this state as the 1-particle RhoCI density.

 The electronic state is 1-A.
 Alpha  occ. eigenvalues --  -46.81728 -19.22990 -19.22413 -19.18121 -19.17891
 Alpha  occ. eigenvalues --  -19.16826 -19.16820 -19.16523 -14.38266 -14.37461
 Alpha  occ. eigenvalues --  -14.37269 -14.37084 -10.35312 -10.34630 -10.30718
 Alpha  occ. eigenvalues --  -10.30547 -10.29550 -10.28171 -10.27867 -10.27373
 Alpha  occ. eigenvalues --  -10.27102 -10.26811 -10.26799 -10.26536 -10.26527
 Alpha  occ. eigenvalues --  -10.26308 -10.25956 -10.25879 -10.25544 -10.25060
 Alpha  occ. eigenvalues --  -10.24742 -10.24741 -10.24392 -10.24242 -10.24241
 Alpha  occ. eigenvalues --  -10.24210 -10.23924 -10.23821 -10.23634 -10.23094
 Alpha  occ. eigenvalues --  -10.23040 -10.22825 -10.22813 -10.22795 -10.22529
 Alpha  occ. eigenvalues --  -10.22511 -10.22494 -10.22483 -10.22453 -10.22349
 Alpha  occ. eigenvalues --  -10.22116 -10.21927 -10.21925 -10.21639 -10.21494
 Alpha  occ. eigenvalues --  -10.21369 -10.21354 -10.21335 -10.21236 -10.20506
 Alpha  occ. eigenvalues --  -10.20456 -10.20229 -10.20124 -10.19788 -10.18704
 Alpha  occ. eigenvalues --  -10.17438  -3.10261  -1.85209  -1.84725  -1.84667
 Alpha  occ. eigenvalues --   -1.14778  -1.14235  -1.09228  -1.08540  -1.07404
 Alpha  occ. eigenvalues --   -1.06398  -1.04113  -1.02370  -1.01536  -0.99303
 Alpha  occ. eigenvalues --   -0.96645  -0.88477  -0.86250  -0.86005  -0.85398
 Alpha  occ. eigenvalues --   -0.85274  -0.84911  -0.84618  -0.84322  -0.84021
 Alpha  occ. eigenvalues --   -0.83391  -0.82293  -0.81459  -0.80816  -0.79743
 Alpha  occ. eigenvalues --   -0.78957  -0.78349  -0.78210  -0.77913  -0.76775
 Alpha  occ. eigenvalues --   -0.76347  -0.75386  -0.74009  -0.73201  -0.72431
 Alpha  occ. eigenvalues --   -0.72217  -0.71031  -0.70578  -0.70063  -0.69530
 Alpha  occ. eigenvalues --   -0.69243  -0.68937  -0.67681  -0.67190  -0.66589
 Alpha  occ. eigenvalues --   -0.66218  -0.65227  -0.65020  -0.63093  -0.62877
 Alpha  occ. eigenvalues --   -0.61130  -0.60802  -0.60499  -0.59210  -0.59165
 Alpha  occ. eigenvalues --   -0.58540  -0.58258  -0.57579  -0.57221  -0.56817
 Alpha  occ. eigenvalues --   -0.56538  -0.56431  -0.55772  -0.55425  -0.54658
 Alpha  occ. eigenvalues --   -0.53807  -0.53237  -0.52657  -0.52397  -0.52291
 Alpha  occ. eigenvalues --   -0.51995  -0.51883  -0.51763  -0.51378  -0.50892
 Alpha  occ. eigenvalues --   -0.50704  -0.50686  -0.50394  -0.49698  -0.49528
 Alpha  occ. eigenvalues --   -0.49477  -0.48922  -0.48585  -0.48425  -0.48283
 Alpha  occ. eigenvalues --   -0.48109  -0.48035  -0.47771  -0.47443  -0.47316
 Alpha  occ. eigenvalues --   -0.46935  -0.46886  -0.46706  -0.46444  -0.46302
 Alpha  occ. eigenvalues --   -0.45826  -0.45542  -0.45315  -0.45249  -0.45112
 Alpha  occ. eigenvalues --   -0.44710  -0.44528  -0.44456  -0.44232  -0.43996
 Alpha  occ. eigenvalues --   -0.43671  -0.43638  -0.43406  -0.43322  -0.42931
 Alpha  occ. eigenvalues --   -0.42748  -0.42595  -0.42451  -0.42090  -0.41976
 Alpha  occ. eigenvalues --   -0.41723  -0.41683  -0.41454  -0.41381  -0.41162
 Alpha  occ. eigenvalues --   -0.41022  -0.40881  -0.40649  -0.40196  -0.39989
 Alpha  occ. eigenvalues --   -0.39956  -0.39739  -0.39531  -0.39503  -0.39345
 Alpha  occ. eigenvalues --   -0.39220  -0.38958  -0.38775  -0.38383  -0.38354
 Alpha  occ. eigenvalues --   -0.37874  -0.37635  -0.37548  -0.37429  -0.36871
 Alpha  occ. eigenvalues --   -0.36771  -0.36739  -0.36411  -0.35842  -0.35413
 Alpha  occ. eigenvalues --   -0.35137  -0.35034  -0.34715  -0.34482  -0.33998
 Alpha  occ. eigenvalues --   -0.33628  -0.33523  -0.33449  -0.33142  -0.33065
 Alpha  occ. eigenvalues --   -0.32992  -0.32667  -0.32434  -0.32031  -0.31878
 Alpha  occ. eigenvalues --   -0.31727  -0.31254  -0.31144  -0.30666  -0.29855
 Alpha  occ. eigenvalues --   -0.29442  -0.28749  -0.27872  -0.27838  -0.27777
 Alpha  occ. eigenvalues --   -0.27577  -0.27494  -0.23563  -0.22222
 Alpha virt. eigenvalues --   -0.08835  -0.06170  -0.01394  -0.00232   0.00937
 Alpha virt. eigenvalues --    0.03106   0.03250   0.03581   0.03886   0.04480
 Alpha virt. eigenvalues --    0.04814   0.05745   0.06863   0.08558   0.08916

 Mulliken charges:
               1
     1  Mg   0.823195
     2  C    0.135870
     3  C   -0.180145
     4  C   -0.176234
     5  C   -0.173770
     6  N   -0.688037
     7  C    0.314734
     8  C   -0.154079
     9  C   -0.181354
    10  C    0.421169
    11  C   -0.299668
    12  C   -0.173299
    13  C   -0.283311
    14  C    0.624771
    15  O   -0.440823
    16  O   -0.458587
    17  N   -0.730490
    18  C    0.291787
    19  C   -0.003001
    20  C    0.022477
    21  C    0.315551
    22  C   -0.394384
    23  C    0.244558
    24  O   -0.415696
    25  N   -0.687346
    26  C    0.323225
    27  C   -0.023763
    28  C   -0.041595
    29  C    0.294174
    30  C    0.258678
    31  C   -0.204765
    32  C   -0.308374
    33  N   -0.724291
    34  C    0.287848
    35  C   -0.031732
    36  C    0.093202
    37  C    0.260153
    38  C   -0.356748
    39  C    0.335202
    40  O   -0.439272
    41  C   -0.366452
    42  C    0.606346
    43  O   -0.491969
    44  O   -0.418898
    45  C   -0.081854
    46  C   -0.054346
    47  C   -0.091544
    48  C    0.130810
    49  C   -0.373291
    50  C   -0.221299
    51  C   -0.188665
    52  C   -0.162761
    53  C   -0.056731
    54  C   -0.291726
    55  C   -0.169387
    56  C   -0.147640
    57  C   -0.154347
    58  C   -0.072755
    59  C   -0.285617
    60  C   -0.153450
    61  C   -0.181184
    62  C   -0.156675
    63  C   -0.047708
    64  C   -0.299088
    65  C   -0.304328
    66  H    0.100341
    67  H    0.143265
    68  H    0.094604
    69  H    0.106667
    70  H    0.087385
    71  H    0.112754
    72  H    0.105633
    73  H    0.139524
    74  H    0.107199
    75  H    0.120197
    76  H    0.138502
    77  H    0.135540
    78  H    0.135860
    79  H    0.144985
    80  H    0.138154
    81  H    0.067030
    82  H    0.111809
    83  H    0.115888
    84  H    0.076494
    85  H    0.114828
    86  H    0.128757
    87  H    0.123803
    88  H    0.132588
    89  H    0.141995
    90  H    0.153181
    91  H    0.096345
    92  H    0.125584
    93  H    0.099319
    94  H    0.132019
    95  H    0.117884
    96  H    0.119684
    97  H    0.113544
    98  H    0.090702
    99  H    0.101711
   100  H    0.108602
   101  H    0.089385
   102  H    0.083526
   103  H    0.074229
   104  H    0.082961
   105  H    0.122545
   106  H    0.049664
   107  H    0.067866
   108  H    0.065256
   109  H    0.092724
   110  H    0.079106
   111  H    0.079755
   112  H    0.064384
   113  H    0.059858
   114  H    0.111785
   115  H    0.093914
   116  H    0.108178
   117  H    0.095855
   118  H    0.077604
   119  H    0.058054
   120  H    0.097288
   121  H    0.080008
   122  H    0.093164
   123  H    0.068844
   124  H    0.097866
   125  H    0.103018
   126  H    0.100745
   127  H    0.064561
   128  H    0.093821
   129  H    0.102328
   130  H    0.130156
   131  H    0.141714
   132  H    0.106125
   133  O   -0.401831
   134  H    0.041894
 Sum of Mulliken charges =  -0.00000

 Dipole moment (field-independent basis, Debye):
    X=              1.6773    Y=             -3.6995    Z=             -1.8663  Tot=              4.4702
 Quadrupole moment (field-independent basis, Debye-Ang):
   XX=           -385.8808   YY=           -441.1209   ZZ=           -397.5662
   XY=              6.2240   XZ=             13.5040   YZ=            -31.6468

 Normal termination of Gaussian 16 at Wed Oct  9 12:17:22 2019.
