 Gaussian 16, Revision A.03,
 Gaussian 16:  ES64L-G16RevA.03 25-Dec-2016

 ----------------------------------------------------------------------
 # td=(NStates=1) iop(3/107=0140000000,3/108=0140000000) iop(3/107=0140
 000000,3/108=0140000000) CAM-B3LYP/6-31G(d,p)
 ----------------------------------------------------------------------

 --
 TD
 --
 Symbolic Z-matrix:
 Charge =  0 Multiplicity = 1

                         Standard orientation:
 ---------------------------------------------------------------------
 Center     Atomic      Atomic             Coordinates (Angstroms)
 Number     Number       Type             X           Y           Z
 ---------------------------------------------------------------------
      1         12           0       -5.533819    1.258585    0.234694
      2          6           0       -5.041832   -2.136897   -0.284191
      3          6           0       -3.468633    1.099928    2.812298
      4          6           0       -5.992991    4.617716    0.614359
      5          6           0       -8.027037    1.288709   -2.330476
      6          7           0       -4.369442   -0.316687    1.095085
      7          6           0       -4.283245   -1.556635    0.618605
      8          6           0       -3.250630   -2.322920    1.483480
      9          6           0       -2.975542   -1.359496    2.644891
     10          6           0       -3.627945   -0.056947    2.183079
     11          6           0       -3.532318   -1.990553    4.019715
     12          6           0       -2.040589   -2.637203    0.703208
     13          6           0       -1.143609   -3.561417    1.445113
     14          6           0        0.192771   -3.991611    0.563311
     15          8           0        0.460552   -3.466629   -0.530801
     16          8           0        0.988399   -4.805907    1.257608
     17          7           0       -4.851222    2.641119    1.496845
     18          6           0       -3.930086    2.307834    2.477157
     19          6           0       -3.704028    3.624763    3.201510
     20          6           0       -4.415199    4.646072    2.483328
     21          6           0       -5.111542    3.960041    1.474301
     22          6           0       -2.816526    3.693887    4.387650
     23          6           0       -4.411277    6.083337    2.978785
     24          8           0       -3.728705    6.464491    3.935034
     25          7           0       -6.778438    2.696297   -0.662449
     26          6           0       -6.854516    4.010452   -0.355039
     27          6           0       -7.843413    4.710617   -1.233307
     28          6           0       -8.366733    3.677854   -2.050127
     29          6           0       -7.666626    2.427587   -1.764277
     30          6           0       -8.084356    6.115260   -1.275461
     31          6           0       -9.281150    3.969299   -3.187115
     32          6           0       -8.550038    4.205264   -4.514318
     33          7           0       -6.392681   -0.046294   -1.108176
     34          6           0       -7.375267    0.011844   -2.115457
     35          6           0       -7.621234   -1.234204   -2.679020
     36          6           0       -6.743638   -2.159533   -1.993302
     37          6           0       -6.020472   -1.313499   -1.095567
     38          6           0       -8.671987   -1.694917   -3.760251
     39          6           0       -6.278893   -3.456895   -1.982433
     40          8           0       -6.644730   -4.430415   -2.681838
     41          6           0       -5.189869   -3.549210   -0.832967
     42          6           0       -5.433152   -4.677400    0.128213
     43          8           0       -5.817518   -4.482715    1.266148
     44          8           0       -5.074332   -5.875070   -0.454368
     45          6           0       -5.461198   -7.063225    0.312970
     46          6           0        2.277236   -5.133352    0.564973
     47          6           0        3.395531   -4.142080    0.885072
     48          6           0        3.936905   -3.271507    0.156930
     49          6           0        3.679952   -3.042886   -1.335625
     50          6           0        5.061002   -2.397772    0.625480
     51          6           0        6.459508   -2.627563   -0.016866
     52          6           0        7.601614   -1.781323    0.640329
     53          6           0        8.890253   -1.912454   -0.076459
     54          6           0        9.495062   -3.328287    0.050605
     55          6           0        9.917089   -0.904471    0.457607
     56          6           0       11.322358   -0.981462   -0.224874
     57          6           0       12.168457    0.285723    0.098817
     58          6           0       13.456446    0.413763   -0.569799
     59          6           0       14.465918   -0.775965   -0.299868
     60          6           0       14.274985    1.745364   -0.176574
     61          6           0       15.387003    2.139134   -1.224354
     62          6           0       15.998798    3.466833   -0.586512
     63          6           0       17.317875    3.855329   -1.302016
     64          6           0       17.187013    3.905856   -2.725123
     65          6           0       18.041985    5.086815   -0.672555
     66          1           0       -2.704257    1.170057    3.730001
     67          1           0       -6.004642    5.671584    0.711922
     68          1           0       -8.792260    1.259493   -3.111042
     69          1           0       -3.753565   -3.126153    1.897042
     70          1           0       -1.929977   -1.446045    2.965581
     71          1           0       -3.314173   -3.016647    4.280537
     72          1           0       -3.276827   -1.408400    4.900334
     73          1           0       -4.535517   -2.259665    3.793724
     74          1           0       -2.329724   -3.233966   -0.186664
     75          1           0       -1.551311   -1.740152    0.278443
     76          1           0       -0.817829   -3.236847    2.323598
     77          1           0       -1.472072   -4.718658    1.449879
     78          1           0       -1.818820    3.632766    4.123969
     79          1           0       -2.857225    4.836563    4.777018
     80          1           0       -3.275052    3.169085    5.122697
     81          1           0       -5.182357    6.755526    2.530228
     82          1           0       -9.890517    3.218408   -3.338986
     83          1           0       -9.829736    4.797871   -2.759226
     84          1           0       -9.417122    4.418295   -5.158673
     85          1           0       -7.992851    4.998480   -4.345418
     86          1           0       -7.820751    3.418699   -4.811672
     87          1           0       -8.443310   -0.931047   -4.525828
     88          1           0       -8.326998   -2.609995   -4.149101
     89          1           0       -9.822320   -1.545839   -3.315249
     90          1           0       -4.306153   -3.695303   -1.353494
     91          1           0        2.682876   -6.245681    0.739730
     92          1           0        2.108766   -4.977481   -0.520060
     93          1           0        3.913947   -4.167677    1.993816
     94          1           0        2.822997   -3.563424   -1.449677
     95          1           0        3.639031   -2.205707   -1.877874
     96          1           0        4.602801   -3.421409   -1.943862
     97          1           0        4.698633   -1.484957    0.503998
     98          1           0        5.114917   -2.777580    1.597385
     99          1           0        6.739372   -3.804031    0.062413
    100          1           0        6.135486   -2.508742   -1.013900
    101          1           0        7.241576   -0.677906    0.575394
    102          1           0        7.937676   -1.992588    1.595923
    103          1           0        8.649914   -1.650760   -1.191230
    104          1           0        8.754597   -3.898103   -0.331299
    105          1           0       10.352639   -3.581334   -0.466953
    106          1           0        9.835997   -3.825192    1.041561
    107          1           0        9.481563    0.106076    0.290803
    108          1           0       10.051606   -1.225024    1.574871
    109          1           0       11.770415   -1.952100   -0.031556
    110          1           0       10.955741   -0.762006   -1.420335
    111          1           0       11.564190    1.329116   -0.173420
    112          1           0       12.205833    0.418340    1.301652
    113          1           0       13.129703    0.340710   -1.620222
    114          1           0       14.904609   -0.996492    0.707511
    115          1           0       14.128211   -1.793887   -0.498828
    116          1           0       15.315837   -0.607623   -0.930718
    117          1           0       13.653033    2.645910   -0.171988
    118          1           0       14.668845    1.732689    0.757672
    119          1           0       16.105994    1.262749   -1.312467
    120          1           0       15.062612    2.309469   -2.194491
    121          1           0       15.262007    4.157234   -0.801530
    122          1           0       15.970458    3.333810    0.456580
    123          1           0       18.091169    3.076562   -1.011674
    124          1           0       16.732937    4.739215   -3.231462
    125          1           0       18.065848    4.171443   -3.133416
    126          1           0       17.102359    3.019514   -3.211848
    127          1           0       18.134642    4.765867    0.517453
    128          1           0       19.031163    5.205831   -1.078351
    129          1           0       17.575383    6.061879   -0.750200
    130          1           0       -4.999308   -7.936295   -0.049165
    131          1           0       -6.493541   -7.245712    0.235245
    132          1           0       -5.266216   -6.779051    1.537635
    133          8           0       -7.691008    6.963818   -0.448616
    134          1           0       -8.637067    6.436012   -2.300646
 ---------------------------------------------------------------------

 SCF Done:  E(RCAM-B3LYP) =  -3043.42192159     A.U. after   15 cycles

 Excitation energies and oscillator strengths:

 Excited State   1:      Singlet-A      2.1921 eV  565.60 nm  f=0.2018  <S**2>=0.000
     243 -> 245        0.22324
     243 -> 246        0.23001
     244 -> 245        0.61343
 This state for optimization and/or second-order correction.
 Total Energy, E(TD-HF/TD-DFT) =  -3043.34136402
 Copying the excited state density for this state as the 1-particle RhoCI density.

 The electronic state is 1-A.
 Alpha  occ. eigenvalues --  -46.81664 -19.23698 -19.22853 -19.18265 -19.17710
 Alpha  occ. eigenvalues --  -19.17451 -19.16988 -19.15241 -14.38871 -14.37595
 Alpha  occ. eigenvalues --  -14.36838 -14.36659 -10.35498 -10.35413 -10.31977
 Alpha  occ. eigenvalues --  -10.31330 -10.29845 -10.29557 -10.28143 -10.27785
 Alpha  occ. eigenvalues --  -10.27741 -10.27360 -10.26842 -10.26327 -10.25901
 Alpha  occ. eigenvalues --  -10.25777 -10.25716 -10.25622 -10.25597 -10.25256
 Alpha  occ. eigenvalues --  -10.24758 -10.24021 -10.24020 -10.23963 -10.23928
 Alpha  occ. eigenvalues --  -10.23713 -10.23712 -10.23521 -10.23462 -10.23359
 Alpha  occ. eigenvalues --  -10.22614 -10.22396 -10.22342 -10.22322 -10.22296
 Alpha  occ. eigenvalues --  -10.22126 -10.21902 -10.21902 -10.21866 -10.21835
 Alpha  occ. eigenvalues --  -10.21766 -10.21544 -10.21466 -10.21273 -10.21245
 Alpha  occ. eigenvalues --  -10.20840 -10.20804 -10.20773 -10.20199 -10.20084
 Alpha  occ. eigenvalues --  -10.19681 -10.19611 -10.19323 -10.19286 -10.19130
 Alpha  occ. eigenvalues --  -10.17429  -3.10219  -1.85167  -1.84667  -1.84643
 Alpha  occ. eigenvalues --   -1.12971  -1.12206  -1.06815  -1.05284  -1.04888
 Alpha  occ. eigenvalues --   -1.03590  -1.03419  -1.01589  -1.00082  -0.99804
 Alpha  occ. eigenvalues --   -0.98267  -0.88521  -0.87279  -0.86797  -0.86394
 Alpha  occ. eigenvalues --   -0.85803  -0.85415  -0.84744  -0.84244  -0.83196
 Alpha  occ. eigenvalues --   -0.82973  -0.82814  -0.81144  -0.80300  -0.79537
 Alpha  occ. eigenvalues --   -0.79526  -0.78568  -0.78071  -0.77528  -0.76332
 Alpha  occ. eigenvalues --   -0.75600  -0.74928  -0.73804  -0.73259  -0.72776
 Alpha  occ. eigenvalues --   -0.72529  -0.72241  -0.71155  -0.70380  -0.70201
 Alpha  occ. eigenvalues --   -0.69944  -0.69276  -0.67838  -0.67440  -0.66619
 Alpha  occ. eigenvalues --   -0.66250  -0.65166  -0.64460  -0.62963  -0.62467
 Alpha  occ. eigenvalues --   -0.62252  -0.61358  -0.61260  -0.59477  -0.59390
 Alpha  occ. eigenvalues --   -0.59043  -0.58240  -0.57545  -0.57486  -0.57055
 Alpha  occ. eigenvalues --   -0.56566  -0.56129  -0.55486  -0.55053  -0.54848
 Alpha  occ. eigenvalues --   -0.54092  -0.54039  -0.53334  -0.52347  -0.51964
 Alpha  occ. eigenvalues --   -0.51649  -0.51296  -0.51205  -0.51075  -0.50723
 Alpha  occ. eigenvalues --   -0.50574  -0.50361  -0.50051  -0.49810  -0.49460
 Alpha  occ. eigenvalues --   -0.49091  -0.49011  -0.48552  -0.48436  -0.47906
 Alpha  occ. eigenvalues --   -0.47379  -0.47290  -0.47176  -0.47145  -0.47076
 Alpha  occ. eigenvalues --   -0.46931  -0.46601  -0.46486  -0.46196  -0.45904
 Alpha  occ. eigenvalues --   -0.45709  -0.45621  -0.45431  -0.45356  -0.44869
 Alpha  occ. eigenvalues --   -0.44736  -0.44584  -0.44341  -0.43955  -0.43770
 Alpha  occ. eigenvalues --   -0.43710  -0.43384  -0.43325  -0.43025  -0.42896
 Alpha  occ. eigenvalues --   -0.42823  -0.42674  -0.42539  -0.42281  -0.41967
 Alpha  occ. eigenvalues --   -0.41892  -0.41752  -0.41400  -0.41127  -0.41023
 Alpha  occ. eigenvalues --   -0.40824  -0.40794  -0.40577  -0.40278  -0.40071
 Alpha  occ. eigenvalues --   -0.39722  -0.39384  -0.39276  -0.39064  -0.38965
 Alpha  occ. eigenvalues --   -0.38741  -0.38591  -0.38379  -0.38101  -0.38075
 Alpha  occ. eigenvalues --   -0.37902  -0.37776  -0.37526  -0.37121  -0.36894
 Alpha  occ. eigenvalues --   -0.36689  -0.36536  -0.36333  -0.35951  -0.35687
 Alpha  occ. eigenvalues --   -0.35515  -0.35055  -0.34830  -0.34808  -0.34259
 Alpha  occ. eigenvalues --   -0.34003  -0.33525  -0.33209  -0.33092  -0.32944
 Alpha  occ. eigenvalues --   -0.32852  -0.32648  -0.32470  -0.31719  -0.31379
 Alpha  occ. eigenvalues --   -0.31205  -0.31182  -0.30203  -0.29855  -0.29704
 Alpha  occ. eigenvalues --   -0.28749  -0.28307  -0.28267  -0.28253  -0.27997
 Alpha  occ. eigenvalues --   -0.27259  -0.26749  -0.23232  -0.22681
 Alpha virt. eigenvalues --   -0.09189  -0.06629  -0.01942  -0.01261   0.00540
 Alpha virt. eigenvalues --    0.03065   0.03533   0.03821   0.04114   0.04826
 Alpha virt. eigenvalues --    0.05272   0.05983   0.08400   0.08863   0.09760

 Mulliken charges:
               1
     1  Mg   0.816641
     2  C    0.106272
     3  C   -0.194552
     4  C   -0.167790
     5  C   -0.151815
     6  N   -0.667792
     7  C    0.277797
     8  C   -0.157508
     9  C   -0.164036
    10  C    0.402574
    11  C   -0.348432
    12  C   -0.155299
    13  C   -0.247468
    14  C    0.565650
    15  O   -0.479056
    16  O   -0.443715
    17  N   -0.763574
    18  C    0.348483
    19  C    0.008323
    20  C   -0.045062
    21  C    0.363234
    22  C   -0.407148
    23  C    0.261236
    24  O   -0.412688
    25  N   -0.684585
    26  C    0.316472
    27  C    0.022362
    28  C   -0.014493
    29  C    0.312232
    30  C    0.218196
    31  C   -0.239348
    32  C   -0.303568
    33  N   -0.715675
    34  C    0.237789
    35  C   -0.012695
    36  C    0.079513
    37  C    0.290089
    38  C   -0.347886
    39  C    0.293954
    40  O   -0.499769
    41  C   -0.308216
    42  C    0.643310
    43  O   -0.468564
    44  O   -0.455860
    45  C   -0.093654
    46  C   -0.031619
    47  C   -0.140597
    48  C    0.150358
    49  C   -0.364845
    50  C   -0.208811
    51  C   -0.183548
    52  C   -0.137253
    53  C   -0.064937
    54  C   -0.325915
    55  C   -0.153575
    56  C   -0.158996
    57  C   -0.147945
    58  C   -0.034791
    59  C   -0.332721
    60  C   -0.187927
    61  C   -0.193154
    62  C   -0.170390
    63  C   -0.045909
    64  C   -0.314069
    65  C   -0.313959
    66  H    0.098684
    67  H    0.114896
    68  H    0.101272
    69  H    0.124359
    70  H    0.108626
    71  H    0.120123
    72  H    0.112337
    73  H    0.130478
    74  H    0.109096
    75  H    0.123830
    76  H    0.136759
    77  H    0.120335
    78  H    0.143190
    79  H    0.154563
    80  H    0.136155
    81  H    0.099541
    82  H    0.116423
    83  H    0.115577
    84  H    0.117695
    85  H    0.129255
    86  H    0.116421
    87  H    0.117363
    88  H    0.160923
    89  H    0.114730
    90  H    0.170358
    91  H    0.120292
    92  H    0.142638
    93  H    0.060918
    94  H    0.129940
    95  H    0.127710
    96  H    0.092860
    97  H    0.114760
    98  H    0.085769
    99  H    0.076571
   100  H    0.100034
   101  H    0.078064
   102  H    0.103202
   103  H    0.067594
   104  H    0.108753
   105  H    0.113608
   106  H    0.083813
   107  H    0.084078
   108  H    0.070325
   109  H    0.106341
   110  H    0.054449
   111  H    0.058778
   112  H    0.058720
   113  H    0.086645
   114  H    0.094870
   115  H    0.092951
   116  H    0.106047
   117  H    0.082881
   118  H    0.108362
   119  H    0.079458
   120  H    0.109213
   121  H    0.102382
   122  H    0.089209
   123  H    0.080653
   124  H    0.097982
   125  H    0.103176
   126  H    0.111907
   127  H    0.069173
   128  H    0.103989
   129  H    0.101738
   130  H    0.133838
   131  H    0.144178
   132  H    0.109605
   133  O   -0.441781
   134  H    0.048050
 Sum of Mulliken charges =  -0.00000

 Dipole moment (field-independent basis, Debye):
    X=              2.2581    Y=             -2.8400    Z=             -1.0596  Tot=              3.7798
 Quadrupole moment (field-independent basis, Debye-Ang):
   XX=           -373.7226   YY=           -429.4338   ZZ=           -393.0194
   XY=             -1.8350   XZ=             10.1747   YZ=            -36.4827

 Normal termination of Gaussian 16 at Tue Oct  8 03:32:01 2019.
