 Gaussian 16, Revision A.03,
 Gaussian 16:  ES64L-G16RevA.03 25-Dec-2016

 ----------------------------------------------------------------------
 # td=(NStates=1) iop(3/107=0140000000,3/108=0140000000) iop(3/107=0140
 000000,3/108=0140000000) CAM-B3LYP/6-31G(d,p)
 ----------------------------------------------------------------------

 --
 TD
 --
 Symbolic Z-matrix:
 Charge =  0 Multiplicity = 1

                         Standard orientation:
 ---------------------------------------------------------------------
 Center     Atomic      Atomic             Coordinates (Angstroms)
 Number     Number       Type             X           Y           Z
 ---------------------------------------------------------------------
      1         12           0       -5.614496    1.244574    0.112124
      2          6           0       -4.944938   -2.103061   -0.527334
      3          6           0       -3.456037    1.204499    2.823989
      4          6           0       -6.222084    4.584725    0.790819
      5          6           0       -7.964963    1.137398   -2.409331
      6          7           0       -4.350736   -0.316573    1.013790
      7          6           0       -4.223222   -1.633014    0.675754
      8          6           0       -3.230574   -2.424903    1.600617
      9          6           0       -2.971178   -1.353742    2.688314
     10          6           0       -3.588991    0.010463    2.124788
     11          6           0       -3.441343   -1.778851    4.061345
     12          6           0       -1.914536   -2.714014    0.724720
     13          6           0       -0.949183   -3.551708    1.503304
     14          6           0        0.272881   -3.983155    0.679292
     15          8           0        0.587794   -3.630274   -0.432646
     16          8           0        0.988273   -4.752903    1.352227
     17          7           0       -4.926072    2.582619    1.501149
     18          6           0       -4.019346    2.427017    2.492700
     19          6           0       -3.788013    3.692247    3.276626
     20          6           0       -4.512124    4.614659    2.670239
     21          6           0       -5.286924    3.955965    1.545621
     22          6           0       -2.837686    3.786496    4.411467
     23          6           0       -4.585035    6.068569    2.970526
     24          8           0       -4.004569    6.660796    3.850481
     25          7           0       -6.889829    2.663168   -0.761571
     26          6           0       -6.943344    3.965040   -0.279016
     27          6           0       -7.936797    4.641634   -1.153725
     28          6           0       -8.378503    3.683600   -2.053118
     29          6           0       -7.752000    2.444964   -1.720705
     30          6           0       -8.315450    6.015592   -1.167131
     31          6           0       -9.351974    3.888386   -3.278198
     32          6           0       -8.613146    4.111087   -4.535213
     33          7           0       -6.291311   -0.112445   -1.190924
     34          6           0       -7.307112   -0.058854   -2.174840
     35          6           0       -7.481589   -1.253926   -2.856602
     36          6           0       -6.583323   -2.220481   -2.262108
     37          6           0       -5.863893   -1.480706   -1.242044
     38          6           0       -8.333058   -1.668407   -3.820982
     39          6           0       -6.209141   -3.540319   -2.122920
     40          8           0       -6.616815   -4.595604   -2.660498
     41          6           0       -5.087586   -3.614649   -0.956629
     42          6           0       -5.317495   -4.679421    0.081415
     43          8           0       -5.874363   -4.482877    1.176706
     44          8           0       -4.907579   -5.866092   -0.323685
     45          6           0       -5.053397   -6.863174    0.666017
     46          6           0        2.323247   -5.222746    0.729694
     47          6           0        3.343361   -4.185505    0.984889
     48          6           0        4.065644   -3.376950    0.156279
     49          6           0        3.617929   -3.155405   -1.306314
     50          6           0        5.142941   -2.407768    0.733142
     51          6           0        6.449351   -2.769545    0.064066
     52          6           0        7.562797   -1.772881    0.536163
     53          6           0        8.909643   -2.071757   -0.123102
     54          6           0        9.529007   -3.331384    0.245822
     55          6           0        9.896836   -0.801439    0.303370
     56          6           0       11.312734   -0.850114   -0.333141
     57          6           0       12.163758    0.365715    0.025402
     58          6           0       13.473560    0.450631   -0.775614
     59          6           0       14.399759   -0.760382   -0.397840
     60          6           0       14.184430    1.739381   -0.209203
     61          6           0       15.336735    2.227066   -1.020210
     62          6           0       16.031893    3.578404   -0.558343
     63          6           0       17.247146    3.969352   -1.277354
     64          6           0       16.891851    4.101276   -2.772274
     65          6           0       17.878750    5.298601   -0.774162
     66          1           0       -2.840864    1.189150    3.654917
     67          1           0       -6.570798    5.695233    0.646406
     68          1           0       -8.609892    1.045166   -3.415177
     69          1           0       -3.645598   -3.345011    1.619915
     70          1           0       -1.734051   -1.286814    2.818899
     71          1           0       -2.529082   -2.502497    4.577222
     72          1           0       -3.432140   -0.985737    4.644031
     73          1           0       -4.328952   -2.344135    4.005831
     74          1           0       -2.169012   -3.190965   -0.068402
     75          1           0       -1.446130   -1.899506    0.428316
     76          1           0       -0.541868   -2.994579    2.464381
     77          1           0       -1.361731   -4.735744    1.766966
     78          1           0       -1.873377    3.544039    3.868958
     79          1           0       -3.066287    4.859087    4.885220
     80          1           0       -3.055347    3.082263    5.256624
     81          1           0       -5.196099    6.616081    2.428059
     82          1           0       -9.950404    3.075130   -3.493299
     83          1           0      -10.115588    4.668148   -3.149447
     84          1           0       -9.214879    4.551405   -5.442614
     85          1           0       -8.064107    4.997654   -4.345766
     86          1           0       -7.916408    3.275049   -4.679074
     87          1           0       -7.826440   -1.145739   -4.921727
     88          1           0       -8.321275   -2.696545   -4.079156
     89          1           0       -9.429607   -1.327584   -3.674594
     90          1           0       -4.093934   -3.847118   -1.586348
     91          1           0        2.224237   -6.164732    1.058091
     92          1           0        2.145119   -5.402710   -0.247879
     93          1           0        3.985575   -4.310812    2.021033
     94          1           0        2.690457   -3.512244   -1.551856
     95          1           0        3.688797   -2.000907   -1.539894
     96          1           0        4.106837   -3.760029   -2.064876
     97          1           0        5.062240   -1.368766    0.460038
     98          1           0        5.220165   -2.459715    1.750191
     99          1           0        6.663697   -3.753736    0.124500
    100          1           0        6.574897   -2.600101   -1.091602
    101          1           0        7.032293   -0.825444    0.459553
    102          1           0        7.604945   -1.726262    1.586638
    103          1           0        8.832252   -1.879277   -1.210947
    104          1           0        8.899981   -4.296256    0.084087
    105          1           0       10.425669   -3.400674   -0.393146
    106          1           0        9.899197   -3.388203    1.335100
    107          1           0        9.364550    0.075860   -0.005100
    108          1           0        9.965599   -0.945463    1.371617
    109          1           0       11.816298   -1.839189   -0.063580
    110          1           0       11.088387   -0.983735   -1.449847
    111          1           0       11.418143    1.189445   -0.128824
    112          1           0       12.561335    0.244001    1.018874
    113          1           0       13.094064    0.496846   -1.876287
    114          1           0       14.667267   -0.719978    0.701568
    115          1           0       14.150166   -1.696063   -0.690962
    116          1           0       15.495150   -0.398418   -0.795171
    117          1           0       13.487812    2.606982   -0.323871
    118          1           0       14.395145    1.660880    0.875441
    119          1           0       16.146193    1.490263   -1.064852
    120          1           0       15.065160    2.498246   -1.985120
    121          1           0       15.268832    4.329023   -0.732928
    122          1           0       16.269585    3.400192    0.597430
    123          1           0       18.031229    3.289052   -1.028547
    124          1           0       15.906313    4.718303   -2.803614
    125          1           0       17.700945    4.712721   -3.405004
    126          1           0       16.756423    3.225563   -3.209262
    127          1           0       17.977745    5.127369    0.326092
    128          1           0       18.830046    5.423757   -1.067753
    129          1           0       17.240891    6.018780   -0.930306
    130          1           0       -4.464470   -7.812870    0.531143
    131          1           0       -6.059838   -7.216735    0.880183
    132          1           0       -4.623622   -6.610195    1.659600
    133          8           0       -7.811733    6.821750   -0.394548
    134          1           0       -9.001891    6.371122   -1.970557
 ---------------------------------------------------------------------

 SCF Done:  E(RCAM-B3LYP) =  -3043.42058883     A.U. after   16 cycles

 Excitation energies and oscillator strengths:

 Excited State   1:      Singlet-A      2.0250 eV  612.26 nm  f=0.1301  <S**2>=0.000
     243 -> 246       -0.31927
     244 -> 245        0.62227
 This state for optimization and/or second-order correction.
 Total Energy, E(TD-HF/TD-DFT) =  -3043.34617080
 Copying the excited state density for this state as the 1-particle RhoCI density.

 The electronic state is 1-A.
 Alpha  occ. eigenvalues --  -46.81925 -19.24270 -19.21317 -19.17347 -19.17058
 Alpha  occ. eigenvalues --  -19.16818 -19.16009 -19.14640 -14.39523 -14.38153
 Alpha  occ. eigenvalues --  -14.36887 -14.36103 -10.35531 -10.32961 -10.30865
 Alpha  occ. eigenvalues --  -10.30112 -10.29346 -10.29120 -10.28647 -10.27498
 Alpha  occ. eigenvalues --  -10.27287 -10.27066 -10.27058 -10.26465 -10.26414
 Alpha  occ. eigenvalues --  -10.26156 -10.26133 -10.26079 -10.25691 -10.25635
 Alpha  occ. eigenvalues --  -10.25563 -10.25326 -10.25030 -10.24454 -10.24350
 Alpha  occ. eigenvalues --  -10.24133 -10.24128 -10.23846 -10.23838 -10.23558
 Alpha  occ. eigenvalues --  -10.23340 -10.23209 -10.22820 -10.22802 -10.22580
 Alpha  occ. eigenvalues --  -10.22368 -10.22332 -10.22079 -10.22066 -10.21663
 Alpha  occ. eigenvalues --  -10.21457 -10.21375 -10.21313 -10.21243 -10.21007
 Alpha  occ. eigenvalues --  -10.20832 -10.20802 -10.20771 -10.20652 -10.20652
 Alpha  occ. eigenvalues --  -10.20601 -10.20539 -10.20460 -10.20329 -10.19661
 Alpha  occ. eigenvalues --  -10.17859  -3.10372  -1.85317  -1.84828  -1.84789
 Alpha  occ. eigenvalues --   -1.15391  -1.15041  -1.07550  -1.06798  -1.04313
 Alpha  occ. eigenvalues --   -1.03819  -1.03015  -1.00357  -0.99594  -0.98851
 Alpha  occ. eigenvalues --   -0.97640  -0.88386  -0.86321  -0.85878  -0.85625
 Alpha  occ. eigenvalues --   -0.85494  -0.84998  -0.84565  -0.84512  -0.84239
 Alpha  occ. eigenvalues --   -0.83621  -0.82800  -0.81799  -0.80790  -0.79766
 Alpha  occ. eigenvalues --   -0.79372  -0.79026  -0.77919  -0.77521  -0.77091
 Alpha  occ. eigenvalues --   -0.75473  -0.75413  -0.74342  -0.72815  -0.71958
 Alpha  occ. eigenvalues --   -0.71915  -0.71824  -0.70413  -0.70071  -0.69527
 Alpha  occ. eigenvalues --   -0.69419  -0.69055  -0.68074  -0.67375  -0.67009
 Alpha  occ. eigenvalues --   -0.65330  -0.65046  -0.64478  -0.63141  -0.62679
 Alpha  occ. eigenvalues --   -0.62344  -0.61437  -0.60923  -0.59090  -0.58886
 Alpha  occ. eigenvalues --   -0.58661  -0.58429  -0.58264  -0.58041  -0.57693
 Alpha  occ. eigenvalues --   -0.57124  -0.56336  -0.55685  -0.55268  -0.54299
 Alpha  occ. eigenvalues --   -0.53994  -0.52954  -0.52781  -0.52525  -0.52359
 Alpha  occ. eigenvalues --   -0.51936  -0.51836  -0.51532  -0.51405  -0.51223
 Alpha  occ. eigenvalues --   -0.50839  -0.50502  -0.50093  -0.49787  -0.49609
 Alpha  occ. eigenvalues --   -0.49109  -0.48945  -0.48644  -0.48270  -0.48161
 Alpha  occ. eigenvalues --   -0.47901  -0.47666  -0.47266  -0.47148  -0.47025
 Alpha  occ. eigenvalues --   -0.46936  -0.46845  -0.46611  -0.46113  -0.45967
 Alpha  occ. eigenvalues --   -0.45894  -0.45613  -0.45317  -0.44861  -0.44783
 Alpha  occ. eigenvalues --   -0.44570  -0.44441  -0.44032  -0.43827  -0.43657
 Alpha  occ. eigenvalues --   -0.43422  -0.43250  -0.43089  -0.42815  -0.42551
 Alpha  occ. eigenvalues --   -0.42416  -0.42260  -0.42122  -0.41974  -0.41945
 Alpha  occ. eigenvalues --   -0.41670  -0.41495  -0.41272  -0.41154  -0.40876
 Alpha  occ. eigenvalues --   -0.40568  -0.40440  -0.40219  -0.40079  -0.39922
 Alpha  occ. eigenvalues --   -0.39869  -0.39407  -0.39278  -0.39213  -0.38904
 Alpha  occ. eigenvalues --   -0.38761  -0.38617  -0.38469  -0.38092  -0.37997
 Alpha  occ. eigenvalues --   -0.37851  -0.37774  -0.37308  -0.37170  -0.37081
 Alpha  occ. eigenvalues --   -0.36834  -0.36522  -0.36291  -0.35969  -0.35695
 Alpha  occ. eigenvalues --   -0.35564  -0.35310  -0.35199  -0.34920  -0.34767
 Alpha  occ. eigenvalues --   -0.34675  -0.33989  -0.33882  -0.33801  -0.33607
 Alpha  occ. eigenvalues --   -0.33449  -0.32721  -0.32227  -0.32036  -0.31798
 Alpha  occ. eigenvalues --   -0.31271  -0.30513  -0.30141  -0.29916  -0.29117
 Alpha  occ. eigenvalues --   -0.28958  -0.28305  -0.28137  -0.27809  -0.27569
 Alpha  occ. eigenvalues --   -0.27298  -0.27127  -0.23120  -0.21524
 Alpha virt. eigenvalues --   -0.08245  -0.07146  -0.02789  -0.01061   0.00782
 Alpha virt. eigenvalues --    0.01402   0.02161   0.03638   0.04306   0.04471
 Alpha virt. eigenvalues --    0.05785   0.06012   0.07336   0.07930   0.09020

 Mulliken charges:
               1
     1  Mg   0.831637
     2  C    0.017337
     3  C   -0.177125
     4  C   -0.167765
     5  C   -0.186595
     6  N   -0.617967
     7  C    0.289705
     8  C   -0.107718
     9  C   -0.146898
    10  C    0.334045
    11  C   -0.278208
    12  C   -0.148285
    13  C   -0.257941
    14  C    0.580239
    15  O   -0.501304
    16  O   -0.440339
    17  N   -0.695360
    18  C    0.321595
    19  C    0.051215
    20  C   -0.033930
    21  C    0.284510
    22  C   -0.386452
    23  C    0.279681
    24  O   -0.413224
    25  N   -0.701887
    26  C    0.265833
    27  C   -0.036915
    28  C    0.002351
    29  C    0.305077
    30  C    0.240436
    31  C   -0.239694
    32  C   -0.307056
    33  N   -0.739036
    34  C    0.336619
    35  C    0.119831
    36  C    0.090974
    37  C    0.267108
    38  C   -0.418132
    39  C    0.307164
    40  O   -0.491900
    41  C   -0.311325
    42  C    0.629887
    43  O   -0.500165
    44  O   -0.398915
    45  C   -0.104297
    46  C    0.004974
    47  C   -0.130147
    48  C    0.132243
    49  C   -0.369937
    50  C   -0.219024
    51  C   -0.182115
    52  C   -0.174452
    53  C   -0.067445
    54  C   -0.296613
    55  C   -0.182079
    56  C   -0.194302
    57  C   -0.138459
    58  C   -0.059485
    59  C   -0.307199
    60  C   -0.168514
    61  C   -0.183189
    62  C   -0.166711
    63  C   -0.054766
    64  C   -0.305858
    65  C   -0.299141
    66  H    0.079781
    67  H    0.168069
    68  H    0.095234
    69  H    0.113119
    70  H    0.080217
    71  H    0.069447
    72  H    0.119171
    73  H    0.139502
    74  H    0.117047
    75  H    0.127615
    76  H    0.120823
    77  H    0.092509
    78  H    0.131990
    79  H    0.154972
    80  H    0.123738
    81  H    0.084283
    82  H    0.115990
    83  H    0.103197
    84  H    0.096198
    85  H    0.115116
    86  H    0.111500
    87  H    0.090073
    88  H    0.169906
    89  H    0.125653
    90  H    0.141588
    91  H    0.129711
    92  H    0.135307
    93  H    0.055650
    94  H    0.159863
    95  H    0.099570
    96  H    0.112598
    97  H    0.110788
    98  H    0.111440
    99  H    0.104924
   100  H    0.082254
   101  H    0.081633
   102  H    0.087800
   103  H    0.084965
   104  H    0.090466
   105  H    0.109057
   106  H    0.094787
   107  H    0.092615
   108  H    0.093059
   109  H    0.083132
   110  H    0.072904
   111  H    0.084059
   112  H    0.091235
   113  H    0.075899
   114  H    0.098279
   115  H    0.116840
   116  H    0.078905
   117  H    0.083236
   118  H    0.090743
   119  H    0.084733
   120  H    0.102973
   121  H    0.083773
   122  H    0.059321
   123  H    0.085370
   124  H    0.084617
   125  H    0.077260
   126  H    0.124176
   127  H    0.082949
   128  H    0.109684
   129  H    0.108490
   130  H    0.114502
   131  H    0.139939
   132  H    0.121837
   133  O   -0.436578
   134  H    0.073909
 Sum of Mulliken charges =  -0.00000

 Dipole moment (field-independent basis, Debye):
    X=              3.8792    Y=             -4.0116    Z=             -0.6049  Tot=              5.6131
 Quadrupole moment (field-independent basis, Debye-Ang):
   XX=           -383.1944   YY=           -434.8341   ZZ=           -393.2580
   XY=             -5.4394   XZ=             19.8829   YZ=            -33.5306

 Normal termination of Gaussian 16 at Wed Oct  9 05:44:10 2019.
