 Gaussian 16, Revision A.03,
 Gaussian 16:  ES64L-G16RevA.03 25-Dec-2016

 ----------------------------------------------------------------------
 # td=(NStates=1) iop(3/107=0140000000,3/108=0140000000) iop(3/107=0140
 000000,3/108=0140000000) CAM-B3LYP/6-31G(d,p)
 ----------------------------------------------------------------------

 --
 TD
 --
 Symbolic Z-matrix:
 Charge =  0 Multiplicity = 1

                         Standard orientation:
 ---------------------------------------------------------------------
 Center     Atomic      Atomic             Coordinates (Angstroms)
 Number     Number       Type             X           Y           Z
 ---------------------------------------------------------------------
      1         12           0       -5.628748    1.182752    0.184516
      2          6           0       -5.061694   -2.098639   -0.388882
      3          6           0       -3.326461    1.188499    2.702098
      4          6           0       -6.180080    4.486562    0.647766
      5          6           0       -8.036530    1.171077   -2.353422
      6          7           0       -4.379860   -0.350997    0.946921
      7          6           0       -4.287896   -1.634217    0.673374
      8          6           0       -3.233291   -2.250598    1.556540
      9          6           0       -2.904157   -1.258966    2.578560
     10          6           0       -3.555249   -0.008500    2.052331
     11          6           0       -3.422999   -1.797364    3.936653
     12          6           0       -2.026694   -2.580241    0.639386
     13          6           0       -1.004905   -3.616634    1.387477
     14          6           0        0.196484   -3.810388    0.461149
     15          8           0        0.458813   -3.438880   -0.629927
     16          8           0        1.066475   -4.574354    1.150680
     17          7           0       -4.921612    2.557111    1.430805
     18          6           0       -3.950889    2.394358    2.381731
     19          6           0       -3.713139    3.568630    3.087386
     20          6           0       -4.621974    4.536624    2.621825
     21          6           0       -5.336378    3.930428    1.616448
     22          6           0       -2.698673    3.911312    4.068052
     23          6           0       -4.559436    5.938733    2.854405
     24          8           0       -3.924787    6.633440    3.638675
     25          7           0       -6.915909    2.662873   -0.669402
     26          6           0       -6.934476    3.928602   -0.304176
     27          6           0       -7.867711    4.622626   -1.109814
     28          6           0       -8.535676    3.593420   -1.952087
     29          6           0       -7.812514    2.443550   -1.639992
     30          6           0       -8.207661    6.006485   -1.247927
     31          6           0       -9.564914    3.835573   -2.977598
     32          6           0       -8.968348    4.086151   -4.356940
     33          7           0       -6.431391   -0.110597   -0.997197
     34          6           0       -7.504822   -0.048432   -2.037390
     35          6           0       -7.691311   -1.335470   -2.705793
     36          6           0       -6.700209   -2.126787   -2.017331
     37          6           0       -6.001707   -1.378392   -1.068714
     38          6           0       -8.602955   -1.677904   -3.765004
     39          6           0       -6.233666   -3.509478   -2.018820
     40          8           0       -6.567238   -4.530797   -2.602430
     41          6           0       -5.114587   -3.569494   -0.899135
     42          6           0       -5.491092   -4.678956    0.102700
     43          8           0       -5.945166   -4.551036    1.168689
     44          8           0       -5.111052   -5.899603   -0.372352
     45          6           0       -5.349863   -6.908093    0.631778
     46          6           0        2.320468   -4.967793    0.604711
     47          6           0        3.401227   -4.087334    0.998522
     48          6           0        4.163410   -3.249684    0.261292
     49          6           0        3.902182   -3.117713   -1.231503
     50          6           0        5.222660   -2.447252    0.783080
     51          6           0        6.554630   -2.746899    0.004582
     52          6           0        7.671083   -1.969779    0.689697
     53          6           0        9.018774   -1.974145    0.035601
     54          6           0        9.748504   -3.266808    0.048869
     55          6           0        9.916070   -0.853650    0.399595
     56          6           0       11.324336   -0.784736   -0.124457
     57          6           0       12.318042    0.333351    0.234047
     58          6           0       13.543192    0.464741   -0.619332
     59          6           0       14.471390   -0.744215   -0.495696
     60          6           0       14.295330    1.743678   -0.157973
     61          6           0       15.519359    2.102891   -1.129296
     62          6           0       16.083515    3.406895   -0.587947
     63          6           0       17.443259    3.774461   -1.316698
     64          6           0       17.328393    4.065811   -2.826706
     65          6           0       18.038306    5.146924   -0.792070
     66          1           0       -2.550666    1.267278    3.488035
     67          1           0       -6.420209    5.522829    0.727174
     68          1           0       -8.635750    1.231503   -3.237904
     69          1           0       -3.722512   -3.102135    1.904722
     70          1           0       -1.941271   -1.229495    2.662790
     71          1           0       -3.017198   -2.708145    4.449961
     72          1           0       -3.574500   -0.943799    4.703545
     73          1           0       -4.425659   -2.105756    3.789275
     74          1           0       -2.210667   -2.986246   -0.357029
     75          1           0       -1.382341   -1.704042    0.540731
     76          1           0       -0.928556   -3.301711    2.371113
     77          1           0       -1.457390   -4.682293    1.306131
     78          1           0       -1.722010    3.806054    3.913130
     79          1           0       -2.908202    5.004293    4.481720
     80          1           0       -2.787622    3.236453    4.992706
     81          1           0       -5.251124    6.321788    2.343608
     82          1           0       -9.964189    2.989968   -3.101612
     83          1           0      -10.005999    4.728488   -2.851694
     84          1           0       -9.701139    4.255535   -5.104030
     85          1           0       -8.473863    5.121858   -4.516453
     86          1           0       -8.400192    3.293933   -4.724328
     87          1           0       -8.851500   -0.978236   -4.494826
     88          1           0       -8.291173   -2.671577   -4.245011
     89          1           0       -9.789245   -1.708524   -3.224932
     90          1           0       -4.046729   -3.953098   -1.532547
     91          1           0        2.157846   -5.986276    1.161451
     92          1           0        2.295688   -4.850359   -0.461887
     93          1           0        3.730304   -4.181157    1.996238
     94          1           0        2.858583   -3.421954   -1.511443
     95          1           0        3.745895   -1.968178   -1.653549
     96          1           0        4.694779   -3.615461   -1.868978
     97          1           0        4.918164   -1.251022    0.714152
     98          1           0        5.183994   -2.780098    1.874619
     99          1           0        6.761750   -3.855854    0.089603
    100          1           0        6.506309   -2.630460   -1.022198
    101          1           0        7.334756   -0.947484    0.414254
    102          1           0        7.907939   -2.045423    1.772957
    103          1           0        8.934396   -1.885128   -0.953666
    104          1           0        8.955767   -4.070046   -0.068771
    105          1           0       10.580476   -3.514439   -0.731209
    106          1           0       10.143850   -3.619292    1.128122
    107          1           0        9.417267    0.187744    0.272355
    108          1           0       10.095595   -0.776162    1.527766
    109          1           0       11.859583   -1.787623    0.161541
    110          1           0       11.351897   -0.942326   -1.255482
    111          1           0       11.940013    1.390708    0.061010
    112          1           0       12.494406    0.233393    1.282015
    113          1           0       13.183910    0.685069   -1.720255
    114          1           0       15.023884   -0.946347    0.459221
    115          1           0       13.832456   -1.772325   -0.536261
    116          1           0       15.320155   -0.637233   -1.152361
    117          1           0       13.591472    2.526491   -0.480385
    118          1           0       14.669088    1.801333    0.886254
    119          1           0       16.095943    1.297383   -0.905909
    120          1           0       15.150064    2.150406   -2.102151
    121          1           0       15.404646    4.179056   -0.824149
    122          1           0       16.224451    3.513383    0.470127
    123          1           0       18.087652    3.076759   -0.957446
    124          1           0       16.584316    4.852414   -2.767953
    125          1           0       18.289451    4.234838   -3.215936
    126          1           0       16.519288    3.175915   -3.271784
    127          1           0       17.936748    4.956010    0.403907
    128          1           0       18.982797    5.287220   -1.280295
    129          1           0       17.448620    6.030883   -0.996479
    130          1           0       -5.065773   -7.917515    0.179574
    131          1           0       -6.396633   -7.029656    0.967076
    132          1           0       -4.781527   -6.797102    1.542153
    133          8           0       -7.771091    6.856980   -0.437831
    134          1           0       -8.943722    6.380336   -2.035951
 ---------------------------------------------------------------------

 SCF Done:  E(RCAM-B3LYP) =  -3043.42704598     A.U. after   16 cycles

 Excitation energies and oscillator strengths:

 Excited State   1:      Singlet-A      2.1145 eV  586.34 nm  f=0.1077  <S**2>=0.000
     243 -> 245       -0.18105
     243 -> 246       -0.32161
     244 -> 245        0.57664
     244 -> 246       -0.13930
 This state for optimization and/or second-order correction.
 Total Energy, E(TD-HF/TD-DFT) =  -3043.34933822
 Copying the excited state density for this state as the 1-particle RhoCI density.

 The electronic state is 1-A.
 Alpha  occ. eigenvalues --  -46.80616 -19.22454 -19.20416 -19.17960 -19.17547
 Alpha  occ. eigenvalues --  -19.17344 -19.16558 -19.16015 -14.39022 -14.37059
 Alpha  occ. eigenvalues --  -14.36926 -14.36245 -10.35160 -10.34758 -10.31589
 Alpha  occ. eigenvalues --  -10.29980 -10.27884 -10.27856 -10.27813 -10.27545
 Alpha  occ. eigenvalues --  -10.27414 -10.27141 -10.26967 -10.26540 -10.26303
 Alpha  occ. eigenvalues --  -10.26291 -10.26264 -10.25788 -10.25693 -10.25291
 Alpha  occ. eigenvalues --  -10.24997 -10.24572 -10.23979 -10.23780 -10.23637
 Alpha  occ. eigenvalues --  -10.23629 -10.23544 -10.23530 -10.23349 -10.23278
 Alpha  occ. eigenvalues --  -10.23238 -10.23166 -10.22784 -10.22610 -10.22596
 Alpha  occ. eigenvalues --  -10.22553 -10.22373 -10.22347 -10.21960 -10.21650
 Alpha  occ. eigenvalues --  -10.21624 -10.21463 -10.21442 -10.21393 -10.21231
 Alpha  occ. eigenvalues --  -10.21201 -10.20915 -10.20886 -10.20758 -10.20687
 Alpha  occ. eigenvalues --  -10.20513 -10.20437 -10.20390 -10.20096 -10.19936
 Alpha  occ. eigenvalues --  -10.19441  -3.09437  -1.84354  -1.83898  -1.83888
 Alpha  occ. eigenvalues --   -1.15078  -1.14191  -1.06902  -1.06182  -1.05872
 Alpha  occ. eigenvalues --   -1.05623  -1.04315  -1.01544  -1.01243  -0.99253
 Alpha  occ. eigenvalues --   -0.98813  -0.88630  -0.87556  -0.87064  -0.86832
 Alpha  occ. eigenvalues --   -0.86235  -0.85500  -0.85174  -0.84999  -0.84268
 Alpha  occ. eigenvalues --   -0.83750  -0.83236  -0.82188  -0.80846  -0.79964
 Alpha  occ. eigenvalues --   -0.79463  -0.78799  -0.78491  -0.77064  -0.76965
 Alpha  occ. eigenvalues --   -0.76415  -0.75352  -0.74313  -0.73352  -0.72315
 Alpha  occ. eigenvalues --   -0.71301  -0.70515  -0.70331  -0.70136  -0.69908
 Alpha  occ. eigenvalues --   -0.69690  -0.69168  -0.68902  -0.68363  -0.67227
 Alpha  occ. eigenvalues --   -0.66841  -0.65371  -0.64450  -0.63659  -0.63441
 Alpha  occ. eigenvalues --   -0.62812  -0.61510  -0.60792  -0.59622  -0.59515
 Alpha  occ. eigenvalues --   -0.59133  -0.58729  -0.58458  -0.58437  -0.57781
 Alpha  occ. eigenvalues --   -0.57387  -0.56347  -0.56172  -0.55704  -0.55507
 Alpha  occ. eigenvalues --   -0.54959  -0.54090  -0.53835  -0.53593  -0.52637
 Alpha  occ. eigenvalues --   -0.52207  -0.51939  -0.51529  -0.51401  -0.51252
 Alpha  occ. eigenvalues --   -0.51091  -0.50313  -0.50211  -0.49703  -0.49555
 Alpha  occ. eigenvalues --   -0.49322  -0.48907  -0.48762  -0.48598  -0.48177
 Alpha  occ. eigenvalues --   -0.47964  -0.47844  -0.47789  -0.47399  -0.47075
 Alpha  occ. eigenvalues --   -0.46918  -0.46497  -0.46357  -0.46129  -0.45812
 Alpha  occ. eigenvalues --   -0.45609  -0.45429  -0.45323  -0.45060  -0.44873
 Alpha  occ. eigenvalues --   -0.44793  -0.44702  -0.44420  -0.43931  -0.43785
 Alpha  occ. eigenvalues --   -0.43653  -0.43610  -0.43263  -0.43195  -0.42841
 Alpha  occ. eigenvalues --   -0.42805  -0.42463  -0.42399  -0.42025  -0.41974
 Alpha  occ. eigenvalues --   -0.41856  -0.41622  -0.41560  -0.41396  -0.41246
 Alpha  occ. eigenvalues --   -0.41023  -0.40943  -0.40450  -0.40254  -0.40181
 Alpha  occ. eigenvalues --   -0.40006  -0.39905  -0.39807  -0.39681  -0.39519
 Alpha  occ. eigenvalues --   -0.39223  -0.39092  -0.38750  -0.38703  -0.38592
 Alpha  occ. eigenvalues --   -0.38297  -0.37716  -0.37690  -0.37491  -0.36949
 Alpha  occ. eigenvalues --   -0.36736  -0.36699  -0.36626  -0.36541  -0.36249
 Alpha  occ. eigenvalues --   -0.35965  -0.35682  -0.35441  -0.35377  -0.35256
 Alpha  occ. eigenvalues --   -0.34893  -0.34216  -0.33778  -0.33648  -0.33461
 Alpha  occ. eigenvalues --   -0.32613  -0.32291  -0.32178  -0.31972  -0.31641
 Alpha  occ. eigenvalues --   -0.31132  -0.30913  -0.30882  -0.30313  -0.29994
 Alpha  occ. eigenvalues --   -0.28630  -0.27907  -0.27860  -0.27414  -0.27342
 Alpha  occ. eigenvalues --   -0.27084  -0.26659  -0.23325  -0.22667
 Alpha virt. eigenvalues --   -0.09048  -0.07517  -0.01834  -0.00962   0.00602
 Alpha virt. eigenvalues --    0.02229   0.03229   0.03776   0.04261   0.04434
 Alpha virt. eigenvalues --    0.04803   0.05566   0.06839   0.08311   0.08908

 Mulliken charges:
               1
     1  Mg   0.815112
     2  C    0.019573
     3  C   -0.170907
     4  C   -0.163631
     5  C   -0.180641
     6  N   -0.635000
     7  C    0.338179
     8  C   -0.152611
     9  C   -0.108079
    10  C    0.319754
    11  C   -0.338753
    12  C   -0.195407
    13  C   -0.263518
    14  C    0.585078
    15  O   -0.454698
    16  O   -0.466572
    17  N   -0.713924
    18  C    0.348426
    19  C    0.053450
    20  C   -0.018074
    21  C    0.250035
    22  C   -0.426065
    23  C    0.299146
    24  O   -0.440996
    25  N   -0.698202
    26  C    0.356208
    27  C   -0.034593
    28  C    0.000840
    29  C    0.296273
    30  C    0.208164
    31  C   -0.171413
    32  C   -0.341228
    33  N   -0.774061
    34  C    0.234570
    35  C    0.125622
    36  C   -0.021714
    37  C    0.420584
    38  C   -0.391192
    39  C    0.353678
    40  O   -0.460047
    41  C   -0.326023
    42  C    0.633165
    43  O   -0.443095
    44  O   -0.440840
    45  C   -0.098250
    46  C    0.001546
    47  C   -0.104514
    48  C    0.163157
    49  C   -0.390469
    50  C   -0.216208
    51  C   -0.193662
    52  C   -0.162721
    53  C   -0.039636
    54  C   -0.314387
    55  C   -0.159367
    56  C   -0.185262
    57  C   -0.146307
    58  C   -0.049740
    59  C   -0.316900
    60  C   -0.193587
    61  C   -0.176118
    62  C   -0.183758
    63  C   -0.064920
    64  C   -0.285616
    65  C   -0.309311
    66  H    0.096449
    67  H    0.135554
    68  H    0.085751
    69  H    0.123700
    70  H    0.107517
    71  H    0.116812
    72  H    0.098122
    73  H    0.130961
    74  H    0.124417
    75  H    0.123205
    76  H    0.139967
    77  H    0.133030
    78  H    0.139168
    79  H    0.161417
    80  H    0.100329
    81  H    0.070890
    82  H    0.102688
    83  H    0.116986
    84  H    0.113955
    85  H    0.101333
    86  H    0.115096
    87  H    0.145323
    88  H    0.157478
    89  H    0.106148
    90  H    0.127723
    91  H    0.113673
    92  H    0.114001
    93  H    0.067000
    94  H    0.141517
    95  H    0.085651
    96  H    0.117514
    97  H    0.090342
    98  H    0.094377
    99  H    0.097462
   100  H    0.119791
   101  H    0.097301
   102  H    0.097722
   103  H    0.098942
   104  H    0.084279
   105  H    0.103567
   106  H    0.071229
   107  H    0.070984
   108  H    0.069689
   109  H    0.082779
   110  H    0.069960
   111  H    0.072567
   112  H    0.094766
   113  H    0.075138
   114  H    0.097801
   115  H    0.078768
   116  H    0.107816
   117  H    0.087787
   118  H    0.094320
   119  H    0.105413
   120  H    0.101371
   121  H    0.091018
   122  H    0.089238
   123  H    0.095680
   124  H    0.113796
   125  H    0.114096
   126  H    0.052905
   127  H    0.067590
   128  H    0.102341
   129  H    0.103577
   130  H    0.112962
   131  H    0.132248
   132  H    0.123392
   133  O   -0.444199
   134  H    0.067266
 Sum of Mulliken charges =  -0.00000

 Dipole moment (field-independent basis, Debye):
    X=              0.9855    Y=             -5.0713    Z=             -1.7084  Tot=              5.4413
 Quadrupole moment (field-independent basis, Debye-Ang):
   XX=           -372.2939   YY=           -453.5039   ZZ=           -389.6696
   XY=             12.6861   XZ=             31.5686   YZ=            -39.2667

 Normal termination of Gaussian 16 at Fri Oct  4 05:18:19 2019.
