 Gaussian 16, Revision A.03,
 Gaussian 16:  ES64L-G16RevA.03 25-Dec-2016

 ----------------------------------------------------------------------
 # td=(NStates=1) iop(3/107=0140000000,3/108=0140000000) iop(3/107=0140
 000000,3/108=0140000000) CAM-B3LYP/6-31G(d,p)
 ----------------------------------------------------------------------

 --
 TD
 --
 Symbolic Z-matrix:
 Charge =  0 Multiplicity = 1

                         Standard orientation:
 ---------------------------------------------------------------------
 Center     Atomic      Atomic             Coordinates (Angstroms)
 Number     Number       Type             X           Y           Z
 ---------------------------------------------------------------------
      1         12           0       -5.662758    1.215821    0.182046
      2          6           0       -5.065966   -2.129286   -0.308160
      3          6           0       -3.400984    1.094963    2.718748
      4          6           0       -6.235970    4.492426    0.763907
      5          6           0       -8.044284    1.219396   -2.378423
      6          7           0       -4.456749   -0.312823    1.046030
      7          6           0       -4.292911   -1.637495    0.612201
      8          6           0       -3.282185   -2.399676    1.431982
      9          6           0       -2.906534   -1.448234    2.511049
     10          6           0       -3.592004   -0.087506    2.081882
     11          6           0       -3.593967   -1.839719    3.975755
     12          6           0       -2.058167   -2.675669    0.565157
     13          6           0       -0.969681   -3.462408    1.333017
     14          6           0        0.268816   -3.878872    0.462344
     15          8           0        0.605192   -3.361897   -0.607929
     16          8           0        1.013578   -4.691500    1.235122
     17          7           0       -4.931428    2.536838    1.482082
     18          6           0       -4.029696    2.375061    2.438539
     19          6           0       -3.686778    3.624792    3.124870
     20          6           0       -4.540321    4.560693    2.504275
     21          6           0       -5.312416    3.935625    1.444360
     22          6           0       -2.702501    3.861378    4.272730
     23          6           0       -4.617699    5.933199    2.795358
     24          8           0       -3.951080    6.640724    3.616112
     25          7           0       -6.945334    2.545323   -0.694797
     26          6           0       -7.033535    3.888232   -0.293012
     27          6           0       -7.964295    4.603507   -1.181434
     28          6           0       -8.513848    3.687292   -2.055981
     29          6           0       -7.809456    2.398073   -1.779983
     30          6           0       -8.478803    5.946280   -0.979911
     31          6           0       -9.501043    3.836318   -3.086765
     32          6           0       -8.895717    4.131462   -4.528931
     33          7           0       -6.307919   -0.182683   -1.140597
     34          6           0       -7.399023    0.026902   -2.091407
     35          6           0       -7.602727   -1.283399   -2.712479
     36          6           0       -6.744482   -2.160277   -2.022954
     37          6           0       -6.032999   -1.456985   -1.086937
     38          6           0       -8.574119   -1.697349   -3.799746
     39          6           0       -6.267022   -3.572731   -1.995372
     40          8           0       -6.562024   -4.574177   -2.561221
     41          6           0       -5.061871   -3.602693   -0.923361
     42          6           0       -5.359477   -4.629472    0.258829
     43          8           0       -5.841507   -4.285295    1.378115
     44          8           0       -5.036605   -5.801363   -0.197044
     45          6           0       -5.248681   -6.824723    0.771022
     46          6           0        2.382863   -5.058463    0.508720
     47          6           0        3.444385   -4.130480    1.000768
     48          6           0        4.116432   -3.381907    0.128560
     49          6           0        3.905542   -3.369667   -1.333044
     50          6           0        5.238174   -2.479250    0.605940
     51          6           0        6.607747   -2.762483   -0.023714
     52          6           0        7.748775   -1.835293    0.554137
     53          6           0        9.120849   -1.943452   -0.160773
     54          6           0        9.655252   -3.434446    0.071276
     55          6           0       10.047220   -0.914807    0.350812
     56          6           0       11.304866   -0.715438   -0.298792
     57          6           0       12.263544    0.453999    0.203721
     58          6           0       13.656636    0.465255   -0.497485
     59          6           0       14.543892   -0.791756   -0.026031
     60          6           0       14.308358    1.856695   -0.253989
     61          6           0       15.542096    2.134918   -0.983329
     62          6           0       16.087995    3.624026   -0.683585
     63          6           0       17.422810    3.934294   -1.318857
     64          6           0       17.263628    4.055589   -2.812762
     65          6           0       17.878288    5.287668   -0.636347
     66          1           0       -2.747854    1.255398    3.536883
     67          1           0       -6.595566    5.473497    0.876961
     68          1           0       -8.696338    1.235893   -3.095266
     69          1           0       -3.651075   -3.393409    1.667960
     70          1           0       -2.017852   -1.093263    2.496132
     71          1           0       -2.935903   -2.645285    4.319421
     72          1           0       -3.606905   -0.925319    4.701934
     73          1           0       -4.567165   -2.213842    3.832670
     74          1           0       -2.321289   -3.185502   -0.392128
     75          1           0       -1.680955   -1.812403   -0.056424
     76          1           0       -0.487678   -2.596782    1.958797
     77          1           0       -1.457060   -4.401773    1.836437
     78          1           0       -1.701534    3.813262    3.987862
     79          1           0       -3.054853    4.932242    4.721894
     80          1           0       -2.766843    3.111031    5.147957
     81          1           0       -5.439902    6.505788    2.383269
     82          1           0      -10.198828    2.832068   -3.085250
     83          1           0      -10.159832    4.657804   -2.769887
     84          1           0       -9.756028    4.362219   -5.101355
     85          1           0       -8.143310    4.915337   -4.384589
     86          1           0       -8.172211    3.245467   -4.809141
     87          1           0       -8.459141   -0.872552   -4.735557
     88          1           0       -8.571813   -2.921722   -4.049889
     89          1           0       -9.736909   -1.421994   -3.529085
     90          1           0       -4.027054   -3.754652   -1.103080
     91          1           0        2.391912   -6.141386    0.813549
     92          1           0        2.021580   -4.757709   -0.476124
     93          1           0        3.727255   -4.072390    1.951020
     94          1           0        2.866363   -3.355279   -1.551210
     95          1           0        4.240043   -2.428959   -1.865576
     96          1           0        4.143797   -4.449008   -1.754753
     97          1           0        5.149594   -1.506238    0.180508
     98          1           0        5.383312   -2.555541    1.674862
     99          1           0        6.853040   -3.973059    0.110428
    100          1           0        6.529558   -2.486857   -1.056748
    101          1           0        7.398569   -0.833916    0.398472
    102          1           0        7.906015   -2.139706    1.596987
    103          1           0        9.090872   -1.756879   -1.337679
    104          1           0        8.965500   -4.208502   -0.442458
    105          1           0       10.650930   -3.744628   -0.409911
    106          1           0        9.586112   -3.723190    1.109603
    107          1           0        9.531498    0.041871    0.248410
    108          1           0       10.360947   -0.991391    1.460887
    109          1           0       11.919960   -1.638240   -0.331939
    110          1           0       11.023412   -0.653199   -1.507654
    111          1           0       11.609586    1.331431    0.048672
    112          1           0       12.405740    0.216442    1.048260
    113          1           0       13.344459    0.456216   -1.694539
    114          1           0       14.560012   -0.719884    1.082016
    115          1           0       14.047407   -1.714141   -0.362678
    116          1           0       15.649642   -0.722654   -0.499959
    117          1           0       13.697956    2.734218   -0.473956
    118          1           0       14.357414    1.894102    0.899737
    119          1           0       16.325144    1.281808   -0.665107
    120          1           0       15.441127    1.955166   -1.970970
    121          1           0       15.324109    4.481581   -0.927446
    122          1           0       16.150607    3.669177    0.364743
    123          1           0       18.016632    3.076670   -1.063844
    124          1           0       16.558182    4.842335   -3.025698
    125          1           0       18.217714    4.337028   -3.285785
    126          1           0       16.974291    2.871699   -3.304101
    127          1           0       18.202165    5.112965    0.390136
    128          1           0       18.882431    5.762010   -1.125158
    129          1           0       16.981977    6.131957   -0.551045
    130          1           0       -4.971531   -7.777282    0.333552
    131          1           0       -6.351727   -6.999310    0.973011
    132          1           0       -4.533928   -6.420450    1.749208
    133          8           0       -7.959136    6.886621   -0.344566
    134          1           0       -9.314074    6.325621   -1.706904
 ---------------------------------------------------------------------

 SCF Done:  E(RCAM-B3LYP) =  -3043.43830729     A.U. after   15 cycles

 Excitation energies and oscillator strengths:

 Excited State   1:      Singlet-A      2.1484 eV  577.09 nm  f=0.1710  <S**2>=0.000
     243 -> 245       -0.19215
     243 -> 246        0.26887
     244 -> 245        0.60605
     244 -> 246        0.11270
 This state for optimization and/or second-order correction.
 Total Energy, E(TD-HF/TD-DFT) =  -3043.35935322
 Copying the excited state density for this state as the 1-particle RhoCI density.

 The electronic state is 1-A.
 Alpha  occ. eigenvalues --  -46.80298 -19.25109 -19.21592 -19.17431 -19.17362
 Alpha  occ. eigenvalues --  -19.17299 -19.17243 -19.16256 -14.37680 -14.37603
 Alpha  occ. eigenvalues --  -14.37059 -14.35813 -10.35712 -10.35065 -10.31760
 Alpha  occ. eigenvalues --  -10.31120 -10.29867 -10.29153 -10.27903 -10.27606
 Alpha  occ. eigenvalues --  -10.27396 -10.26941 -10.26705 -10.26292 -10.26219
 Alpha  occ. eigenvalues --  -10.25992 -10.25763 -10.25620 -10.25538 -10.25435
 Alpha  occ. eigenvalues --  -10.25029 -10.24915 -10.24519 -10.24101 -10.23696
 Alpha  occ. eigenvalues --  -10.23630 -10.23566 -10.23469 -10.23328 -10.23319
 Alpha  occ. eigenvalues --  -10.23308 -10.23236 -10.23229 -10.23002 -10.22919
 Alpha  occ. eigenvalues --  -10.22880 -10.22751 -10.22713 -10.22502 -10.22410
 Alpha  occ. eigenvalues --  -10.21924 -10.21872 -10.21736 -10.21732 -10.21643
 Alpha  occ. eigenvalues --  -10.21637 -10.21512 -10.21358 -10.21263 -10.21061
 Alpha  occ. eigenvalues --  -10.20834 -10.20571 -10.20518 -10.20443 -10.20398
 Alpha  occ. eigenvalues --  -10.19271  -3.09031  -1.83968  -1.83506  -1.83444
 Alpha  occ. eigenvalues --   -1.16300  -1.11288  -1.08596  -1.05325  -1.03584
 Alpha  occ. eigenvalues --   -1.03267  -1.03100  -0.99980  -0.99421  -0.98459
 Alpha  occ. eigenvalues --   -0.97735  -0.87705  -0.86986  -0.86183  -0.85880
 Alpha  occ. eigenvalues --   -0.85744  -0.85209  -0.84584  -0.84262  -0.83165
 Alpha  occ. eigenvalues --   -0.82987  -0.82939  -0.81091  -0.80665  -0.79402
 Alpha  occ. eigenvalues --   -0.79136  -0.78392  -0.78228  -0.77379  -0.76152
 Alpha  occ. eigenvalues --   -0.74965  -0.74667  -0.73250  -0.72917  -0.71597
 Alpha  occ. eigenvalues --   -0.71393  -0.70701  -0.70110  -0.69647  -0.69452
 Alpha  occ. eigenvalues --   -0.69070  -0.68941  -0.67821  -0.67426  -0.66551
 Alpha  occ. eigenvalues --   -0.65771  -0.64532  -0.63700  -0.62971  -0.62261
 Alpha  occ. eigenvalues --   -0.61953  -0.61144  -0.59665  -0.59647  -0.58927
 Alpha  occ. eigenvalues --   -0.58224  -0.57867  -0.57755  -0.57024  -0.56733
 Alpha  occ. eigenvalues --   -0.56421  -0.56040  -0.55590  -0.55081  -0.54559
 Alpha  occ. eigenvalues --   -0.53987  -0.53439  -0.53018  -0.52573  -0.52186
 Alpha  occ. eigenvalues --   -0.51946  -0.51627  -0.51511  -0.51367  -0.50854
 Alpha  occ. eigenvalues --   -0.50267  -0.50075  -0.49793  -0.49550  -0.49269
 Alpha  occ. eigenvalues --   -0.49073  -0.48895  -0.48289  -0.48081  -0.47553
 Alpha  occ. eigenvalues --   -0.47508  -0.47256  -0.47038  -0.46827  -0.46389
 Alpha  occ. eigenvalues --   -0.46218  -0.46138  -0.45996  -0.45758  -0.45616
 Alpha  occ. eigenvalues --   -0.45400  -0.45259  -0.44860  -0.44552  -0.44323
 Alpha  occ. eigenvalues --   -0.43988  -0.43896  -0.43776  -0.43587  -0.43478
 Alpha  occ. eigenvalues --   -0.43283  -0.43187  -0.42958  -0.42809  -0.42653
 Alpha  occ. eigenvalues --   -0.42511  -0.42317  -0.41993  -0.41658  -0.41430
 Alpha  occ. eigenvalues --   -0.41272  -0.41225  -0.41160  -0.40993  -0.40759
 Alpha  occ. eigenvalues --   -0.40672  -0.40521  -0.40465  -0.40376  -0.40314
 Alpha  occ. eigenvalues --   -0.40179  -0.40085  -0.39612  -0.39469  -0.39093
 Alpha  occ. eigenvalues --   -0.38712  -0.38609  -0.38553  -0.38440  -0.38267
 Alpha  occ. eigenvalues --   -0.37968  -0.37890  -0.37519  -0.37464  -0.36951
 Alpha  occ. eigenvalues --   -0.36574  -0.36151  -0.36042  -0.36002  -0.35611
 Alpha  occ. eigenvalues --   -0.35368  -0.35275  -0.34913  -0.34779  -0.34602
 Alpha  occ. eigenvalues --   -0.34504  -0.34109  -0.34027  -0.33594  -0.33498
 Alpha  occ. eigenvalues --   -0.33054  -0.32832  -0.32703  -0.32258  -0.32016
 Alpha  occ. eigenvalues --   -0.31346  -0.30514  -0.30319  -0.30281  -0.29813
 Alpha  occ. eigenvalues --   -0.28993  -0.28118  -0.27897  -0.27611  -0.27504
 Alpha  occ. eigenvalues --   -0.27339  -0.26815  -0.23057  -0.22129
 Alpha virt. eigenvalues --   -0.08637  -0.06727  -0.01844  -0.00394   0.00780
 Alpha virt. eigenvalues --    0.02279   0.02889   0.03801   0.04173   0.04493
 Alpha virt. eigenvalues --    0.05309   0.05987   0.07126   0.07976   0.08632

 Mulliken charges:
               1
     1  Mg   0.811926
     2  C    0.074479
     3  C   -0.190437
     4  C   -0.156414
     5  C   -0.105468
     6  N   -0.636429
     7  C    0.313948
     8  C   -0.130485
     9  C   -0.094818
    10  C    0.326430
    11  C   -0.317460
    12  C   -0.217523
    13  C   -0.238129
    14  C    0.597590
    15  O   -0.487579
    16  O   -0.482650
    17  N   -0.736280
    18  C    0.322198
    19  C    0.058467
    20  C   -0.002529
    21  C    0.352702
    22  C   -0.391997
    23  C    0.204774
    24  O   -0.454693
    25  N   -0.698109
    26  C    0.258632
    27  C   -0.011352
    28  C    0.076619
    29  C    0.288843
    30  C    0.212010
    31  C   -0.272962
    32  C   -0.301846
    33  N   -0.741963
    34  C    0.240349
    35  C    0.051141
    36  C    0.002600
    37  C    0.333689
    38  C   -0.378041
    39  C    0.379209
    40  O   -0.437499
    41  C   -0.320107
    42  C    0.598505
    43  O   -0.493411
    44  O   -0.382537
    45  C   -0.089857
    46  C   -0.045786
    47  C   -0.094971
    48  C    0.178541
    49  C   -0.406342
    50  C   -0.228285
    51  C   -0.183086
    52  C   -0.163563
    53  C   -0.049637
    54  C   -0.323007
    55  C   -0.129529
    56  C   -0.194354
    57  C   -0.132079
    58  C   -0.066594
    59  C   -0.318843
    60  C   -0.153094
    61  C   -0.172567
    62  C   -0.164248
    63  C   -0.045974
    64  C   -0.274677
    65  C   -0.308223
    66  H    0.067847
    67  H    0.131441
    68  H    0.062016
    69  H    0.116058
    70  H    0.101821
    71  H    0.114435
    72  H    0.104373
    73  H    0.146547
    74  H    0.101077
    75  H    0.119627
    76  H    0.141787
    77  H    0.118570
    78  H    0.146376
    79  H    0.158490
    80  H    0.112594
    81  H    0.090398
    82  H    0.091303
    83  H    0.115079
    84  H    0.130778
    85  H    0.127129
    86  H    0.105497
    87  H    0.101958
    88  H    0.142596
    89  H    0.110345
    90  H    0.148070
    91  H    0.127571
    92  H    0.149074
    93  H    0.074141
    94  H    0.164238
    95  H    0.107244
    96  H    0.116580
    97  H    0.105624
    98  H    0.094076
    99  H    0.065217
   100  H    0.102788
   101  H    0.092824
   102  H    0.097997
   103  H    0.068129
   104  H    0.093103
   105  H    0.096017
   106  H    0.105921
   107  H    0.084992
   108  H    0.070235
   109  H    0.083328
   110  H    0.037053
   111  H    0.091941
   112  H    0.093266
   113  H    0.052735
   114  H    0.108197
   115  H    0.119880
   116  H    0.094302
   117  H    0.092516
   118  H    0.066650
   119  H    0.057987
   120  H    0.108509
   121  H    0.069074
   122  H    0.098713
   123  H    0.096365
   124  H    0.107990
   125  H    0.100609
   126  H    0.058315
   127  H    0.113601
   128  H    0.075894
   129  H    0.081779
   130  H    0.132587
   131  H    0.140282
   132  H    0.107237
   133  O   -0.429402
   134  H    0.061388
 Sum of Mulliken charges =  -0.00000

 Dipole moment (field-independent basis, Debye):
    X=              1.9069    Y=             -5.5169    Z=             -0.9410  Tot=              5.9125
 Quadrupole moment (field-independent basis, Debye-Ang):
   XX=           -369.3053   YY=           -436.9099   ZZ=           -397.3975
   XY=              8.3205   XZ=             32.6618   YZ=            -34.4170

 Normal termination of Gaussian 16 at Thu Oct 10 17:45:04 2019.
