 Gaussian 16, Revision A.03,
 Gaussian 16:  ES64L-G16RevA.03 25-Dec-2016

 ----------------------------------------------------------------------
 # td=(NStates=1) iop(3/107=0140000000,3/108=0140000000) iop(3/107=0140
 000000,3/108=0140000000) CAM-B3LYP/6-31G(d,p)
 ----------------------------------------------------------------------

 --
 TD
 --
 Symbolic Z-matrix:
 Charge =  0 Multiplicity = 1

                         Standard orientation:
 ---------------------------------------------------------------------
 Center     Atomic      Atomic             Coordinates (Angstroms)
 Number     Number       Type             X           Y           Z
 ---------------------------------------------------------------------
      1         12           0       -5.527711    1.225476    0.173882
      2          6           0       -5.011800   -2.182902   -0.401025
      3          6           0       -3.380296    1.294103    2.734811
      4          6           0       -6.357287    4.536415    0.696717
      5          6           0       -7.941836    1.124490   -2.498937
      6          7           0       -4.348008   -0.255119    1.084962
      7          6           0       -4.305200   -1.603734    0.699986
      8          6           0       -3.179274   -2.216539    1.566604
      9          6           0       -2.928630   -1.281803    2.716881
     10          6           0       -3.530424   -0.026672    2.161663
     11          6           0       -3.476465   -1.627882    4.023907
     12          6           0       -1.846123   -2.595172    0.642828
     13          6           0       -0.991096   -3.594515    1.390519
     14          6           0        0.240964   -4.024682    0.661164
     15          8           0        0.459325   -3.554854   -0.426402
     16          8           0        1.014324   -4.814659    1.357927
     17          7           0       -4.951262    2.629174    1.512601
     18          6           0       -3.991719    2.541979    2.515070
     19          6           0       -3.842270    3.756815    3.188808
     20          6           0       -4.628573    4.682813    2.549412
     21          6           0       -5.367382    3.956122    1.556033
     22          6           0       -2.925816    4.011617    4.267029
     23          6           0       -4.692740    6.123141    2.897832
     24          8           0       -4.117450    6.593094    3.815295
     25          7           0       -6.905433    2.545308   -0.771452
     26          6           0       -7.003733    3.836984   -0.391341
     27          6           0       -7.932449    4.546504   -1.186282
     28          6           0       -8.432056    3.558290   -2.195494
     29          6           0       -7.687410    2.430432   -1.894709
     30          6           0       -8.328995    5.939776   -1.197207
     31          6           0       -9.381705    3.908314   -3.258654
     32          6           0       -8.691758    4.017792   -4.632091
     33          7           0       -6.280587   -0.073291   -1.121634
     34          6           0       -7.311055   -0.017483   -2.167801
     35          6           0       -7.503363   -1.369855   -2.752955
     36          6           0       -6.611505   -2.161857   -2.092330
     37          6           0       -5.929854   -1.433108   -1.130250
     38          6           0       -8.528147   -1.715656   -3.822453
     39          6           0       -6.122690   -3.538774   -2.032459
     40          8           0       -6.563629   -4.552540   -2.622216
     41          6           0       -5.033783   -3.609284   -0.871032
     42          6           0       -5.376367   -4.674805    0.206142
     43          8           0       -5.711507   -4.363595    1.337337
     44          8           0       -5.280222   -5.930929   -0.332588
     45          6           0       -5.686256   -6.837807    0.626292
     46          6           0        2.192007   -5.184366    0.713440
     47          6           0        3.289705   -4.153058    1.138058
     48          6           0        3.969348   -3.279481    0.183980
     49          6           0        3.761072   -3.181039   -1.340850
     50          6           0        5.133882   -2.447191    0.697272
     51          6           0        6.533466   -2.721200    0.051935
     52          6           0        7.662373   -1.800565    0.621703
     53          6           0        9.124174   -1.964020   -0.099123
     54          6           0        9.563072   -3.419412    0.170424
     55          6           0       10.028795   -0.807268    0.372171
     56          6           0       11.347288   -0.749440   -0.318682
     57          6           0       12.189893    0.479458    0.157065
     58          6           0       13.562093    0.510868   -0.653034
     59          6           0       14.450488   -0.667864   -0.524881
     60          6           0       14.304221    1.814539   -0.233853
     61          6           0       15.542381    2.152573   -0.896971
     62          6           0       16.140950    3.501637   -0.583237
     63          6           0       17.389951    3.823155   -1.232309
     64          6           0       17.416038    3.716894   -2.770265
     65          6           0       17.970054    5.115804   -0.763066
     66          1           0       -2.729279    1.289581    3.561078
     67          1           0       -6.467004    5.600438    0.621940
     68          1           0       -8.545922    1.344980   -3.418902
     69          1           0       -3.459309   -3.231196    1.863655
     70          1           0       -1.788796   -0.956364    2.804448
     71          1           0       -3.036594   -2.806169    4.424612
     72          1           0       -3.262293   -0.906911    4.680972
     73          1           0       -4.628259   -1.829923    4.026980
     74          1           0       -2.249990   -3.231068   -0.264801
     75          1           0       -1.297401   -1.759921    0.285440
     76          1           0       -0.582529   -3.113987    2.432402
     77          1           0       -1.651564   -4.439391    1.679950
     78          1           0       -1.819912    4.186702    4.110710
     79          1           0       -3.270206    4.874914    5.128840
     80          1           0       -3.036863    2.926226    5.007946
     81          1           0       -5.220010    6.846915    2.222696
     82          1           0      -10.110018    2.981738   -3.543188
     83          1           0       -9.974164    4.656610   -3.014753
     84          1           0       -9.270703    4.182620   -5.436214
     85          1           0       -7.953809    5.033027   -4.633353
     86          1           0       -8.137376    3.207885   -4.759287
     87          1           0       -8.463463   -0.930192   -4.587436
     88          1           0       -8.396542   -2.862478   -4.196778
     89          1           0       -9.520397   -1.672925   -3.450128
     90          1           0       -4.143256   -4.006095   -1.260413
     91          1           0        2.368773   -6.306014    1.093535
     92          1           0        2.043400   -4.905357   -0.474912
     93          1           0        3.534431   -3.822263    2.299133
     94          1           0        2.715729   -3.601441   -1.448949
     95          1           0        3.700726   -2.202218   -1.665445
     96          1           0        4.626996   -3.945846   -1.938292
     97          1           0        4.707985   -1.510874    0.500734
     98          1           0        5.217626   -2.467309    1.692706
     99          1           0        6.699208   -3.988646    0.376354
    100          1           0        6.541465   -2.410501   -1.110086
    101          1           0        7.301999   -0.749219    0.470450
    102          1           0        7.896762   -1.986466    1.629662
    103          1           0        8.889882   -1.980805   -1.233345
    104          1           0        8.965851   -4.154825   -0.372119
    105          1           0       10.381032   -3.572787   -0.433350
    106          1           0        9.734273   -3.626768    1.247717
    107          1           0        9.564051    0.254328    0.055918
    108          1           0       10.235384   -0.789488    1.459335
    109          1           0       11.919422   -1.792246   -0.275636
    110          1           0       11.274010   -0.638659   -1.282991
    111          1           0       11.604699    1.412322    0.157714
    112          1           0       12.518347    0.366534    1.162575
    113          1           0       13.242855    0.543277   -1.673939
    114          1           0       14.617126   -0.965879    0.599748
    115          1           0       14.010144   -1.666155   -1.117373
    116          1           0       15.513127   -0.533774   -0.853230
    117          1           0       13.480168    2.572903   -0.289755
    118          1           0       14.446375    1.845266    0.878911
    119          1           0       16.425060    1.441677   -0.666273
    120          1           0       15.299551    2.192891   -2.020684
    121          1           0       15.311062    4.257678   -0.892256
    122          1           0       16.362576    3.513786    0.356771
    123          1           0       18.175727    2.964166   -1.063964
    124          1           0       16.659667    4.496248   -3.047363
    125          1           0       18.338197    4.042214   -3.267006
    126          1           0       17.350778    2.740106   -3.236779
    127          1           0       18.059748    5.230215    0.379162
    128          1           0       18.977172    5.218211   -1.296417
    129          1           0       17.358375    6.059573   -1.131741
    130          1           0       -5.658479   -7.956128    0.156344
    131          1           0       -6.671764   -6.805432    0.959769
    132          1           0       -4.978774   -6.802498    1.511085
    133          8           0       -7.794880    6.737916   -0.522256
    134          1           0       -9.188166    6.143029   -1.955581
 ---------------------------------------------------------------------

 SCF Done:  E(RCAM-B3LYP) =  -3043.43619001     A.U. after   16 cycles

 Excitation energies and oscillator strengths:

 Excited State   1:      Singlet-A      2.0819 eV  595.54 nm  f=0.0819  <S**2>=0.000
     243 -> 245       -0.13241
     243 -> 246       -0.34164
     244 -> 245        0.58557
     244 -> 246       -0.11453
 This state for optimization and/or second-order correction.
 Total Energy, E(TD-HF/TD-DFT) =  -3043.35968187
 Copying the excited state density for this state as the 1-particle RhoCI density.

 The electronic state is 1-A.
 Alpha  occ. eigenvalues --  -46.80902 -19.24548 -19.23502 -19.18974 -19.17567
 Alpha  occ. eigenvalues --  -19.17224 -19.17057 -19.16700 -14.39072 -14.36954
 Alpha  occ. eigenvalues --  -14.36632 -14.36003 -10.36591 -10.34915 -10.32219
 Alpha  occ. eigenvalues --  -10.30192 -10.29784 -10.29767 -10.28768 -10.28279
 Alpha  occ. eigenvalues --  -10.27991 -10.26772 -10.26436 -10.26227 -10.26222
 Alpha  occ. eigenvalues --  -10.26213 -10.25493 -10.25316 -10.25315 -10.25097
 Alpha  occ. eigenvalues --  -10.24663 -10.24654 -10.24601 -10.24587 -10.24578
 Alpha  occ. eigenvalues --  -10.24481 -10.24386 -10.24155 -10.23922 -10.23840
 Alpha  occ. eigenvalues --  -10.23805 -10.23776 -10.23695 -10.23602 -10.23395
 Alpha  occ. eigenvalues --  -10.22816 -10.22799 -10.22799 -10.22750 -10.22553
 Alpha  occ. eigenvalues --  -10.21907 -10.21901 -10.21731 -10.21583 -10.21549
 Alpha  occ. eigenvalues --  -10.21330 -10.21283 -10.20949 -10.20825 -10.20681
 Alpha  occ. eigenvalues --  -10.20460 -10.20058 -10.19977 -10.19868 -10.19636
 Alpha  occ. eigenvalues --  -10.19128  -3.09501  -1.84436  -1.83996  -1.83895
 Alpha  occ. eigenvalues --   -1.16582  -1.15485  -1.09142  -1.09014  -1.06806
 Alpha  occ. eigenvalues --   -1.06588  -1.05402  -0.99851  -0.99188  -0.98878
 Alpha  occ. eigenvalues --   -0.97655  -0.88846  -0.86426  -0.85645  -0.85142
 Alpha  occ. eigenvalues --   -0.84851  -0.84249  -0.83974  -0.83808  -0.83134
 Alpha  occ. eigenvalues --   -0.83078  -0.82788  -0.82083  -0.80016  -0.79598
 Alpha  occ. eigenvalues --   -0.78798  -0.77971  -0.77571  -0.76950  -0.76737
 Alpha  occ. eigenvalues --   -0.75304  -0.74566  -0.73455  -0.72826  -0.71809
 Alpha  occ. eigenvalues --   -0.71344  -0.71217  -0.70254  -0.70082  -0.69818
 Alpha  occ. eigenvalues --   -0.69031  -0.68696  -0.67769  -0.66858  -0.65755
 Alpha  occ. eigenvalues --   -0.65424  -0.64460  -0.63595  -0.61970  -0.61726
 Alpha  occ. eigenvalues --   -0.61462  -0.61300  -0.60444  -0.59388  -0.58672
 Alpha  occ. eigenvalues --   -0.58033  -0.57829  -0.57693  -0.57309  -0.57297
 Alpha  occ. eigenvalues --   -0.56696  -0.55773  -0.55100  -0.54980  -0.54527
 Alpha  occ. eigenvalues --   -0.54164  -0.53707  -0.53005  -0.52679  -0.52535
 Alpha  occ. eigenvalues --   -0.52387  -0.52052  -0.51690  -0.51370  -0.51279
 Alpha  occ. eigenvalues --   -0.50628  -0.50128  -0.49690  -0.49464  -0.48926
 Alpha  occ. eigenvalues --   -0.48816  -0.48390  -0.48166  -0.48014  -0.47832
 Alpha  occ. eigenvalues --   -0.47506  -0.47416  -0.47366  -0.46983  -0.46945
 Alpha  occ. eigenvalues --   -0.46801  -0.46658  -0.46301  -0.46009  -0.45814
 Alpha  occ. eigenvalues --   -0.45627  -0.45513  -0.45166  -0.45018  -0.44650
 Alpha  occ. eigenvalues --   -0.44520  -0.44306  -0.44019  -0.43757  -0.43546
 Alpha  occ. eigenvalues --   -0.43329  -0.43154  -0.42877  -0.42786  -0.42553
 Alpha  occ. eigenvalues --   -0.42473  -0.42432  -0.42235  -0.41969  -0.41887
 Alpha  occ. eigenvalues --   -0.41665  -0.41330  -0.41239  -0.41094  -0.41023
 Alpha  occ. eigenvalues --   -0.40694  -0.40577  -0.40413  -0.40343  -0.39889
 Alpha  occ. eigenvalues --   -0.39635  -0.39614  -0.39492  -0.39283  -0.39089
 Alpha  occ. eigenvalues --   -0.38926  -0.38727  -0.38605  -0.38275  -0.38097
 Alpha  occ. eigenvalues --   -0.37933  -0.37710  -0.37445  -0.37363  -0.36622
 Alpha  occ. eigenvalues --   -0.36423  -0.36293  -0.36273  -0.35872  -0.35564
 Alpha  occ. eigenvalues --   -0.35446  -0.35294  -0.35040  -0.34776  -0.34732
 Alpha  occ. eigenvalues --   -0.34515  -0.34155  -0.33898  -0.33796  -0.33184
 Alpha  occ. eigenvalues --   -0.32986  -0.32758  -0.32078  -0.32053  -0.31892
 Alpha  occ. eigenvalues --   -0.31472  -0.31271  -0.30824  -0.30107  -0.29660
 Alpha  occ. eigenvalues --   -0.28775  -0.28195  -0.27810  -0.27547  -0.27420
 Alpha  occ. eigenvalues --   -0.26412  -0.25409  -0.22938  -0.21796
 Alpha virt. eigenvalues --   -0.08133  -0.07205  -0.02292   0.00177   0.00732
 Alpha virt. eigenvalues --    0.02116   0.02342   0.03301   0.03844   0.04544
 Alpha virt. eigenvalues --    0.04868   0.05770   0.07673   0.07915   0.09026

 Mulliken charges:
               1
     1  Mg   0.820659
     2  C    0.054537
     3  C   -0.211414
     4  C   -0.155454
     5  C   -0.168726
     6  N   -0.644144
     7  C    0.320571
     8  C   -0.163242
     9  C   -0.120529
    10  C    0.336054
    11  C   -0.272441
    12  C   -0.165314
    13  C   -0.266290
    14  C    0.616647
    15  O   -0.471133
    16  O   -0.405747
    17  N   -0.715460
    18  C    0.342083
    19  C    0.102385
    20  C   -0.028593
    21  C    0.288234
    22  C   -0.381273
    23  C    0.244952
    24  O   -0.386607
    25  N   -0.675773
    26  C    0.319018
    27  C   -0.061314
    28  C    0.060170
    29  C    0.232941
    30  C    0.248834
    31  C   -0.247619
    32  C   -0.287552
    33  N   -0.728220
    34  C    0.267335
    35  C    0.032910
    36  C    0.060491
    37  C    0.322200
    38  C   -0.379654
    39  C    0.345952
    40  O   -0.466995
    41  C   -0.314869
    42  C    0.623241
    43  O   -0.458441
    44  O   -0.408601
    45  C   -0.092002
    46  C   -0.034662
    47  C   -0.128364
    48  C    0.083136
    49  C   -0.347914
    50  C   -0.197200
    51  C   -0.155130
    52  C   -0.165090
    53  C   -0.069882
    54  C   -0.311464
    55  C   -0.157514
    56  C   -0.169974
    57  C   -0.190202
    58  C   -0.049442
    59  C   -0.294090
    60  C   -0.168248
    61  C   -0.171944
    62  C   -0.123094
    63  C   -0.051880
    64  C   -0.315549
    65  C   -0.296915
    66  H    0.062122
    67  H    0.142877
    68  H    0.087433
    69  H    0.108151
    70  H    0.106738
    71  H    0.065593
    72  H    0.127199
    73  H    0.123449
    74  H    0.097612
    75  H    0.128355
    76  H    0.109954
    77  H    0.126332
    78  H    0.138604
    79  H    0.137805
    80  H    0.054691
    81  H    0.077075
    82  H    0.081995
    83  H    0.115910
    84  H    0.121162
    85  H    0.070839
    86  H    0.121074
    87  H    0.126979
    88  H    0.139669
    89  H    0.148263
    90  H    0.161869
    91  H    0.113184
    92  H    0.129213
    93  H    0.073636
    94  H    0.131400
    95  H    0.130097
    96  H    0.094444
    97  H    0.102687
    98  H    0.097468
    99  H    0.061614
   100  H    0.081560
   101  H    0.084018
   102  H    0.095428
   103  H    0.066875
   104  H    0.107936
   105  H    0.106802
   106  H    0.100732
   107  H    0.070542
   108  H    0.093718
   109  H    0.075734
   110  H    0.105644
   111  H    0.089967
   112  H    0.096409
   113  H    0.089394
   114  H    0.082283
   115  H    0.070271
   116  H    0.108809
   117  H    0.080790
   118  H    0.075908
   119  H    0.077209
   120  H    0.084831
   121  H    0.069271
   122  H    0.097364
   123  H    0.064858
   124  H    0.089777
   125  H    0.094700
   126  H    0.109734
   127  H    0.095781
   128  H    0.095667
   129  H    0.083331
   130  H    0.098996
   131  H    0.143357
   132  H    0.114782
   133  O   -0.407978
   134  H    0.043622
 Sum of Mulliken charges =  -0.00000

 Dipole moment (field-independent basis, Debye):
    X=              2.3274    Y=             -4.2564    Z=             -0.9572  Tot=              4.9447
 Quadrupole moment (field-independent basis, Debye-Ang):
   XX=           -375.8454   YY=           -436.1968   ZZ=           -394.6145
   XY=             14.8610   XZ=             21.5888   YZ=            -29.9340

 Normal termination of Gaussian 16 at Fri Oct  4 05:45:18 2019.
