 Gaussian 16, Revision A.03,
 Gaussian 16:  ES64L-G16RevA.03 25-Dec-2016

 ----------------------------------------------------------------------
 # td=(NStates=1) iop(3/107=0140000000,3/108=0140000000) iop(3/107=0140
 000000,3/108=0140000000) CAM-B3LYP/6-31G(d,p)
 ----------------------------------------------------------------------

 --
 TD
 --
 Symbolic Z-matrix:
 Charge =  0 Multiplicity = 1

                         Standard orientation:
 ---------------------------------------------------------------------
 Center     Atomic      Atomic             Coordinates (Angstroms)
 Number     Number       Type             X           Y           Z
 ---------------------------------------------------------------------
      1         12           0       -5.628611    1.190848    0.166374
      2          6           0       -4.936079   -2.093369   -0.465028
      3          6           0       -3.459186    1.152830    2.792814
      4          6           0       -6.321197    4.512825    0.678095
      5          6           0       -8.007739    1.173222   -2.411976
      6          7           0       -4.337936   -0.263655    1.053178
      7          6           0       -4.240357   -1.539670    0.649414
      8          6           0       -3.253164   -2.340103    1.483070
      9          6           0       -2.887473   -1.314898    2.602922
     10          6           0       -3.584983   -0.080155    2.189446
     11          6           0       -3.426292   -1.852028    3.919028
     12          6           0       -2.053375   -2.621812    0.664120
     13          6           0       -0.877365   -3.430136    1.394590
     14          6           0        0.326422   -3.755688    0.622192
     15          8           0        0.649175   -3.521138   -0.516863
     16          8           0        1.055676   -4.526647    1.355796
     17          7           0       -5.061963    2.557514    1.485874
     18          6           0       -4.025619    2.351299    2.413105
     19          6           0       -3.817400    3.544026    3.154080
     20          6           0       -4.635530    4.517942    2.645654
     21          6           0       -5.362851    3.938618    1.663463
     22          6           0       -2.948131    3.636598    4.379140
     23          6           0       -4.662555    5.997006    2.977839
     24          8           0       -4.003052    6.451638    3.897037
     25          7           0       -6.785294    2.687821   -0.737493
     26          6           0       -6.938039    3.963099   -0.299083
     27          6           0       -7.925387    4.523005   -1.106641
     28          6           0       -8.419498    3.588689   -2.055398
     29          6           0       -7.721966    2.350160   -1.772284
     30          6           0       -8.360759    5.884225   -1.154421
     31          6           0       -9.447975    3.800824   -3.182287
     32          6           0       -8.798672    4.017991   -4.563435
     33          7           0       -6.300993   -0.130552   -1.163196
     34          6           0       -7.323113   -0.042835   -2.107637
     35          6           0       -7.676925   -1.370520   -2.627690
     36          6           0       -6.622698   -2.073796   -2.120059
     37          6           0       -5.858114   -1.347715   -1.218172
     38          6           0       -8.666537   -1.647245   -3.711934
     39          6           0       -6.193791   -3.487162   -2.043892
     40          8           0       -6.493941   -4.485557   -2.763209
     41          6           0       -5.033946   -3.592279   -0.981124
     42          6           0       -5.312282   -4.639603    0.038050
     43          8           0       -5.817508   -4.496971    1.113478
     44          8           0       -5.147878   -5.850378   -0.461719
     45          6           0       -5.383846   -6.863599    0.466680
     46          6           0        2.375593   -5.029809    0.752886
     47          6           0        3.446799   -4.142715    1.106000
     48          6           0        4.053872   -3.184782    0.288276
     49          6           0        3.852081   -3.038316   -1.235557
     50          6           0        5.271412   -2.378826    0.776724
     51          6           0        6.565544   -2.663211   -0.008428
     52          6           0        7.584125   -1.778405    0.658928
     53          6           0        9.082236   -1.967122   -0.032123
     54          6           0        9.555509   -3.356351    0.325449
     55          6           0        9.976725   -0.927603    0.489481
     56          6           0       11.285156   -0.663416   -0.316491
     57          6           0       12.187179    0.424475    0.186772
     58          6           0       13.619109    0.526148   -0.552919
     59          6           0       14.389600   -0.753362   -0.272981
     60          6           0       14.281967    1.780642   -0.239399
     61          6           0       15.528604    2.107033   -1.073489
     62          6           0       16.145885    3.440661   -0.677742
     63          6           0       17.397517    3.787669   -1.411389
     64          6           0       17.148643    3.979252   -2.952519
     65          6           0       17.984520    5.109143   -0.829492
     66          1           0       -2.586935    1.172566    3.433863
     67          1           0       -6.600458    5.597844    0.675253
     68          1           0       -8.717291    1.019351   -3.080395
     69          1           0       -3.603549   -3.106892    1.963823
     70          1           0       -1.781730   -1.007495    2.418952
     71          1           0       -3.010203   -2.866101    3.958995
     72          1           0       -3.256923   -1.318156    4.730212
     73          1           0       -4.532478   -2.102201    3.795411
     74          1           0       -2.140688   -3.176502   -0.449334
     75          1           0       -1.499303   -1.740743    0.345155
     76          1           0       -0.530914   -2.943737    2.335919
     77          1           0       -1.475122   -4.246665    1.628034
     78          1           0       -1.918015    3.278696    4.228854
     79          1           0       -3.104558    4.730583    4.798147
     80          1           0       -3.493519    3.098605    5.179651
     81          1           0       -5.124462    6.682649    2.185517
     82          1           0      -10.099523    2.799349   -3.212041
     83          1           0      -10.144195    4.593417   -2.919767
     84          1           0       -9.556288    4.098443   -5.269651
     85          1           0       -8.159277    4.778461   -4.499964
     86          1           0       -8.497570    3.064606   -4.733783
     87          1           0       -8.561968   -0.873602   -4.480166
     88          1           0       -8.451883   -2.465328   -4.395068
     89          1           0       -9.759641   -1.699660   -3.407331
     90          1           0       -4.174345   -3.755523   -1.646619
     91          1           0        2.531828   -5.978528    1.222943
     92          1           0        2.268153   -5.067010   -0.325198
     93          1           0        3.757938   -4.168717    2.197208
     94          1           0        2.762995   -2.985883   -1.462243
     95          1           0        4.493665   -2.085674   -1.551268
     96          1           0        4.486670   -3.790649   -1.819976
     97          1           0        5.113353   -1.300162    0.694149
     98          1           0        5.419144   -2.461221    1.927595
     99          1           0        6.731237   -3.716860    0.180653
    100          1           0        6.319391   -2.507818   -1.235809
    101          1           0        7.438741   -0.623950    0.563546
    102          1           0        7.610257   -2.038157    1.804674
    103          1           0        8.724369   -1.998400   -1.165055
    104          1           0        8.891981   -4.213251   -0.262104
    105          1           0       10.524977   -3.561800   -0.335883
    106          1           0        9.650098   -3.502149    1.309988
    107          1           0        9.471037    0.050606    0.605343
    108          1           0       10.011524   -0.894341    1.509252
    109          1           0       11.847835   -1.691168   -0.325548
    110          1           0       11.152119   -0.152869   -1.514129
    111          1           0       11.986927    1.581445   -0.078667
    112          1           0       12.264776    0.376526    1.252046
    113          1           0       13.258228    0.765878   -1.598692
    114          1           0       14.564307   -1.069570    0.692549
    115          1           0       13.832170   -1.808059   -0.833221
    116          1           0       15.514307   -0.753698   -0.449711
    117          1           0       13.572394    2.679929   -0.421128
    118          1           0       14.645514    1.871270    0.764629
    119          1           0       16.347878    1.378166   -0.965902
    120          1           0       15.265770    2.071904   -2.142500
    121          1           0       15.432567    4.336334   -0.846760
    122          1           0       16.315531    3.337213    0.293577
    123          1           0       18.132169    2.891299   -1.262407
    124          1           0       16.238133    4.717197   -2.905972
    125          1           0       17.978062    4.556907   -3.451111
    126          1           0       17.125598    3.123580   -3.584412
    127          1           0       18.549006    4.780231    0.245683
    128          1           0       18.782638    5.587084   -1.361929
    129          1           0       17.306059    5.978154   -0.842094
    130          1           0       -5.223194   -7.953056    0.066725
    131          1           0       -6.434731   -6.735710    0.834577
    132          1           0       -4.602323   -6.653509    1.410927
    133          8           0       -8.036005    6.805022   -0.401761
    134          1           0       -9.237291    5.975589   -2.032876
 ---------------------------------------------------------------------

 SCF Done:  E(RCAM-B3LYP) =  -3043.42913542     A.U. after   16 cycles

 Excitation energies and oscillator strengths:

 Excited State   1:      Singlet-A      2.0104 eV  616.72 nm  f=0.2094  <S**2>=0.000
     243 -> 246        0.25331
     244 -> 245        0.64696
 This state for optimization and/or second-order correction.
 Total Energy, E(TD-HF/TD-DFT) =  -3043.35525570
 Copying the excited state density for this state as the 1-particle RhoCI density.

 The electronic state is 1-A.
 Alpha  occ. eigenvalues --  -46.80517 -19.22914 -19.21336 -19.17738 -19.17279
 Alpha  occ. eigenvalues --  -19.17174 -19.17025 -19.15891 -14.39452 -14.36721
 Alpha  occ. eigenvalues --  -14.36296 -14.35918 -10.35230 -10.33956 -10.31859
 Alpha  occ. eigenvalues --  -10.31304 -10.30404 -10.29041 -10.28200 -10.27113
 Alpha  occ. eigenvalues --  -10.27019 -10.26806 -10.26502 -10.26489 -10.25807
 Alpha  occ. eigenvalues --  -10.25541 -10.25500 -10.25406 -10.24913 -10.24906
 Alpha  occ. eigenvalues --  -10.24823 -10.24465 -10.24451 -10.24353 -10.24342
 Alpha  occ. eigenvalues --  -10.23661 -10.23655 -10.23564 -10.23470 -10.23305
 Alpha  occ. eigenvalues --  -10.23215 -10.23044 -10.22956 -10.22846 -10.22711
 Alpha  occ. eigenvalues --  -10.22646 -10.22642 -10.22526 -10.22498 -10.22359
 Alpha  occ. eigenvalues --  -10.22282 -10.22207 -10.22189 -10.22128 -10.22013
 Alpha  occ. eigenvalues --  -10.21948 -10.21851 -10.21491 -10.21377 -10.21210
 Alpha  occ. eigenvalues --  -10.20849 -10.20662 -10.20508 -10.20283 -10.19931
 Alpha  occ. eigenvalues --  -10.19620  -3.09243  -1.84177  -1.83691  -1.83679
 Alpha  occ. eigenvalues --   -1.16385  -1.14148  -1.07131  -1.05958  -1.05691
 Alpha  occ. eigenvalues --   -1.04422  -1.03486  -1.02115  -1.00910  -0.98893
 Alpha  occ. eigenvalues --   -0.97865  -0.88445  -0.87275  -0.86095  -0.85990
 Alpha  occ. eigenvalues --   -0.85708  -0.84982  -0.84564  -0.84354  -0.83648
 Alpha  occ. eigenvalues --   -0.83381  -0.82774  -0.82422  -0.81112  -0.80323
 Alpha  occ. eigenvalues --   -0.79413  -0.78811  -0.78205  -0.78183  -0.76686
 Alpha  occ. eigenvalues --   -0.75622  -0.75414  -0.74768  -0.72826  -0.72522
 Alpha  occ. eigenvalues --   -0.71053  -0.70881  -0.70143  -0.70110  -0.70092
 Alpha  occ. eigenvalues --   -0.69757  -0.68619  -0.67512  -0.66619  -0.65955
 Alpha  occ. eigenvalues --   -0.65489  -0.64989  -0.63710  -0.63583  -0.62284
 Alpha  occ. eigenvalues --   -0.61944  -0.61614  -0.59944  -0.59306  -0.59099
 Alpha  occ. eigenvalues --   -0.58926  -0.58682  -0.58004  -0.57743  -0.57534
 Alpha  occ. eigenvalues --   -0.56813  -0.56203  -0.55913  -0.55404  -0.55305
 Alpha  occ. eigenvalues --   -0.54054  -0.53819  -0.53268  -0.52724  -0.52532
 Alpha  occ. eigenvalues --   -0.52249  -0.51957  -0.51798  -0.51301  -0.50872
 Alpha  occ. eigenvalues --   -0.50388  -0.50074  -0.49900  -0.49727  -0.49316
 Alpha  occ. eigenvalues --   -0.49156  -0.48944  -0.48803  -0.48499  -0.48116
 Alpha  occ. eigenvalues --   -0.47772  -0.47556  -0.47231  -0.47137  -0.46942
 Alpha  occ. eigenvalues --   -0.46645  -0.46593  -0.46423  -0.46099  -0.45969
 Alpha  occ. eigenvalues --   -0.45795  -0.45478  -0.45414  -0.45306  -0.44841
 Alpha  occ. eigenvalues --   -0.44621  -0.44521  -0.44465  -0.44171  -0.43782
 Alpha  occ. eigenvalues --   -0.43588  -0.43530  -0.43488  -0.43148  -0.42991
 Alpha  occ. eigenvalues --   -0.42523  -0.42423  -0.42239  -0.42105  -0.41733
 Alpha  occ. eigenvalues --   -0.41606  -0.41526  -0.41365  -0.40936  -0.40740
 Alpha  occ. eigenvalues --   -0.40665  -0.40595  -0.40431  -0.40270  -0.39911
 Alpha  occ. eigenvalues --   -0.39870  -0.39687  -0.39252  -0.39159  -0.38822
 Alpha  occ. eigenvalues --   -0.38678  -0.38557  -0.38338  -0.38265  -0.37807
 Alpha  occ. eigenvalues --   -0.37709  -0.37626  -0.37566  -0.37286  -0.36938
 Alpha  occ. eigenvalues --   -0.36542  -0.36350  -0.36064  -0.35929  -0.35751
 Alpha  occ. eigenvalues --   -0.35413  -0.35330  -0.34891  -0.34872  -0.34758
 Alpha  occ. eigenvalues --   -0.34416  -0.34236  -0.33941  -0.33513  -0.33414
 Alpha  occ. eigenvalues --   -0.32998  -0.32673  -0.32339  -0.31923  -0.31583
 Alpha  occ. eigenvalues --   -0.31423  -0.31289  -0.30438  -0.30189  -0.29243
 Alpha  occ. eigenvalues --   -0.28975  -0.28076  -0.27889  -0.27722  -0.27166
 Alpha  occ. eigenvalues --   -0.26990  -0.26793  -0.23101  -0.21822
 Alpha virt. eigenvalues --   -0.09155  -0.06391  -0.01834  -0.00519   0.00520
 Alpha virt. eigenvalues --    0.01638   0.02908   0.03864   0.04083   0.04714
 Alpha virt. eigenvalues --    0.05098   0.05755   0.07741   0.07986   0.08626

 Mulliken charges:
               1
     1  Mg   0.806033
     2  C    0.051146
     3  C   -0.176760
     4  C   -0.208180
     5  C   -0.114972
     6  N   -0.615802
     7  C    0.302614
     8  C   -0.114304
     9  C   -0.167268
    10  C    0.324629
    11  C   -0.315946
    12  C   -0.201628
    13  C   -0.267421
    14  C    0.597486
    15  O   -0.497609
    16  O   -0.452994
    17  N   -0.704784
    18  C    0.324997
    19  C    0.022265
    20  C   -0.006312
    21  C    0.265615
    22  C   -0.403752
    23  C    0.257610
    24  O   -0.401140
    25  N   -0.750509
    26  C    0.436598
    27  C   -0.036574
    28  C    0.037795
    29  C    0.305696
    30  C    0.235877
    31  C   -0.275913
    32  C   -0.285808
    33  N   -0.744120
    34  C    0.218593
    35  C    0.063886
    36  C   -0.012996
    37  C    0.366722
    38  C   -0.398299
    39  C    0.347545
    40  O   -0.472716
    41  C   -0.295506
    42  C    0.624121
    43  O   -0.476875
    44  O   -0.402975
    45  C   -0.075882
    46  C   -0.004277
    47  C   -0.126065
    48  C    0.131291
    49  C   -0.387932
    50  C   -0.238586
    51  C   -0.154701
    52  C   -0.181595
    53  C   -0.045931
    54  C   -0.284532
    55  C   -0.175487
    56  C   -0.136152
    57  C   -0.172805
    58  C   -0.029289
    59  C   -0.304170
    60  C   -0.177940
    61  C   -0.187707
    62  C   -0.128731
    63  C   -0.060346
    64  C   -0.303622
    65  C   -0.302003
    66  H    0.084819
    67  H    0.128028
    68  H    0.068358
    69  H    0.113188
    70  H    0.111749
    71  H    0.113549
    72  H    0.126627
    73  H    0.129523
    74  H    0.093992
    75  H    0.121778
    76  H    0.133217
    77  H    0.148438
    78  H    0.119570
    79  H    0.154198
    80  H    0.129063
    81  H    0.096991
    82  H    0.088038
    83  H    0.120446
    84  H    0.117224
    85  H    0.129105
    86  H    0.118717
    87  H    0.127757
    88  H    0.153985
    89  H    0.131176
    90  H    0.171971
    91  H    0.120389
    92  H    0.143384
    93  H    0.078515
    94  H    0.160836
    95  H    0.095956
    96  H    0.121859
    97  H    0.108603
    98  H    0.083104
    99  H    0.117230
   100  H    0.070168
   101  H    0.086975
   102  H    0.079576
   103  H    0.077061
   104  H    0.074541
   105  H    0.084888
   106  H    0.113316
   107  H    0.081415
   108  H    0.102431
   109  H    0.089517
   110  H    0.053752
   111  H    0.062621
   112  H    0.086633
   113  H    0.085014
   114  H    0.120177
   115  H    0.065175
   116  H    0.085551
   117  H    0.081459
   118  H    0.088155
   119  H    0.087302
   120  H    0.090117
   121  H    0.067518
   122  H    0.099557
   123  H    0.067877
   124  H    0.085244
   125  H    0.091723
   126  H    0.113258
   127  H    0.071021
   128  H    0.104990
   129  H    0.102811
   130  H    0.119618
   131  H    0.137026
   132  H    0.087511
   133  O   -0.441678
   134  H    0.024691
 Sum of Mulliken charges =  -0.00000

 Dipole moment (field-independent basis, Debye):
    X=              2.9836    Y=             -4.9413    Z=             -0.2589  Tot=              5.7780
 Quadrupole moment (field-independent basis, Debye-Ang):
   XX=           -370.1226   YY=           -444.9475   ZZ=           -392.3631
   XY=             15.3825   XZ=             29.3918   YZ=            -35.3537

 Normal termination of Gaussian 16 at Thu Oct 10 06:38:28 2019.
