 Gaussian 16, Revision A.03,
 Gaussian 16:  ES64L-G16RevA.03 25-Dec-2016

 ----------------------------------------------------------------------
 # td=(NStates=1) iop(3/107=0140000000,3/108=0140000000) iop(3/107=0140
 000000,3/108=0140000000) CAM-B3LYP/6-31G(d,p)
 ----------------------------------------------------------------------

 --
 TD
 --
 Symbolic Z-matrix:
 Charge =  0 Multiplicity = 1

                         Standard orientation:
 ---------------------------------------------------------------------
 Center     Atomic      Atomic             Coordinates (Angstroms)
 Number     Number       Type             X           Y           Z
 ---------------------------------------------------------------------
      1         12           0       -5.608691    1.171403    0.200623
      2          6           0       -4.995386   -2.105303   -0.382731
      3          6           0       -3.343348    1.139371    2.816442
      4          6           0       -6.262115    4.504931    0.818105
      5          6           0       -7.840653    1.262777   -2.417181
      6          7           0       -4.392227   -0.385257    0.998675
      7          6           0       -4.224999   -1.605544    0.551258
      8          6           0       -3.192387   -2.277781    1.390210
      9          6           0       -2.904859   -1.391715    2.592202
     10          6           0       -3.554938   -0.104266    2.003793
     11          6           0       -3.585991   -1.962179    3.821085
     12          6           0       -1.883472   -2.645173    0.692354
     13          6           0       -1.026733   -3.614242    1.374084
     14          6           0        0.266721   -4.012567    0.638232
     15          8           0        0.544943   -3.547811   -0.400470
     16          8           0        0.993061   -4.901151    1.318367
     17          7           0       -4.919036    2.538463    1.543206
     18          6           0       -4.047064    2.417389    2.526392
     19          6           0       -3.751136    3.600579    3.211734
     20          6           0       -4.537630    4.569085    2.616956
     21          6           0       -5.316369    3.910219    1.563353
     22          6           0       -2.972348    3.773235    4.481416
     23          6           0       -4.458405    5.985418    2.942749
     24          8           0       -3.848928    6.496886    3.963240
     25          7           0       -6.835389    2.653475   -0.626922
     26          6           0       -6.981265    3.934975   -0.256948
     27          6           0       -7.902914    4.633509   -1.082913
     28          6           0       -8.385020    3.735495   -2.093155
     29          6           0       -7.632992    2.485046   -1.792161
     30          6           0       -8.387357    6.017328   -0.974081
     31          6           0       -9.342732    3.955217   -3.210329
     32          6           0       -8.474965    4.276850   -4.527454
     33          7           0       -6.247567   -0.053142   -1.159137
     34          6           0       -7.167994    0.110672   -2.169434
     35          6           0       -7.392905   -1.194211   -2.890926
     36          6           0       -6.605685   -2.127180   -2.133641
     37          6           0       -5.880428   -1.371804   -1.190692
     38          6           0       -8.246485   -1.605412   -3.976289
     39          6           0       -6.214658   -3.376819   -2.040663
     40          8           0       -6.451387   -4.375364   -2.757445
     41          6           0       -5.048765   -3.461294   -0.951906
     42          6           0       -5.362771   -4.644531    0.085394
     43          8           0       -5.927652   -4.499984    1.161118
     44          8           0       -5.010736   -5.851678   -0.441948
     45          6           0       -5.406517   -6.932237    0.361944
     46          6           0        2.332415   -5.265007    0.672950
     47          6           0        3.334785   -4.242772    1.004637
     48          6           0        3.984476   -3.476278    0.187588
     49          6           0        3.759636   -3.291032   -1.259467
     50          6           0        5.029907   -2.405056    0.744901
     51          6           0        6.484713   -2.666765    0.140618
     52          6           0        7.646753   -1.880954    0.688476
     53          6           0        8.933206   -2.024726   -0.013625
     54          6           0        9.579272   -3.367269    0.224340
     55          6           0        9.951123   -0.811480    0.510509
     56          6           0       11.195870   -0.837698   -0.294003
     57          6           0       12.115118    0.349073    0.152013
     58          6           0       13.422811    0.465105   -0.623999
     59          6           0       14.306572   -0.739463   -0.396469
     60          6           0       14.143545    1.717100   -0.111823
     61          6           0       15.401261    2.143713   -0.952971
     62          6           0       15.937364    3.538223   -0.659078
     63          6           0       17.191226    3.978661   -1.393841
     64          6           0       17.063377    4.321594   -2.945704
     65          6           0       17.831345    5.312611   -0.809127
     66          1           0       -2.735715    1.233156    3.672304
     67          1           0       -6.434286    5.506099    0.868980
     68          1           0       -8.671388    1.277965   -3.037681
     69          1           0       -3.616074   -3.271914    1.791503
     70          1           0       -1.847908   -1.419686    2.655388
     71          1           0       -3.132845   -3.167205    3.814262
     72          1           0       -3.535829   -1.422345    4.722272
     73          1           0       -4.657119   -2.143402    3.721167
     74          1           0       -2.192731   -2.935063   -0.327931
     75          1           0       -1.324002   -1.797896    0.442820
     76          1           0       -0.806265   -3.109737    2.204456
     77          1           0       -1.391875   -4.485754    1.667984
     78          1           0       -1.668134    3.293413    4.406037
     79          1           0       -3.019401    4.854195    4.664103
     80          1           0       -3.552560    3.140708    5.301349
     81          1           0       -4.946702    6.760626    2.362071
     82          1           0       -9.896344    3.067844   -3.139544
     83          1           0      -10.059196    4.705194   -2.835988
     84          1           0       -9.206478    4.380167   -5.400107
     85          1           0       -8.000348    5.228573   -4.317258
     86          1           0       -7.571091    3.553739   -4.498871
     87          1           0       -7.998152   -1.025918   -4.933287
     88          1           0       -7.964092   -2.686773   -4.234423
     89          1           0       -9.314054   -1.551815   -3.784474
     90          1           0       -3.998946   -3.793398   -1.448194
     91          1           0        2.454333   -6.217483    0.933118
     92          1           0        1.950974   -5.348844   -0.406597
     93          1           0        3.789003   -4.286742    2.119295
     94          1           0        2.768730   -3.801392   -1.436588
     95          1           0        3.818252   -2.225149   -1.435793
     96          1           0        4.611369   -3.630652   -1.791693
     97          1           0        4.769355   -1.578009    0.416897
     98          1           0        5.101576   -2.409868    1.774179
     99          1           0        6.742379   -3.614598    0.295795
    100          1           0        6.393238   -2.480908   -0.895500
    101          1           0        7.354906   -0.723785    0.759508
    102          1           0        7.820295   -1.995907    1.650815
    103          1           0        8.751189   -1.765834   -1.021412
    104          1           0        8.806080   -4.192870    0.005155
    105          1           0       10.517148   -3.423953   -0.372682
    106          1           0        9.610137   -3.439656    1.330210
    107          1           0        9.385582    0.046546    0.466939
    108          1           0       10.061386   -0.915256    1.555946
    109          1           0       11.768683   -1.757030   -0.170156
    110          1           0       11.108126   -0.706741   -1.498311
    111          1           0       11.411288    1.249499   -0.041221
    112          1           0       12.188881    0.152049    1.337374
    113          1           0       13.307900    0.362148   -1.752287
    114          1           0       14.611102   -0.798877    0.697971
    115          1           0       14.028182   -1.689691   -0.782980
    116          1           0       15.181387   -0.834787   -0.972564
    117          1           0       13.463253    2.466308   -0.314778
    118          1           0       14.669676    1.492182    0.813230
    119          1           0       16.132375    1.373677   -0.684643
    120          1           0       15.409030    1.656598   -2.161094
    121          1           0       15.137196    4.288635   -0.781023
    122          1           0       16.037904    3.322470    0.408305
    123          1           0       18.062370    3.306308   -1.314840
    124          1           0       16.022709    4.878689   -2.986969
    125          1           0       17.947880    4.778694   -3.295386
    126          1           0       16.863617    3.227629   -3.371016
    127          1           0       17.635542    5.116700    0.396705
    128          1           0       18.924937    5.545429   -1.152931
    129          1           0       17.299666    6.336105   -0.910000
    130          1           0       -5.156599   -7.678827   -0.366207
    131          1           0       -6.664863   -6.926692    0.401768
    132          1           0       -5.223005   -6.938906    1.443983
    133          8           0       -7.745995    6.938793   -0.442268
    134          1           0       -9.175508    5.998364   -1.709180
 ---------------------------------------------------------------------

 SCF Done:  E(RCAM-B3LYP) =  -3043.40282522     A.U. after   15 cycles

 Excitation energies and oscillator strengths:

 Excited State   1:      Singlet-A      2.0772 eV  596.87 nm  f=0.1094  <S**2>=0.000
     243 -> 245        0.14749
     243 -> 246       -0.33884
     244 -> 245        0.58776
 This state for optimization and/or second-order correction.
 Total Energy, E(TD-HF/TD-DFT) =  -3043.32648776
 Copying the excited state density for this state as the 1-particle RhoCI density.

 The electronic state is 1-A.
 Alpha  occ. eigenvalues --  -46.81374 -19.23000 -19.21277 -19.17867 -19.17610
 Alpha  occ. eigenvalues --  -19.17226 -19.16435 -19.15439 -14.38980 -14.37348
 Alpha  occ. eigenvalues --  -14.37192 -14.37185 -10.35292 -10.33808 -10.30865
 Alpha  occ. eigenvalues --  -10.30592 -10.29578 -10.28963 -10.27679 -10.27541
 Alpha  occ. eigenvalues --  -10.26862 -10.26803 -10.26618 -10.26524 -10.26459
 Alpha  occ. eigenvalues --  -10.26262 -10.26241 -10.26034 -10.25468 -10.25380
 Alpha  occ. eigenvalues --  -10.24532 -10.24508 -10.24474 -10.24388 -10.24129
 Alpha  occ. eigenvalues --  -10.24017 -10.23804 -10.23391 -10.23383 -10.23166
 Alpha  occ. eigenvalues --  -10.23128 -10.22953 -10.22697 -10.22582 -10.22580
 Alpha  occ. eigenvalues --  -10.22422 -10.22357 -10.22154 -10.22132 -10.22028
 Alpha  occ. eigenvalues --  -10.22022 -10.21605 -10.21587 -10.21509 -10.21482
 Alpha  occ. eigenvalues --  -10.21436 -10.21107 -10.20824 -10.20710 -10.20551
 Alpha  occ. eigenvalues --  -10.20500 -10.19908 -10.19886 -10.19838 -10.19767
 Alpha  occ. eigenvalues --  -10.19573  -3.10109  -1.85036  -1.84562  -1.84555
 Alpha  occ. eigenvalues --   -1.13676  -1.13393  -1.05823  -1.04994  -1.04875
 Alpha  occ. eigenvalues --   -1.04242  -1.03298  -1.02658  -1.00516  -1.00151
 Alpha  occ. eigenvalues --   -0.98753  -0.90056  -0.87262  -0.86675  -0.86216
 Alpha  occ. eigenvalues --   -0.85755  -0.84981  -0.84902  -0.84445  -0.84140
 Alpha  occ. eigenvalues --   -0.83534  -0.82941  -0.82278  -0.80801  -0.80247
 Alpha  occ. eigenvalues --   -0.79125  -0.78706  -0.77938  -0.77083  -0.76951
 Alpha  occ. eigenvalues --   -0.75955  -0.75191  -0.73991  -0.72843  -0.72033
 Alpha  occ. eigenvalues --   -0.71894  -0.71493  -0.70611  -0.70000  -0.69750
 Alpha  occ. eigenvalues --   -0.69175  -0.68294  -0.68179  -0.67879  -0.67696
 Alpha  occ. eigenvalues --   -0.67034  -0.65694  -0.64951  -0.63073  -0.62759
 Alpha  occ. eigenvalues --   -0.62201  -0.61607  -0.59960  -0.59738  -0.59266
 Alpha  occ. eigenvalues --   -0.58816  -0.58487  -0.58312  -0.57841  -0.57797
 Alpha  occ. eigenvalues --   -0.57291  -0.56469  -0.55688  -0.54837  -0.54461
 Alpha  occ. eigenvalues --   -0.54228  -0.53369  -0.52741  -0.52695  -0.52336
 Alpha  occ. eigenvalues --   -0.51998  -0.51552  -0.51429  -0.51085  -0.50852
 Alpha  occ. eigenvalues --   -0.50488  -0.50230  -0.49891  -0.49606  -0.49495
 Alpha  occ. eigenvalues --   -0.49358  -0.49140  -0.48771  -0.48739  -0.48040
 Alpha  occ. eigenvalues --   -0.47651  -0.47500  -0.47055  -0.46733  -0.46622
 Alpha  occ. eigenvalues --   -0.46531  -0.46314  -0.46274  -0.46054  -0.45862
 Alpha  occ. eigenvalues --   -0.45713  -0.45531  -0.45268  -0.45202  -0.45128
 Alpha  occ. eigenvalues --   -0.44691  -0.44408  -0.44121  -0.44062  -0.43957
 Alpha  occ. eigenvalues --   -0.43850  -0.43674  -0.43452  -0.43248  -0.43003
 Alpha  occ. eigenvalues --   -0.42863  -0.42401  -0.42334  -0.42031  -0.41727
 Alpha  occ. eigenvalues --   -0.41616  -0.41500  -0.41352  -0.41269  -0.41121
 Alpha  occ. eigenvalues --   -0.40925  -0.40741  -0.40629  -0.40438  -0.40338
 Alpha  occ. eigenvalues --   -0.40291  -0.39948  -0.39877  -0.39718  -0.39388
 Alpha  occ. eigenvalues --   -0.39258  -0.39127  -0.38668  -0.38566  -0.38477
 Alpha  occ. eigenvalues --   -0.38423  -0.38041  -0.37831  -0.37479  -0.37110
 Alpha  occ. eigenvalues --   -0.37052  -0.36545  -0.35714  -0.35671  -0.35596
 Alpha  occ. eigenvalues --   -0.35271  -0.35076  -0.35008  -0.34871  -0.34618
 Alpha  occ. eigenvalues --   -0.34332  -0.34017  -0.33899  -0.33792  -0.33359
 Alpha  occ. eigenvalues --   -0.32747  -0.32389  -0.32097  -0.31914  -0.31892
 Alpha  occ. eigenvalues --   -0.30924  -0.30395  -0.30217  -0.29670  -0.29436
 Alpha  occ. eigenvalues --   -0.28804  -0.28334  -0.28229  -0.28202  -0.27775
 Alpha  occ. eigenvalues --   -0.27667  -0.26928  -0.22888  -0.22417
 Alpha virt. eigenvalues --   -0.08905  -0.07279  -0.02526  -0.01891  -0.00011
 Alpha virt. eigenvalues --    0.03068   0.03468   0.03892   0.03960   0.04429
 Alpha virt. eigenvalues --    0.05086   0.06389   0.07255   0.08064   0.09166

 Mulliken charges:
               1
     1  Mg   0.828117
     2  C    0.135540
     3  C   -0.177781
     4  C   -0.141986
     5  C   -0.151238
     6  N   -0.627573
     7  C    0.373080
     8  C   -0.200634
     9  C   -0.108670
    10  C    0.300786
    11  C   -0.295127
    12  C   -0.192342
    13  C   -0.241542
    14  C    0.589640
    15  O   -0.447898
    16  O   -0.493718
    17  N   -0.703147
    18  C    0.325009
    19  C    0.068060
    20  C   -0.020648
    21  C    0.307696
    22  C   -0.366407
    23  C    0.218694
    24  O   -0.444945
    25  N   -0.683488
    26  C    0.321795
    27  C   -0.048699
    28  C    0.002209
    29  C    0.247451
    30  C    0.255482
    31  C   -0.240302
    32  C   -0.311741
    33  N   -0.749976
    34  C    0.290835
    35  C    0.054643
    36  C    0.170483
    37  C    0.239834
    38  C   -0.419016
    39  C    0.262524
    40  O   -0.500771
    41  C   -0.349934
    42  C    0.609093
    43  O   -0.471582
    44  O   -0.421087
    45  C   -0.085869
    46  C   -0.014356
    47  C   -0.134308
    48  C    0.147570
    49  C   -0.365109
    50  C   -0.214997
    51  C   -0.183981
    52  C   -0.175203
    53  C   -0.059524
    54  C   -0.301515
    55  C   -0.179259
    56  C   -0.176958
    57  C   -0.157121
    58  C   -0.058074
    59  C   -0.321618
    60  C   -0.153174
    61  C   -0.205919
    62  C   -0.151304
    63  C   -0.054473
    64  C   -0.288360
    65  C   -0.305137
    66  H    0.086252
    67  H    0.109663
    68  H    0.090617
    69  H    0.108107
    70  H    0.112344
    71  H    0.071827
    72  H    0.116727
    73  H    0.135657
    74  H    0.099320
    75  H    0.118753
    76  H    0.132942
    77  H    0.130082
    78  H    0.062254
    79  H    0.179917
    80  H    0.121150
    81  H    0.109572
    82  H    0.122801
    83  H    0.115655
    84  H    0.119620
    85  H    0.133199
    86  H    0.122646
    87  H    0.122637
    88  H    0.158233
    89  H    0.141271
    90  H    0.142241
    91  H    0.127609
    92  H    0.123418
    93  H    0.072363
    94  H    0.136508
    95  H    0.116466
    96  H    0.126844
    97  H    0.113829
    98  H    0.094230
    99  H    0.105963
   100  H    0.092273
   101  H    0.049339
   102  H    0.093217
   103  H    0.085394
   104  H    0.088297
   105  H    0.110393
   106  H    0.100132
   107  H    0.097269
   108  H    0.091987
   109  H    0.103749
   110  H    0.064210
   111  H    0.080543
   112  H    0.072223
   113  H    0.085741
   114  H    0.087778
   115  H    0.097895
   116  H    0.103578
   117  H    0.104363
   118  H    0.106942
   119  H    0.097679
   120  H    0.028990
   121  H    0.094404
   122  H    0.100705
   123  H    0.093784
   124  H    0.092963
   125  H    0.114872
   126  H    0.084964
   127  H    0.062890
   128  H    0.093593
   129  H    0.092813
   130  H    0.132044
   131  H    0.087038
   132  H    0.144604
   133  O   -0.435206
   134  H    0.065792
 Sum of Mulliken charges =  -0.00000

 Dipole moment (field-independent basis, Debye):
    X=              1.2931    Y=             -3.8321    Z=             -1.5711  Tot=              4.3388
 Quadrupole moment (field-independent basis, Debye-Ang):
   XX=           -359.6881   YY=           -445.5157   ZZ=           -398.6408
   XY=            -14.7671   XZ=             25.1761   YZ=            -35.5602

 Normal termination of Gaussian 16 at Fri Oct  4 11:34:04 2019.
