 Gaussian 16, Revision A.03,
 Gaussian 16:  ES64L-G16RevA.03 25-Dec-2016

 ----------------------------------------------------------------------
 # td=(NStates=1) iop(3/107=0140000000,3/108=0140000000) iop(3/107=0140
 000000,3/108=0140000000) CAM-B3LYP/6-31G(d,p)
 ----------------------------------------------------------------------

 --
 TD
 --
 Symbolic Z-matrix:
 Charge =  0 Multiplicity = 1

                         Standard orientation:
 ---------------------------------------------------------------------
 Center     Atomic      Atomic             Coordinates (Angstroms)
 Number     Number       Type             X           Y           Z
 ---------------------------------------------------------------------
      1         12           0       -5.632761    1.327331    0.216140
      2          6           0       -5.058514   -2.188103   -0.386985
      3          6           0       -3.443490    1.120084    2.789345
      4          6           0       -6.185769    4.573600    0.628839
      5          6           0       -7.990389    1.145702   -2.267623
      6          7           0       -4.425482   -0.278803    1.081870
      7          6           0       -4.281538   -1.699230    0.619070
      8          6           0       -3.310467   -2.376668    1.503184
      9          6           0       -2.993937   -1.374227    2.618013
     10          6           0       -3.633129   -0.091481    2.153282
     11          6           0       -3.455566   -1.815824    4.111506
     12          6           0       -1.955140   -2.723276    0.820900
     13          6           0       -0.922007   -3.581378    1.559856
     14          6           0        0.247098   -3.861660    0.691479
     15          8           0        0.414743   -3.400987   -0.411587
     16          8           0        1.136026   -4.686906    1.345930
     17          7           0       -4.957646    2.583049    1.460936
     18          6           0       -4.051507    2.375299    2.453403
     19          6           0       -3.686352    3.604396    3.063095
     20          6           0       -4.510497    4.671098    2.544393
     21          6           0       -5.296543    3.938701    1.528404
     22          6           0       -2.676018    3.752621    4.195214
     23          6           0       -4.658746    5.972057    2.928266
     24          8           0       -3.956488    6.683726    3.697994
     25          7           0       -6.884925    2.606678   -0.592209
     26          6           0       -6.899709    3.934617   -0.380161
     27          6           0       -7.907331    4.550411   -1.159553
     28          6           0       -8.447325    3.460972   -2.060227
     29          6           0       -7.727682    2.346596   -1.674356
     30          6           0       -8.300015    5.994444   -1.199230
     31          6           0       -9.467200    3.776064   -3.130128
     32          6           0       -8.883139    4.105566   -4.554004
     33          7           0       -6.266886   -0.087615   -1.174516
     34          6           0       -7.315078   -0.041675   -2.011220
     35          6           0       -7.618983   -1.364827   -2.735313
     36          6           0       -6.718721   -2.140264   -2.084116
     37          6           0       -5.910583   -1.456840   -1.154002
     38          6           0       -8.583862   -1.628934   -3.740777
     39          6           0       -6.294692   -3.554734   -1.937693
     40          8           0       -6.585785   -4.532563   -2.626446
     41          6           0       -5.155814   -3.626423   -0.973635
     42          6           0       -5.379442   -4.632869    0.175284
     43          8           0       -5.865062   -4.329990    1.244664
     44          8           0       -5.114806   -5.879837   -0.291270
     45          6           0       -5.655968   -6.859584    0.560633
     46          6           0        2.382663   -4.972045    0.532904
     47          6           0        3.557055   -4.019232    0.928547
     48          6           0        3.936193   -3.059482    0.093658
     49          6           0        3.700724   -3.019379   -1.447253
     50          6           0        5.106129   -2.171286    0.427304
     51          6           0        6.575249   -2.658894   -0.113210
     52          6           0        7.632305   -1.716028    0.466416
     53          6           0        9.012220   -1.953351   -0.133926
     54          6           0        9.504453   -3.393900    0.081423
     55          6           0       10.045652   -0.903075    0.339286
     56          6           0       11.434696   -0.943544   -0.416273
     57          6           0       12.290819    0.220106    0.209745
     58          6           0       13.667028    0.376399   -0.518576
     59          6           0       14.577884   -0.859361   -0.184080
     60          6           0       14.425350    1.675587   -0.039721
     61          6           0       15.577352    2.068787   -0.937938
     62          6           0       16.136451    3.448107   -0.654274
     63          6           0       17.339868    3.945213   -1.386012
     64          6           0       17.265970    3.993142   -2.835483
     65          6           0       17.896898    5.208149   -0.651711
     66          1           0       -2.643359    1.326573    3.634955
     67          1           0       -6.397587    5.571243    0.637474
     68          1           0       -8.676318    1.178306   -3.042011
     69          1           0       -3.868078   -3.290579    1.814481
     70          1           0       -1.902691   -0.866005    2.699829
     71          1           0       -2.676865   -2.544233    4.375883
     72          1           0       -3.122688   -0.923737    4.581568
     73          1           0       -4.463693   -1.816474    4.015374
     74          1           0       -2.165361   -3.283160   -0.158876
     75          1           0       -1.309435   -1.874762    0.340226
     76          1           0       -0.531907   -3.207283    2.703064
     77          1           0       -1.383159   -4.646055    1.712475
     78          1           0       -1.706504    2.998870    3.927448
     79          1           0       -2.526177    4.827621    4.177789
     80          1           0       -3.196046    3.254764    5.127029
     81          1           0       -5.470572    6.520454    2.168957
     82          1           0      -10.312441    3.059877   -3.248111
     83          1           0       -9.908127    4.660171   -2.745537
     84          1           0       -9.528614    4.182602   -5.288154
     85          1           0       -8.221115    5.102830   -4.527941
     86          1           0       -8.288640    3.107862   -5.065434
     87          1           0       -8.652830   -0.634345   -4.500968
     88          1           0       -8.115791   -2.388267   -4.475625
     89          1           0       -9.639940   -1.852063   -3.112652
     90          1           0       -4.149932   -3.769193   -1.501144
     91          1           0        2.461554   -5.935355    0.933236
     92          1           0        2.198484   -4.997155   -0.529471
     93          1           0        3.863714   -4.160087    2.085540
     94          1           0        2.544240   -3.033216   -1.560583
     95          1           0        4.019541   -1.887418   -1.602541
     96          1           0        4.331737   -3.642223   -2.130782
     97          1           0        4.816318   -1.125044    0.080950
     98          1           0        5.219334   -2.256499    1.524707
     99          1           0        6.938625   -3.706800    0.225254
    100          1           0        6.570256   -2.393456   -1.197525
    101          1           0        7.387244   -0.680856    0.377413
    102          1           0        7.844134   -1.745504    1.499224
    103          1           0        8.864559   -1.704926   -1.189610
    104          1           0        8.818831   -4.135952   -0.234558
    105          1           0       10.420844   -3.490324   -0.406966
    106          1           0        9.462782   -3.450333    1.240299
    107          1           0        9.518552   -0.002896    0.424924
    108          1           0       10.340754   -0.966819    1.463376
    109          1           0       11.835683   -1.918861   -0.334834
    110          1           0       11.172380   -0.880141   -1.391648
    111          1           0       11.715296    1.087485    0.248363
    112          1           0       12.514634   -0.015476    1.250215
    113          1           0       13.479014    0.481536   -1.622714
    114          1           0       14.892770   -1.021837    0.822984
    115          1           0       14.001556   -1.880844   -0.399400
    116          1           0       15.382034   -1.007728   -1.015542
    117          1           0       13.650805    2.554892   -0.114963
    118          1           0       14.761857    1.576267    1.160437
    119          1           0       16.277594    1.255434   -0.771285
    120          1           0       15.081215    2.079637   -1.946276
    121          1           0       15.266938    4.141344   -0.848323
    122          1           0       16.139133    3.469917    0.415754
    123          1           0       18.184401    3.227227   -1.307015
    124          1           0       16.535126    4.842122   -3.253142
    125          1           0       18.238390    4.176731   -3.248191
    126          1           0       16.928187    2.962832   -3.342622
    127          1           0       17.693920    5.103504    0.485628
    128          1           0       18.934259    5.341027   -1.024783
    129          1           0       17.304417    6.100750   -1.013957
    130          1           0       -5.288139   -7.677698   -0.066859
    131          1           0       -6.655377   -6.717451    0.675907
    132          1           0       -5.180921   -6.809572    1.551512
    133          8           0       -7.879876    6.757308   -0.418162
    134          1           0       -9.102524    6.150737   -2.053271
 ---------------------------------------------------------------------

 SCF Done:  E(RCAM-B3LYP) =  -3043.47104549     A.U. after   16 cycles

 Excitation energies and oscillator strengths:

 Excited State   1:      Singlet-A      1.9734 eV  628.27 nm  f=0.1514  <S**2>=0.000
     243 -> 246        0.27937
     244 -> 245        0.64186
 This state for optimization and/or second-order correction.
 Total Energy, E(TD-HF/TD-DFT) =  -3043.39852371
 Copying the excited state density for this state as the 1-particle RhoCI density.

 The electronic state is 1-A.
 Alpha  occ. eigenvalues --  -46.79729 -19.23777 -19.21772 -19.19312 -19.17735
 Alpha  occ. eigenvalues --  -19.17711 -19.17082 -19.16434 -14.38698 -14.36990
 Alpha  occ. eigenvalues --  -14.36800 -14.35704 -10.36497 -10.34900 -10.31416
 Alpha  occ. eigenvalues --  -10.30846 -10.29960 -10.27828 -10.27214 -10.27103
 Alpha  occ. eigenvalues --  -10.27037 -10.26802 -10.26634 -10.26381 -10.26144
 Alpha  occ. eigenvalues --  -10.25944 -10.25860 -10.25702 -10.25268 -10.25205
 Alpha  occ. eigenvalues --  -10.25060 -10.24945 -10.24913 -10.24618 -10.24414
 Alpha  occ. eigenvalues --  -10.24338 -10.24171 -10.24048 -10.23824 -10.23668
 Alpha  occ. eigenvalues --  -10.23510 -10.23212 -10.23210 -10.23174 -10.23126
 Alpha  occ. eigenvalues --  -10.23110 -10.22757 -10.22582 -10.22457 -10.22430
 Alpha  occ. eigenvalues --  -10.22403 -10.22377 -10.22320 -10.21910 -10.21588
 Alpha  occ. eigenvalues --  -10.21354 -10.21254 -10.21072 -10.20962 -10.20493
 Alpha  occ. eigenvalues --  -10.20479 -10.20193 -10.20021 -10.19992 -10.19915
 Alpha  occ. eigenvalues --  -10.19622  -3.08739  -1.83641  -1.83219  -1.83183
 Alpha  occ. eigenvalues --   -1.15354  -1.12177  -1.10004  -1.07211  -1.06548
 Alpha  occ. eigenvalues --   -1.04391  -1.03549  -1.00225  -0.99576  -0.98819
 Alpha  occ. eigenvalues --   -0.97629  -0.89857  -0.85774  -0.85551  -0.85394
 Alpha  occ. eigenvalues --   -0.85144  -0.84682  -0.84458  -0.83464  -0.83336
 Alpha  occ. eigenvalues --   -0.82948  -0.82726  -0.81499  -0.80746  -0.79763
 Alpha  occ. eigenvalues --   -0.79165  -0.78073  -0.77793  -0.76963  -0.76332
 Alpha  occ. eigenvalues --   -0.75333  -0.74909  -0.74088  -0.73938  -0.71964
 Alpha  occ. eigenvalues --   -0.70862  -0.70681  -0.70059  -0.69596  -0.69411
 Alpha  occ. eigenvalues --   -0.69166  -0.68848  -0.67577  -0.67285  -0.66434
 Alpha  occ. eigenvalues --   -0.66166  -0.65051  -0.63906  -0.62137  -0.61890
 Alpha  occ. eigenvalues --   -0.61728  -0.61370  -0.61318  -0.59976  -0.58753
 Alpha  occ. eigenvalues --   -0.57858  -0.57631  -0.57405  -0.57279  -0.56365
 Alpha  occ. eigenvalues --   -0.56026  -0.55581  -0.55182  -0.54472  -0.54031
 Alpha  occ. eigenvalues --   -0.53632  -0.53274  -0.52490  -0.52014  -0.51856
 Alpha  occ. eigenvalues --   -0.51454  -0.51277  -0.51134  -0.50781  -0.50586
 Alpha  occ. eigenvalues --   -0.50545  -0.50032  -0.49743  -0.49367  -0.49129
 Alpha  occ. eigenvalues --   -0.48959  -0.48712  -0.48570  -0.48258  -0.48014
 Alpha  occ. eigenvalues --   -0.47818  -0.47312  -0.47129  -0.46911  -0.46786
 Alpha  occ. eigenvalues --   -0.46522  -0.46401  -0.46283  -0.46014  -0.45867
 Alpha  occ. eigenvalues --   -0.45696  -0.45370  -0.45338  -0.44994  -0.44780
 Alpha  occ. eigenvalues --   -0.44573  -0.44356  -0.44134  -0.44057  -0.43868
 Alpha  occ. eigenvalues --   -0.43794  -0.43418  -0.43163  -0.43033  -0.42616
 Alpha  occ. eigenvalues --   -0.42355  -0.42259  -0.42154  -0.41853  -0.41667
 Alpha  occ. eigenvalues --   -0.41618  -0.41422  -0.41052  -0.41000  -0.40869
 Alpha  occ. eigenvalues --   -0.40723  -0.40506  -0.40322  -0.40128  -0.40078
 Alpha  occ. eigenvalues --   -0.39814  -0.39750  -0.39538  -0.39194  -0.38964
 Alpha  occ. eigenvalues --   -0.38872  -0.38423  -0.38260  -0.38031  -0.37969
 Alpha  occ. eigenvalues --   -0.37868  -0.37809  -0.37626  -0.37223  -0.37011
 Alpha  occ. eigenvalues --   -0.36946  -0.36615  -0.36464  -0.35905  -0.35841
 Alpha  occ. eigenvalues --   -0.35432  -0.35233  -0.35139  -0.34682  -0.34647
 Alpha  occ. eigenvalues --   -0.34504  -0.34134  -0.34036  -0.33767  -0.33665
 Alpha  occ. eigenvalues --   -0.33033  -0.32622  -0.32560  -0.32132  -0.32053
 Alpha  occ. eigenvalues --   -0.31938  -0.31175  -0.31034  -0.30415  -0.29996
 Alpha  occ. eigenvalues --   -0.28706  -0.28065  -0.27935  -0.27839  -0.27766
 Alpha  occ. eigenvalues --   -0.27000  -0.26662  -0.22823  -0.21614
 Alpha virt. eigenvalues --   -0.08735  -0.06989  -0.02202  -0.01018   0.00840
 Alpha virt. eigenvalues --    0.02070   0.02303   0.03333   0.04100   0.04428
 Alpha virt. eigenvalues --    0.04974   0.05891   0.07332   0.07611   0.08577

 Mulliken charges:
               1
     1  Mg   0.841980
     2  C    0.094438
     3  C   -0.197919
     4  C   -0.152613
     5  C   -0.151542
     6  N   -0.625320
     7  C    0.253874
     8  C   -0.163274
     9  C   -0.179500
    10  C    0.379414
    11  C   -0.291850
    12  C   -0.175631
    13  C   -0.252887
    14  C    0.628008
    15  O   -0.465024
    16  O   -0.498475
    17  N   -0.754906
    18  C    0.360698
    19  C   -0.009382
    20  C    0.095093
    21  C    0.280645
    22  C   -0.358814
    23  C    0.179905
    24  O   -0.449210
    25  N   -0.739588
    26  C    0.328600
    27  C   -0.089340
    28  C    0.042479
    29  C    0.315004
    30  C    0.263901
    31  C   -0.255142
    32  C   -0.287621
    33  N   -0.691189
    34  C    0.268639
    35  C    0.075605
    36  C    0.031899
    37  C    0.258797
    38  C   -0.388076
    39  C    0.364543
    40  O   -0.464595
    41  C   -0.300832
    42  C    0.615765
    43  O   -0.459929
    44  O   -0.433551
    45  C   -0.089394
    46  C   -0.001095
    47  C   -0.112974
    48  C    0.116089
    49  C   -0.367664
    50  C   -0.236837
    51  C   -0.164649
    52  C   -0.182786
    53  C   -0.070423
    54  C   -0.301897
    55  C   -0.185411
    56  C   -0.183470
    57  C   -0.169691
    58  C   -0.049209
    59  C   -0.318446
    60  C   -0.167199
    61  C   -0.165869
    62  C   -0.160751
    63  C   -0.035616
    64  C   -0.298701
    65  C   -0.308050
    66  H    0.074468
    67  H    0.118033
    68  H    0.077243
    69  H    0.131294
    70  H    0.097212
    71  H    0.124723
    72  H    0.116548
    73  H    0.139886
    74  H    0.097140
    75  H    0.123652
    76  H    0.115317
    77  H    0.127302
    78  H    0.092587
    79  H    0.162715
    80  H    0.131213
    81  H    0.053100
    82  H    0.109505
    83  H    0.120615
    84  H    0.132868
    85  H    0.102695
    86  H    0.067708
    87  H    0.099328
    88  H    0.152727
    89  H    0.133128
    90  H    0.170995
    91  H    0.115372
    92  H    0.136604
    93  H    0.081992
    94  H    0.145007
    95  H    0.083887
    96  H    0.131541
    97  H    0.097960
    98  H    0.092736
    99  H    0.102663
   100  H    0.099636
   101  H    0.088293
   102  H    0.091881
   103  H    0.074771
   104  H    0.103473
   105  H    0.107579
   106  H    0.088972
   107  H    0.091163
   108  H    0.061561
   109  H    0.104626
   110  H    0.102177
   111  H    0.098367
   112  H    0.094033
   113  H    0.082095
   114  H    0.118334
   115  H    0.074610
   116  H    0.097466
   117  H    0.065786
   118  H    0.053063
   119  H    0.097429
   120  H    0.086420
   121  H    0.076414
   122  H    0.090170
   123  H    0.083844
   124  H    0.073109
   125  H    0.106738
   126  H    0.090939
   127  H    0.101267
   128  H    0.099291
   129  H    0.095674
   130  H    0.130561
   131  H    0.143256
   132  H    0.123749
   133  O   -0.390573
   134  H    0.045026
 Sum of Mulliken charges =  -0.00000

 Dipole moment (field-independent basis, Debye):
    X=              1.5826    Y=             -6.9102    Z=             -2.0082  Tot=              7.3681
 Quadrupole moment (field-independent basis, Debye-Ang):
   XX=           -365.9276   YY=           -446.9882   ZZ=           -395.1498
   XY=             14.1954   XZ=             22.5225   YZ=            -37.9953

 Normal termination of Gaussian 16 at Tue Oct  8 02:46:50 2019.
