 Gaussian 16, Revision A.03,
 Gaussian 16:  ES64L-G16RevA.03 25-Dec-2016

 ----------------------------------------------------------------------
 # td=(NStates=1) iop(3/107=0140000000,3/108=0140000000) iop(3/107=0140
 000000,3/108=0140000000) CAM-B3LYP/6-31G(d,p)
 ----------------------------------------------------------------------

 --
 TD
 --
 Symbolic Z-matrix:
 Charge =  0 Multiplicity = 1

                         Standard orientation:
 ---------------------------------------------------------------------
 Center     Atomic      Atomic             Coordinates (Angstroms)
 Number     Number       Type             X           Y           Z
 ---------------------------------------------------------------------
      1         12           0       -5.638188    1.289805    0.240011
      2          6           0       -5.012157   -2.157458   -0.274597
      3          6           0       -3.348902    1.171039    2.787786
      4          6           0       -6.137295    4.511672    0.663653
      5          6           0       -8.011326    1.085179   -2.260614
      6          7           0       -4.386470   -0.342852    1.082290
      7          6           0       -4.311444   -1.643385    0.601668
      8          6           0       -3.297402   -2.384285    1.449681
      9          6           0       -2.854648   -1.406719    2.665434
     10          6           0       -3.567851   -0.107949    2.116850
     11          6           0       -3.484596   -1.828384    4.039548
     12          6           0       -2.019239   -2.698785    0.616008
     13          6           0       -1.015974   -3.529468    1.347634
     14          6           0        0.245622   -3.880682    0.498113
     15          8           0        0.435624   -3.363153   -0.588722
     16          8           0        1.131839   -4.676042    1.117653
     17          7           0       -4.930210    2.626381    1.515083
     18          6           0       -4.026323    2.408409    2.426963
     19          6           0       -3.677623    3.667295    3.099491
     20          6           0       -4.474962    4.607306    2.545580
     21          6           0       -5.223275    3.951904    1.547745
     22          6           0       -2.734303    3.862201    4.253994
     23          6           0       -4.604558    6.041807    2.804482
     24          8           0       -3.985556    6.528587    3.744053
     25          7           0       -6.925509    2.646109   -0.677424
     26          6           0       -6.973601    3.898969   -0.327620
     27          6           0       -8.008981    4.564009   -1.162374
     28          6           0       -8.440908    3.696360   -2.056587
     29          6           0       -7.790628    2.400409   -1.771376
     30          6           0       -8.251898    6.015852   -1.207947
     31          6           0       -9.528652    3.864671   -3.117031
     32          6           0       -8.888230    4.146333   -4.486477
     33          7           0       -6.337143   -0.216414   -1.045422
     34          6           0       -7.281790   -0.110782   -2.069961
     35          6           0       -7.608843   -1.372290   -2.611706
     36          6           0       -6.706302   -2.239137   -1.956277
     37          6           0       -5.999389   -1.428608   -1.050454
     38          6           0       -8.476545   -1.732620   -3.733433
     39          6           0       -6.258142   -3.551985   -1.993663
     40          8           0       -6.661085   -4.549244   -2.660648
     41          6           0       -5.000409   -3.569037   -0.907934
     42          6           0       -5.308164   -4.687918    0.205790
     43          8           0       -5.805195   -4.430474    1.279820
     44          8           0       -5.082214   -5.908777   -0.388976
     45          6           0       -5.282816   -6.940349    0.542996
     46          6           0        2.381001   -5.016290    0.426750
     47          6           0        3.463825   -4.140266    0.857059
     48          6           0        4.016660   -3.167206    0.091065
     49          6           0        3.590640   -2.814346   -1.323287
     50          6           0        5.057270   -2.422102    0.577679
     51          6           0        6.478247   -2.547329   -0.018235
     52          6           0        7.634375   -1.730043    0.601498
     53          6           0        9.073810   -1.891537   -0.024334
     54          6           0        9.575367   -3.370501    0.156687
     55          6           0       10.016867   -0.855528    0.518107
     56          6           0       11.437905   -0.850003   -0.183087
     57          6           0       12.227718    0.332277    0.263333
     58          6           0       13.586799    0.386068   -0.395919
     59          6           0       14.449024   -0.850532   -0.065903
     60          6           0       14.259657    1.752590   -0.185117
     61          6           0       15.451072    2.062706   -1.067072
     62          6           0       15.965986    3.532931   -0.680716
     63          6           0       17.344272    3.858644   -1.489087
     64          6           0       17.176065    3.911379   -2.972274
     65          6           0       18.033752    5.138522   -0.804068
     66          1           0       -2.543868    1.322315    3.566084
     67          1           0       -6.304266    5.501888    0.785302
     68          1           0       -8.704302    0.974907   -3.199555
     69          1           0       -3.492175   -3.438117    2.087460
     70          1           0       -1.726968   -1.425049    2.581869
     71          1           0       -3.207524   -2.818551    4.239695
     72          1           0       -3.037324   -1.071311    4.770949
     73          1           0       -4.697703   -1.593240    3.967368
     74          1           0       -2.408653   -3.251822   -0.328062
     75          1           0       -1.586926   -1.845970    0.251535
     76          1           0       -0.706596   -2.913148    2.210987
     77          1           0       -1.394534   -4.560435    1.772566
     78          1           0       -1.659874    3.883563    4.040305
     79          1           0       -3.049329    4.780279    5.003610
     80          1           0       -2.916761    3.033015    4.967441
     81          1           0       -5.222931    6.727992    2.310803
     82          1           0      -10.388602    3.137326   -3.293324
     83          1           0      -10.224810    4.834013   -2.929473
     84          1           0       -9.563898    4.422995   -5.096661
     85          1           0       -8.142454    5.240379   -4.566564
     86          1           0       -8.297923    3.346849   -4.944526
     87          1           0       -8.320572   -1.159686   -4.601683
     88          1           0       -8.479407   -2.787009   -4.062068
     89          1           0       -9.550436   -1.576966   -3.474353
     90          1           0       -3.913411   -3.892769   -1.186752
     91          1           0        2.672216   -6.043391    0.950523
     92          1           0        1.970463   -5.177613   -0.654031
     93          1           0        3.746110   -4.017412    2.098366
     94          1           0        2.571605   -3.199277   -1.606391
     95          1           0        3.463447   -1.836835   -1.689137
     96          1           0        4.416435   -3.190672   -2.147422
     97          1           0        4.924899   -1.380506    0.360167
     98          1           0        5.098230   -2.380855    1.832501
     99          1           0        6.817723   -3.597616    0.127262
    100          1           0        6.428603   -2.227451   -1.188391
    101          1           0        7.560864   -0.618852    0.559823
    102          1           0        7.724140   -1.829878    1.777397
    103          1           0        8.857345   -1.810850   -1.085851
    104          1           0        8.894079   -4.097340   -0.214309
    105          1           0       10.270165   -3.424782   -0.584325
    106          1           0        9.877149   -3.266707    1.249172
    107          1           0        9.429499    0.116311    0.431568
    108          1           0       10.228686   -1.021763    1.665808
    109          1           0       11.795017   -1.742344   -0.033198
    110          1           0       11.210479   -0.920532   -1.297669
    111          1           0       11.621209    1.201237    0.053131
    112          1           0       12.442740    0.354048    1.402320
    113          1           0       13.480357    0.165385   -1.562278
    114          1           0       14.711197   -0.695141    1.153637
    115          1           0       13.994761   -1.822404   -0.192790
    116          1           0       15.429409   -1.020716   -0.470122
    117          1           0       13.502863    2.476622   -0.427559
    118          1           0       14.598423    1.851525    0.741407
    119          1           0       16.298596    1.349106   -0.956336
    120          1           0       15.348528    2.207242   -2.123493
    121          1           0       15.185302    4.222902   -0.940614
    122          1           0       16.081257    3.628118    0.447944
    123          1           0       18.265037    3.028631   -1.232632
    124          1           0       16.546263    4.557845   -3.276872
    125          1           0       18.006479    3.883574   -3.509181
    126          1           0       16.812430    2.897603   -3.191998
    127          1           0       18.461238    5.017400    0.059900
    128          1           0       18.869212    5.293698   -1.440171
    129          1           0       17.300715    6.128094   -0.658090
    130          1           0       -5.127050   -7.912121   -0.035673
    131          1           0       -6.268523   -7.123822    1.056361
    132          1           0       -4.664146   -6.867552    1.450880
    133          8           0       -7.739572    6.872539   -0.472054
    134          1           0       -9.101910    6.059893   -2.074074
 ---------------------------------------------------------------------

 SCF Done:  E(RCAM-B3LYP) =  -3043.40517055     A.U. after   15 cycles

 Excitation energies and oscillator strengths:

 Excited State   1:      Singlet-A      2.1674 eV  572.04 nm  f=0.1661  <S**2>=0.000
     243 -> 246        0.22836
     244 -> 245        0.65779
 This state for optimization and/or second-order correction.
 Total Energy, E(TD-HF/TD-DFT) =  -3043.32551961
 Copying the excited state density for this state as the 1-particle RhoCI density.

 The electronic state is 1-A.
 Alpha  occ. eigenvalues --  -46.82832 -19.23480 -19.21902 -19.18442 -19.17988
 Alpha  occ. eigenvalues --  -19.16953 -19.16737 -19.15973 -14.38667 -14.37758
 Alpha  occ. eigenvalues --  -14.37059 -14.36782 -10.35284 -10.34959 -10.31813
 Alpha  occ. eigenvalues --  -10.30811 -10.30136 -10.29177 -10.28867 -10.27453
 Alpha  occ. eigenvalues --  -10.27245 -10.27165 -10.27143 -10.26587 -10.26466
 Alpha  occ. eigenvalues --  -10.26220 -10.25958 -10.25659 -10.25479 -10.25326
 Alpha  occ. eigenvalues --  -10.24998 -10.24993 -10.24917 -10.24711 -10.24567
 Alpha  occ. eigenvalues --  -10.24335 -10.23902 -10.23781 -10.23718 -10.23290
 Alpha  occ. eigenvalues --  -10.23231 -10.23126 -10.23116 -10.23087 -10.22873
 Alpha  occ. eigenvalues --  -10.22841 -10.22816 -10.22239 -10.22128 -10.22123
 Alpha  occ. eigenvalues --  -10.21998 -10.21997 -10.21847 -10.21712 -10.21708
 Alpha  occ. eigenvalues --  -10.21392 -10.21190 -10.21098 -10.21085 -10.21047
 Alpha  occ. eigenvalues --  -10.20163 -10.20097 -10.19505 -10.19460 -10.19380
 Alpha  occ. eigenvalues --  -10.17825  -3.11267  -1.86221  -1.85707  -1.85694
 Alpha  occ. eigenvalues --   -1.13480  -1.12829  -1.06730  -1.06261  -1.05844
 Alpha  occ. eigenvalues --   -1.04213  -1.03404  -1.02792  -1.02289  -1.00685
 Alpha  occ. eigenvalues --   -0.99172  -0.88105  -0.87173  -0.86158  -0.85656
 Alpha  occ. eigenvalues --   -0.85131  -0.85038  -0.84579  -0.84031  -0.84014
 Alpha  occ. eigenvalues --   -0.83173  -0.82511  -0.80802  -0.80269  -0.79646
 Alpha  occ. eigenvalues --   -0.79285  -0.78620  -0.78191  -0.76522  -0.76412
 Alpha  occ. eigenvalues --   -0.75302  -0.74953  -0.73729  -0.72803  -0.72736
 Alpha  occ. eigenvalues --   -0.71727  -0.71471  -0.70622  -0.70218  -0.69959
 Alpha  occ. eigenvalues --   -0.68937  -0.68756  -0.67541  -0.66929  -0.66645
 Alpha  occ. eigenvalues --   -0.66178  -0.64912  -0.64728  -0.62373  -0.62268
 Alpha  occ. eigenvalues --   -0.61549  -0.61082  -0.60424  -0.59203  -0.58867
 Alpha  occ. eigenvalues --   -0.58571  -0.58304  -0.57921  -0.57732  -0.57183
 Alpha  occ. eigenvalues --   -0.57142  -0.56438  -0.55744  -0.55547  -0.54619
 Alpha  occ. eigenvalues --   -0.53705  -0.53201  -0.52268  -0.51915  -0.51887
 Alpha  occ. eigenvalues --   -0.51578  -0.51304  -0.51010  -0.50828  -0.50571
 Alpha  occ. eigenvalues --   -0.50401  -0.50209  -0.49815  -0.49267  -0.49141
 Alpha  occ. eigenvalues --   -0.48829  -0.48642  -0.48366  -0.48305  -0.47858
 Alpha  occ. eigenvalues --   -0.47430  -0.47344  -0.46982  -0.46786  -0.46686
 Alpha  occ. eigenvalues --   -0.46612  -0.46357  -0.46097  -0.45997  -0.45884
 Alpha  occ. eigenvalues --   -0.45727  -0.45516  -0.45248  -0.44936  -0.44808
 Alpha  occ. eigenvalues --   -0.44677  -0.44447  -0.44146  -0.44090  -0.43700
 Alpha  occ. eigenvalues --   -0.43637  -0.43365  -0.42976  -0.42865  -0.42486
 Alpha  occ. eigenvalues --   -0.42286  -0.42257  -0.42159  -0.42013  -0.41861
 Alpha  occ. eigenvalues --   -0.41760  -0.41522  -0.41290  -0.41075  -0.40989
 Alpha  occ. eigenvalues --   -0.40749  -0.40463  -0.40172  -0.40049  -0.39889
 Alpha  occ. eigenvalues --   -0.39747  -0.39582  -0.39422  -0.39332  -0.39190
 Alpha  occ. eigenvalues --   -0.39106  -0.38980  -0.38679  -0.38456  -0.38265
 Alpha  occ. eigenvalues --   -0.37918  -0.37796  -0.37468  -0.37136  -0.36937
 Alpha  occ. eigenvalues --   -0.36773  -0.36609  -0.36365  -0.35935  -0.35448
 Alpha  occ. eigenvalues --   -0.35209  -0.35041  -0.34943  -0.34935  -0.34526
 Alpha  occ. eigenvalues --   -0.34469  -0.33822  -0.33407  -0.33326  -0.33019
 Alpha  occ. eigenvalues --   -0.32643  -0.32365  -0.31834  -0.31809  -0.31601
 Alpha  occ. eigenvalues --   -0.31435  -0.31151  -0.30379  -0.30078  -0.29618
 Alpha  occ. eigenvalues --   -0.29499  -0.29197  -0.28256  -0.28134  -0.27847
 Alpha  occ. eigenvalues --   -0.26968  -0.26758  -0.23369  -0.22287
 Alpha virt. eigenvalues --   -0.08694  -0.06431  -0.01357  -0.00930   0.00231
 Alpha virt. eigenvalues --    0.01961   0.03224   0.03405   0.03539   0.04120
 Alpha virt. eigenvalues --    0.04958   0.05505   0.07449   0.08164   0.08737

 Mulliken charges:
               1
     1  Mg   0.845640
     2  C    0.188090
     3  C   -0.200102
     4  C   -0.163290
     5  C   -0.158439
     6  N   -0.642665
     7  C    0.298235
     8  C   -0.169125
     9  C   -0.145136
    10  C    0.326587
    11  C   -0.288909
    12  C   -0.164955
    13  C   -0.265482
    14  C    0.593503
    15  O   -0.469247
    16  O   -0.461729
    17  N   -0.746994
    18  C    0.346604
    19  C    0.021626
    20  C    0.027457
    21  C    0.311840
    22  C   -0.394851
    23  C    0.238881
    24  O   -0.414071
    25  N   -0.690573
    26  C    0.336285
    27  C   -0.033119
    28  C    0.074144
    29  C    0.242442
    30  C    0.276666
    31  C   -0.278300
    32  C   -0.285462
    33  N   -0.694335
    34  C    0.212203
    35  C    0.076495
    36  C    0.065570
    37  C    0.295809
    38  C   -0.409837
    39  C    0.331892
    40  O   -0.496562
    41  C   -0.355125
    42  C    0.616949
    43  O   -0.446937
    44  O   -0.417143
    45  C   -0.103352
    46  C   -0.002057
    47  C   -0.145168
    48  C    0.218436
    49  C   -0.390410
    50  C   -0.236662
    51  C   -0.169603
    52  C   -0.166140
    53  C   -0.080889
    54  C   -0.298604
    55  C   -0.178385
    56  C   -0.171781
    57  C   -0.151529
    58  C   -0.054916
    59  C   -0.307067
    60  C   -0.153678
    61  C   -0.190323
    62  C   -0.186724
    63  C   -0.051953
    64  C   -0.295560
    65  C   -0.303147
    66  H    0.090850
    67  H    0.094686
    68  H    0.090811
    69  H    0.090152
    70  H    0.101095
    71  H    0.124959
    72  H    0.106965
    73  H    0.112418
    74  H    0.092531
    75  H    0.128307
    76  H    0.131030
    77  H    0.114868
    78  H    0.136188
    79  H    0.146046
    80  H    0.117011
    81  H    0.107747
    82  H    0.126121
    83  H    0.105806
    84  H    0.128728
    85  H    0.061148
    86  H    0.120300
    87  H    0.135453
    88  H    0.157613
    89  H    0.122843
    90  H    0.143777
    91  H    0.109172
    92  H    0.136190
    93  H    0.080195
    94  H    0.142605
    95  H    0.132096
    96  H    0.085959
    97  H    0.110793
    98  H    0.060212
    99  H    0.102931
   100  H    0.076918
   101  H    0.077316
   102  H    0.065275
   103  H    0.080652
   104  H    0.102483
   105  H    0.107553
   106  H    0.100521
   107  H    0.083116
   108  H    0.074846
   109  H    0.115245
   110  H    0.080616
   111  H    0.097016
   112  H    0.079825
   113  H    0.059843
   114  H    0.047109
   115  H    0.109031
   116  H    0.111660
   117  H    0.091229
   118  H    0.101259
   119  H    0.089144
   120  H    0.098296
   121  H    0.097070
   122  H    0.081278
   123  H    0.042153
   124  H    0.116893
   125  H    0.110791
   126  H    0.099429
   127  H    0.118603
   128  H    0.095417
   129  H    0.062016
   130  H    0.116549
   131  H    0.125514
   132  H    0.116514
   133  O   -0.440925
   134  H    0.047117
 Sum of Mulliken charges =  -0.00000

 Dipole moment (field-independent basis, Debye):
    X=              1.7175    Y=             -1.9762    Z=             -1.1588  Tot=              2.8632
 Quadrupole moment (field-independent basis, Debye-Ang):
   XX=           -369.9213   YY=           -444.7139   ZZ=           -390.9730
   XY=             -7.2176   XZ=             13.2815   YZ=            -32.2818

 Normal termination of Gaussian 16 at Fri Oct  4 05:34:35 2019.
