 Gaussian 16, Revision A.03,
 Gaussian 16:  ES64L-G16RevA.03 25-Dec-2016

 ----------------------------------------------------------------------
 # td=(NStates=1) iop(3/107=0140000000,3/108=0140000000) iop(3/107=0140
 000000,3/108=0140000000) CAM-B3LYP/6-31G(d,p)
 ----------------------------------------------------------------------

 --
 TD
 --
 Symbolic Z-matrix:
 Charge =  0 Multiplicity = 1

                         Standard orientation:
 ---------------------------------------------------------------------
 Center     Atomic      Atomic             Coordinates (Angstroms)
 Number     Number       Type             X           Y           Z
 ---------------------------------------------------------------------
      1         12           0       -5.684549    1.219234    0.294768
      2          6           0       -5.070482   -2.140534   -0.369482
      3          6           0       -3.395695    1.121762    2.759171
      4          6           0       -6.165139    4.521436    0.687821
      5          6           0       -8.089074    1.233497   -2.303758
      6          7           0       -4.479438   -0.306338    1.080168
      7          6           0       -4.278226   -1.570426    0.695774
      8          6           0       -3.254770   -2.355267    1.485275
      9          6           0       -2.953762   -1.316000    2.581503
     10          6           0       -3.628066   -0.041542    2.168908
     11          6           0       -3.326613   -1.840567    4.006559
     12          6           0       -1.962045   -2.677593    0.557618
     13          6           0       -0.957856   -3.486212    1.394630
     14          6           0        0.279947   -3.843245    0.535185
     15          8           0        0.484249   -3.471346   -0.610542
     16          8           0        1.001505   -4.732212    1.210784
     17          7           0       -4.959876    2.629658    1.447975
     18          6           0       -3.982463    2.351923    2.450213
     19          6           0       -3.705867    3.548998    3.109040
     20          6           0       -4.494426    4.555707    2.544467
     21          6           0       -5.228481    3.958251    1.569918
     22          6           0       -2.733747    3.707090    4.404771
     23          6           0       -4.526662    5.922481    2.862817
     24          8           0       -3.892961    6.514662    3.785605
     25          7           0       -6.832586    2.603804   -0.697930
     26          6           0       -6.861766    3.972282   -0.359523
     27          6           0       -7.831909    4.614156   -1.225206
     28          6           0       -8.410571    3.660785   -2.058605
     29          6           0       -7.713177    2.486800   -1.747231
     30          6           0       -8.241721    6.039362   -1.180499
     31          6           0       -9.446667    3.794245   -3.092219
     32          6           0       -8.775880    3.870680   -4.556179
     33          7           0       -6.387388    0.004002   -1.112214
     34          6           0       -7.400113    0.114149   -2.088098
     35          6           0       -7.574222   -1.282984   -2.712809
     36          6           0       -6.715981   -2.097062   -2.041229
     37          6           0       -5.926596   -1.341878   -1.027671
     38          6           0       -8.523294   -1.511030   -3.870259
     39          6           0       -6.264519   -3.435942   -2.044499
     40          8           0       -6.545890   -4.528316   -2.554468
     41          6           0       -5.104227   -3.479579   -0.933974
     42          6           0       -5.385926   -4.554772    0.150714
     43          8           0       -5.901460   -4.326251    1.160568
     44          8           0       -5.239865   -5.703158   -0.495512
     45          6           0       -5.669196   -6.744066    0.334046
     46          6           0        2.328211   -5.126364    0.693569
     47          6           0        3.396890   -4.102562    1.036171
     48          6           0        4.075987   -3.411306    0.214341
     49          6           0        3.850136   -3.286499   -1.301984
     50          6           0        5.135259   -2.541475    0.751638
     51          6           0        6.612426   -2.920055    0.202721
     52          6           0        7.647429   -1.803925    0.696199
     53          6           0        9.040766   -2.065540    0.062251
     54          6           0        9.577735   -3.389635    0.404294
     55          6           0       10.017012   -0.884093    0.471948
     56          6           0       11.255968   -0.790195   -0.300371
     57          6           0       12.225393    0.285168    0.121285
     58          6           0       13.554526    0.549574   -0.743220
     59          6           0       14.398604   -0.654335   -0.551114
     60          6           0       14.134700    1.872339   -0.231965
     61          6           0       15.436843    2.185355   -1.115648
     62          6           0       15.990879    3.564340   -0.676370
     63          6           0       17.428313    3.775597   -1.275809
     64          6           0       17.301756    3.992703   -2.818235
     65          6           0       18.002248    5.094375   -0.719602
     66          1           0       -2.750801    0.994274    3.702711
     67          1           0       -6.449689    5.651179    0.798790
     68          1           0       -8.778853    1.269670   -3.042248
     69          1           0       -3.899221   -3.263872    1.830128
     70          1           0       -1.959755   -1.222250    2.643001
     71          1           0       -2.864678   -2.736817    4.285994
     72          1           0       -3.074491   -1.107410    4.836782
     73          1           0       -4.340616   -2.036057    4.201220
     74          1           0       -2.313170   -3.511817   -0.267526
     75          1           0       -1.659699   -1.869040   -0.037723
     76          1           0       -0.566388   -3.083896    2.217397
     77          1           0       -1.577494   -4.277500    1.673481
     78          1           0       -1.866790    3.359040    3.857918
     79          1           0       -2.633286    4.695723    4.912264
     80          1           0       -3.118316    3.209951    5.303560
     81          1           0       -5.215128    6.550339    2.375273
     82          1           0      -10.058521    2.776410   -3.091655
     83          1           0      -10.080446    4.796955   -2.962051
     84          1           0       -9.451451    4.160387   -5.296351
     85          1           0       -8.000946    4.749896   -4.445645
     86          1           0       -8.229653    2.936705   -4.767861
     87          1           0       -8.239522   -1.090073   -4.761999
     88          1           0       -8.460781   -2.592835   -4.239167
     89          1           0       -9.577692   -1.282496   -3.621126
     90          1           0       -4.001639   -3.591823   -1.372843
     91          1           0        2.587645   -6.173457    1.006536
     92          1           0        2.130284   -5.096815   -0.437829
     93          1           0        3.690202   -4.122826    2.116402
     94          1           0        2.863067   -3.563684   -1.695036
     95          1           0        4.087988   -2.406553   -1.625862
     96          1           0        4.620813   -3.879041   -1.888147
     97          1           0        4.968513   -1.469372    0.781444
     98          1           0        5.147355   -2.858412    1.748451
     99          1           0        6.971490   -3.903086    0.536046
    100          1           0        6.840110   -3.106450   -0.849943
    101          1           0        7.246836   -0.802642    0.223525
    102          1           0        7.583089   -1.783573    1.912042
    103          1           0        8.846381   -1.933372   -1.084810
    104          1           0        8.834761   -4.240738    0.274636
    105          1           0       10.579776   -3.695799   -0.099640
    106          1           0        9.823032   -3.269915    1.520871
    107          1           0        9.351155   -0.019742    0.281829
    108          1           0       10.355147   -0.978689    1.621908
    109          1           0       11.746300   -1.723197   -0.311735
    110          1           0       11.026927   -0.750029   -1.403066
    111          1           0       11.674568    1.226462   -0.020538
    112          1           0       12.572957    0.309783    1.284949
    113          1           0       13.264560    0.531923   -1.753438
    114          1           0       14.733220   -0.688688    0.493480
    115          1           0       13.798699   -1.449597   -0.787192
    116          1           0       15.251758   -0.660262   -1.188613
    117          1           0       13.440005    2.612165   -0.436892
    118          1           0       14.467580    1.844206    0.922266
    119          1           0       16.017388    1.394597   -1.274855
    120          1           0       15.176707    2.402130   -2.258598
    121          1           0       15.306708    4.345413   -0.967322
    122          1           0       16.132355    3.638040    0.380828
    123          1           0       18.126678    2.886655   -1.041065
    124          1           0       16.512464    4.737347   -3.113965
    125          1           0       18.464257    4.217216   -3.419977
    126          1           0       16.943452    2.973189   -3.319440
    127          1           0       17.990653    5.139583    0.321055
    128          1           0       19.095908    5.143630   -0.976713
    129          1           0       17.543385    6.036251   -0.947869
    130          1           0       -5.136734   -7.641261   -0.102919
    131          1           0       -6.704067   -6.901707    0.135372
    132          1           0       -5.221037   -6.709406    1.463368
    133          8           0       -7.679950    6.854407   -0.394742
    134          1           0       -9.110062    6.303844   -1.772330
 ---------------------------------------------------------------------

 SCF Done:  E(RCAM-B3LYP) =  -3043.52766611     A.U. after   15 cycles

 Excitation energies and oscillator strengths:

 Excited State   1:      Singlet-A      2.0645 eV  600.55 nm  f=0.1584  <S**2>=0.000
     243 -> 245        0.11498
     243 -> 246       -0.27507
     244 -> 245        0.62998
 This state for optimization and/or second-order correction.
 Total Energy, E(TD-HF/TD-DFT) =  -3043.45179694
 Copying the excited state density for this state as the 1-particle RhoCI density.

 The electronic state is 1-A.
 Alpha  occ. eigenvalues --  -46.79656 -19.23401 -19.22630 -19.18660 -19.17486
 Alpha  occ. eigenvalues --  -19.17463 -19.17269 -19.14444 -14.39237 -14.36415
 Alpha  occ. eigenvalues --  -14.36380 -14.36095 -10.35375 -10.35084 -10.31802
 Alpha  occ. eigenvalues --  -10.30723 -10.28747 -10.28420 -10.28088 -10.27469
 Alpha  occ. eigenvalues --  -10.26841 -10.26814 -10.26475 -10.26238 -10.25957
 Alpha  occ. eigenvalues --  -10.25725 -10.25476 -10.25323 -10.25184 -10.24966
 Alpha  occ. eigenvalues --  -10.24797 -10.24438 -10.23737 -10.23732 -10.23424
 Alpha  occ. eigenvalues --  -10.23413 -10.23396 -10.23295 -10.23170 -10.23170
 Alpha  occ. eigenvalues --  -10.23077 -10.23042 -10.23036 -10.22966 -10.22834
 Alpha  occ. eigenvalues --  -10.22738 -10.22657 -10.22630 -10.22332 -10.22114
 Alpha  occ. eigenvalues --  -10.21711 -10.21627 -10.21614 -10.21605 -10.21407
 Alpha  occ. eigenvalues --  -10.21377 -10.21302 -10.21185 -10.20723 -10.20581
 Alpha  occ. eigenvalues --  -10.20533 -10.20351 -10.20149 -10.20138 -10.19050
 Alpha  occ. eigenvalues --  -10.18352  -3.08567  -1.83479  -1.83051  -1.82992
 Alpha  occ. eigenvalues --   -1.17052  -1.13418  -1.09135  -1.06147  -1.04685
 Alpha  occ. eigenvalues --   -1.04536  -1.01936  -1.00566  -0.99197  -0.98510
 Alpha  occ. eigenvalues --   -0.97089  -0.89456  -0.87136  -0.85882  -0.85605
 Alpha  occ. eigenvalues --   -0.85562  -0.84886  -0.84307  -0.83566  -0.83201
 Alpha  occ. eigenvalues --   -0.82753  -0.82215  -0.81720  -0.80290  -0.79850
 Alpha  occ. eigenvalues --   -0.78824  -0.78078  -0.77717  -0.77310  -0.76448
 Alpha  occ. eigenvalues --   -0.75602  -0.75254  -0.74496  -0.72796  -0.72572
 Alpha  occ. eigenvalues --   -0.71885  -0.70965  -0.69978  -0.69852  -0.69628
 Alpha  occ. eigenvalues --   -0.69362  -0.68858  -0.67966  -0.66760  -0.66490
 Alpha  occ. eigenvalues --   -0.66067  -0.65224  -0.64329  -0.63022  -0.62747
 Alpha  occ. eigenvalues --   -0.62267  -0.60711  -0.60319  -0.59426  -0.58927
 Alpha  occ. eigenvalues --   -0.58832  -0.58131  -0.57872  -0.57258  -0.57025
 Alpha  occ. eigenvalues --   -0.56277  -0.56146  -0.55536  -0.55203  -0.54797
 Alpha  occ. eigenvalues --   -0.54435  -0.53991  -0.53410  -0.53066  -0.52494
 Alpha  occ. eigenvalues --   -0.52164  -0.51991  -0.51585  -0.51366  -0.50735
 Alpha  occ. eigenvalues --   -0.50503  -0.49911  -0.49758  -0.49489  -0.49079
 Alpha  occ. eigenvalues --   -0.48916  -0.48500  -0.48197  -0.48151  -0.47885
 Alpha  occ. eigenvalues --   -0.47553  -0.47391  -0.47255  -0.46978  -0.46783
 Alpha  occ. eigenvalues --   -0.46655  -0.46477  -0.46290  -0.45762  -0.45657
 Alpha  occ. eigenvalues --   -0.45442  -0.45292  -0.45170  -0.44961  -0.44641
 Alpha  occ. eigenvalues --   -0.44285  -0.44092  -0.43771  -0.43655  -0.43566
 Alpha  occ. eigenvalues --   -0.43516  -0.43168  -0.43133  -0.42833  -0.42607
 Alpha  occ. eigenvalues --   -0.42368  -0.42171  -0.41958  -0.41856  -0.41652
 Alpha  occ. eigenvalues --   -0.41615  -0.41184  -0.41095  -0.40862  -0.40674
 Alpha  occ. eigenvalues --   -0.40342  -0.40323  -0.40154  -0.40133  -0.40039
 Alpha  occ. eigenvalues --   -0.39818  -0.39555  -0.39417  -0.39159  -0.39041
 Alpha  occ. eigenvalues --   -0.39030  -0.38463  -0.38402  -0.38218  -0.38104
 Alpha  occ. eigenvalues --   -0.37846  -0.37543  -0.37497  -0.37415  -0.37117
 Alpha  occ. eigenvalues --   -0.36795  -0.36265  -0.36234  -0.36135  -0.35838
 Alpha  occ. eigenvalues --   -0.35775  -0.35616  -0.35181  -0.35100  -0.35018
 Alpha  occ. eigenvalues --   -0.34631  -0.34593  -0.34497  -0.34334  -0.33896
 Alpha  occ. eigenvalues --   -0.33190  -0.32747  -0.32561  -0.32431  -0.32094
 Alpha  occ. eigenvalues --   -0.31679  -0.31240  -0.31015  -0.29813  -0.29405
 Alpha  occ. eigenvalues --   -0.29058  -0.28801  -0.27995  -0.27825  -0.27713
 Alpha  occ. eigenvalues --   -0.26791  -0.25560  -0.23034  -0.21735
 Alpha virt. eigenvalues --   -0.08433  -0.06673  -0.02107  -0.00651   0.00927
 Alpha virt. eigenvalues --    0.03353   0.03531   0.03956   0.04584   0.04869
 Alpha virt. eigenvalues --    0.05343   0.05962   0.07411   0.08530   0.09705

 Mulliken charges:
               1
     1  Mg   0.816022
     2  C    0.094879
     3  C   -0.187979
     4  C   -0.204030
     5  C   -0.153102
     6  N   -0.650072
     7  C    0.335512
     8  C   -0.180979
     9  C   -0.132206
    10  C    0.357825
    11  C   -0.334450
    12  C   -0.185967
    13  C   -0.240722
    14  C    0.593026
    15  O   -0.472744
    16  O   -0.459224
    17  N   -0.747552
    18  C    0.297672
    19  C   -0.022675
    20  C    0.041445
    21  C    0.327516
    22  C   -0.353394
    23  C    0.205506
    24  O   -0.459227
    25  N   -0.673188
    26  C    0.315287
    27  C   -0.050754
    28  C    0.092823
    29  C    0.274837
    30  C    0.248933
    31  C   -0.272202
    32  C   -0.306007
    33  N   -0.759343
    34  C    0.293810
    35  C    0.034395
    36  C    0.056879
    37  C    0.325726
    38  C   -0.397355
    39  C    0.340791
    40  O   -0.465352
    41  C   -0.361294
    42  C    0.615553
    43  O   -0.429927
    44  O   -0.397931
    45  C   -0.106908
    46  C   -0.018695
    47  C   -0.160870
    48  C    0.191994
    49  C   -0.370713
    50  C   -0.246353
    51  C   -0.205687
    52  C   -0.157416
    53  C   -0.058511
    54  C   -0.294359
    55  C   -0.150722
    56  C   -0.177213
    57  C   -0.166398
    58  C   -0.073175
    59  C   -0.292642
    60  C   -0.153805
    61  C   -0.187634
    62  C   -0.165906
    63  C   -0.050714
    64  C   -0.274373
    65  C   -0.313444
    66  H    0.100025
    67  H    0.151986
    68  H    0.065693
    69  H    0.130977
    70  H    0.114815
    71  H    0.115793
    72  H    0.098118
    73  H    0.129031
    74  H    0.089549
    75  H    0.138646
    76  H    0.139760
    77  H    0.143136
    78  H    0.124178
    79  H    0.153749
    80  H    0.117899
    81  H    0.081102
    82  H    0.105138
    83  H    0.101848
    84  H    0.125259
    85  H    0.101508
    86  H    0.118294
    87  H    0.148772
    88  H    0.137381
    89  H    0.134610
    90  H    0.137839
    91  H    0.124628
    92  H    0.124738
    93  H    0.080697
    94  H    0.140364
    95  H    0.125231
    96  H    0.102478
    97  H    0.113988
    98  H    0.108317
    99  H    0.100162
   100  H    0.096034
   101  H    0.082300
   102  H    0.074595
   103  H    0.070635
   104  H    0.093456
   105  H    0.095852
   106  H    0.095288
   107  H    0.086507
   108  H    0.069336
   109  H    0.097548
   110  H    0.079342
   111  H    0.081140
   112  H    0.061371
   113  H    0.088225
   114  H    0.093818
   115  H    0.104601
   116  H    0.094001
   117  H    0.103616
   118  H    0.075886
   119  H    0.104617
   120  H    0.066588
   121  H    0.098157
   122  H    0.091490
   123  H    0.085580
   124  H    0.106290
   125  H    0.052277
   126  H    0.078910
   127  H    0.098179
   128  H    0.090823
   129  H    0.105085
   130  H    0.115122
   131  H    0.143912
   132  H    0.115111
   133  O   -0.440746
   134  H    0.082125
 Sum of Mulliken charges =  -0.00000

 Dipole moment (field-independent basis, Debye):
    X=              1.0525    Y=             -7.2928    Z=             -2.0797  Tot=              7.6562
 Quadrupole moment (field-independent basis, Debye-Ang):
   XX=           -371.0498   YY=           -443.0146   ZZ=           -392.3676
   XY=              7.1292   XZ=             32.6667   YZ=            -40.4151

 Normal termination of Gaussian 16 at Fri Oct  4 12:30:01 2019.
