 Gaussian 16, Revision A.03,
 Gaussian 16:  ES64L-G16RevA.03 25-Dec-2016

 ----------------------------------------------------------------------
 # td=(NStates=1) iop(3/107=0140000000,3/108=0140000000) iop(3/107=0140
 000000,3/108=0140000000) CAM-B3LYP/6-31G(d,p)
 ----------------------------------------------------------------------

 --
 TD
 --
 Symbolic Z-matrix:
 Charge =  0 Multiplicity = 1

                         Standard orientation:
 ---------------------------------------------------------------------
 Center     Atomic      Atomic             Coordinates (Angstroms)
 Number     Number       Type             X           Y           Z
 ---------------------------------------------------------------------
      1         12           0       -5.628841    1.195219    0.256226
      2          6           0       -5.118610   -2.166785   -0.339772
      3          6           0       -3.507363    1.128376    2.737418
      4          6           0       -6.241965    4.547473    0.633707
      5          6           0       -8.108663    1.244692   -2.374881
      6          7           0       -4.275298   -0.254533    1.048801
      7          6           0       -4.234422   -1.626157    0.692831
      8          6           0       -3.256475   -2.372106    1.407593
      9          6           0       -2.858700   -1.370719    2.629753
     10          6           0       -3.638499   -0.124762    2.178773
     11          6           0       -3.399058   -1.795465    3.980936
     12          6           0       -1.922916   -2.741658    0.599082
     13          6           0       -0.978336   -3.593409    1.330278
     14          6           0        0.291197   -3.944991    0.516474
     15          8           0        0.494301   -3.393815   -0.534399
     16          8           0        1.138991   -4.766754    1.170405
     17          7           0       -4.899554    2.561553    1.447233
     18          6           0       -4.020442    2.336715    2.451700
     19          6           0       -3.740344    3.718007    3.160865
     20          6           0       -4.626444    4.582185    2.600661
     21          6           0       -5.262685    3.929037    1.479286
     22          6           0       -2.758045    3.762564    4.268633
     23          6           0       -4.676347    5.989377    2.920341
     24          8           0       -3.994016    6.561300    3.788040
     25          7           0       -6.963954    2.682547   -0.644390
     26          6           0       -6.998465    3.966318   -0.395468
     27          6           0       -8.012759    4.604304   -1.199604
     28          6           0       -8.652590    3.647832   -1.978652
     29          6           0       -8.020322    2.419228   -1.692406
     30          6           0       -8.378472    6.011022   -1.083893
     31          6           0       -9.620803    3.790987   -3.137239
     32          6           0       -8.937496    4.002442   -4.478147
     33          7           0       -6.438703   -0.125802   -1.050098
     34          6           0       -7.497333   -0.039962   -1.985336
     35          6           0       -7.675038   -1.320117   -2.698103
     36          6           0       -6.729378   -2.149815   -2.095265
     37          6           0       -6.109927   -1.487524   -1.079108
     38          6           0       -8.693042   -1.666652   -3.720838
     39          6           0       -6.193193   -3.528523   -2.070405
     40          8           0       -6.534809   -4.496250   -2.706235
     41          6           0       -5.027508   -3.442276   -0.965889
     42          6           0       -5.335383   -4.607840    0.122570
     43          8           0       -5.682535   -4.463227    1.200620
     44          8           0       -5.047121   -5.796383   -0.367997
     45          6           0       -5.229262   -7.018811    0.453853
     46          6           0        2.488831   -5.187794    0.628163
     47          6           0        3.552158   -4.143737    0.985377
     48          6           0        4.084394   -3.286420    0.185298
     49          6           0        3.921374   -3.064873   -1.299853
     50          6           0        5.273584   -2.395907    0.766333
     51          6           0        6.604546   -2.672911    0.128100
     52          6           0        7.710266   -1.740093    0.712503
     53          6           0        9.053208   -1.989023   -0.004776
     54          6           0        9.523492   -3.518840    0.210258
     55          6           0       10.032123   -0.840604    0.412863
     56          6           0       11.358337   -0.795043   -0.369981
     57          6           0       12.355366    0.258832    0.137807
     58          6           0       13.730089    0.412016   -0.580649
     59          6           0       14.630844   -0.787930   -0.260329
     60          6           0       14.356413    1.727671   -0.207895
     61          6           0       15.505942    2.146846   -1.010314
     62          6           0       15.969976    3.570599   -0.673862
     63          6           0       17.360152    4.044779   -1.339681
     64          6           0       17.215860    4.072650   -2.949464
     65          6           0       17.840606    5.477263   -0.827207
     66          1           0       -2.807733    1.124147    3.827164
     67          1           0       -6.610724    5.615660    0.954240
     68          1           0       -8.786176    1.067335   -3.121441
     69          1           0       -3.904336   -3.115071    1.697333
     70          1           0       -1.726970   -1.045524    2.561511
     71          1           0       -2.883799   -2.661981    4.512209
     72          1           0       -3.317111   -0.961222    4.666918
     73          1           0       -4.538583   -1.872389    3.928611
     74          1           0       -2.183939   -3.316682   -0.149575
     75          1           0       -1.421744   -1.792955    0.437339
     76          1           0       -0.456610   -3.212736    2.184549
     77          1           0       -1.307380   -4.632044    1.783761
     78          1           0       -1.633181    3.316215    4.055495
     79          1           0       -2.656856    4.787771    4.466193
     80          1           0       -3.074286    3.322285    5.002050
     81          1           0       -5.436683    6.756958    2.471100
     82          1           0      -10.532869    2.962918   -3.255516
     83          1           0      -10.230137    4.679598   -2.819238
     84          1           0       -9.496976    4.136442   -5.326217
     85          1           0       -8.206288    4.838434   -4.607731
     86          1           0       -8.451800    2.981670   -4.780757
     87          1           0       -8.540265   -0.975829   -4.623259
     88          1           0       -8.575019   -2.624893   -4.178405
     89          1           0       -9.671716   -1.624033   -3.497885
     90          1           0       -3.985796   -3.894808   -1.536864
     91          1           0        2.472658   -6.279061    1.110517
     92          1           0        2.406720   -5.516937   -0.338951
     93          1           0        3.920345   -4.405027    1.941189
     94          1           0        2.829898   -3.132665   -1.208249
     95          1           0        4.294522   -1.982627   -1.447061
     96          1           0        4.433735   -3.749216   -2.078574
     97          1           0        5.008070   -1.381472    0.716997
     98          1           0        5.310025   -2.449412    1.826447
     99          1           0        6.887886   -3.581925    0.265951
    100          1           0        6.435141   -2.618546   -1.034683
    101          1           0        7.253346   -0.660213    0.581862
    102          1           0        7.850597   -1.891308    1.751402
    103          1           0        8.845740   -1.762487   -1.106536
    104          1           0        8.754685   -4.197534   -0.087567
    105          1           0       10.335799   -3.657147   -0.564756
    106          1           0        9.932495   -3.703828    1.092191
    107          1           0        9.400003    0.128505    0.316806
    108          1           0       10.216875   -1.046270    1.371586
    109          1           0       11.699442   -1.758211   -0.222190
    110          1           0       11.015217   -0.684419   -1.373413
    111          1           0       11.882999    1.326171   -0.050274
    112          1           0       12.503085    0.216112    1.120661
    113          1           0       13.562695    0.527735   -1.723195
    114          1           0       15.150819   -0.619117    0.770894
    115          1           0       14.138818   -1.759720   -0.125157
    116          1           0       15.378412   -0.728866   -0.929623
    117          1           0       13.543103    2.569526   -0.324824
    118          1           0       14.678235    1.703351    0.886831
    119          1           0       16.424506    1.479140   -0.957019
    120          1           0       15.326302    2.112830   -2.209374
    121          1           0       15.151561    4.188618   -0.993663
    122          1           0       16.110118    3.841768    0.439850
    123          1           0       18.356159    3.452976   -1.084284
    124          1           0       16.362153    4.781657   -3.202559
    125          1           0       18.160851    4.505511   -3.405478
    126          1           0       17.045295    3.092534   -3.464236
    127          1           0       17.659551    5.492301    0.351896
    128          1           0       18.836735    5.775211   -1.202781
    129          1           0       17.162913    6.056890   -1.215495
    130          1           0       -5.050121   -7.949077   -0.097989
    131          1           0       -6.217643   -6.936170    0.887605
    132          1           0       -4.420498   -7.031267    1.211793
    133          8           0       -7.899700    6.840335   -0.409129
    134          1           0       -9.215332    6.278968   -1.738710
 ---------------------------------------------------------------------

 SCF Done:  E(RCAM-B3LYP) =  -3043.44734141     A.U. after   15 cycles

 Excitation energies and oscillator strengths:

 Excited State   1:      Singlet-A      2.0676 eV  599.65 nm  f=0.1446  <S**2>=0.000
     243 -> 246        0.29358
     244 -> 245        0.63284
 This state for optimization and/or second-order correction.
 Total Energy, E(TD-HF/TD-DFT) =  -3043.37135776
 Copying the excited state density for this state as the 1-particle RhoCI density.

 The electronic state is 1-A.
 Alpha  occ. eigenvalues --  -46.81157 -19.21562 -19.21341 -19.16988 -19.16963
 Alpha  occ. eigenvalues --  -19.16637 -19.16585 -19.16444 -14.38854 -14.37028
 Alpha  occ. eigenvalues --  -14.36218 -14.36076 -10.34368 -10.34167 -10.30845
 Alpha  occ. eigenvalues --  -10.30819 -10.29081 -10.28631 -10.27945 -10.27500
 Alpha  occ. eigenvalues --  -10.27465 -10.27431 -10.27115 -10.26075 -10.26005
 Alpha  occ. eigenvalues --  -10.25887 -10.25612 -10.25573 -10.25391 -10.25385
 Alpha  occ. eigenvalues --  -10.24638 -10.24635 -10.24632 -10.24185 -10.23870
 Alpha  occ. eigenvalues --  -10.23621 -10.23613 -10.23565 -10.23465 -10.23459
 Alpha  occ. eigenvalues --  -10.23431 -10.23150 -10.23109 -10.22479 -10.22393
 Alpha  occ. eigenvalues --  -10.22218 -10.22133 -10.22096 -10.21887 -10.21766
 Alpha  occ. eigenvalues --  -10.21631 -10.21499 -10.21439 -10.21389 -10.21370
 Alpha  occ. eigenvalues --  -10.21361 -10.20983 -10.20938 -10.20453 -10.20395
 Alpha  occ. eigenvalues --  -10.20339 -10.20263 -10.20039 -10.20035 -10.19837
 Alpha  occ. eigenvalues --  -10.19743  -3.09723  -1.84661  -1.84190  -1.84138
 Alpha  occ. eigenvalues --   -1.15454  -1.11778  -1.09049  -1.06773  -1.06011
 Alpha  occ. eigenvalues --   -1.05474  -1.04128  -1.01091  -0.98997  -0.98155
 Alpha  occ. eigenvalues --   -0.97465  -0.88567  -0.86408  -0.86086  -0.85512
 Alpha  occ. eigenvalues --   -0.85463  -0.84663  -0.84096  -0.83646  -0.82502
 Alpha  occ. eigenvalues --   -0.82294  -0.82009  -0.81714  -0.80479  -0.79921
 Alpha  occ. eigenvalues --   -0.78334  -0.78244  -0.77779  -0.76836  -0.76676
 Alpha  occ. eigenvalues --   -0.76103  -0.75541  -0.74691  -0.72562  -0.71982
 Alpha  occ. eigenvalues --   -0.71761  -0.71194  -0.70602  -0.70044  -0.69494
 Alpha  occ. eigenvalues --   -0.69283  -0.68442  -0.67550  -0.66982  -0.66497
 Alpha  occ. eigenvalues --   -0.65744  -0.65486  -0.63239  -0.62866  -0.62689
 Alpha  occ. eigenvalues --   -0.61182  -0.60740  -0.60110  -0.58938  -0.58344
 Alpha  occ. eigenvalues --   -0.58186  -0.57940  -0.57588  -0.57334  -0.56637
 Alpha  occ. eigenvalues --   -0.56325  -0.55611  -0.55308  -0.54722  -0.54329
 Alpha  occ. eigenvalues --   -0.53498  -0.53194  -0.52482  -0.51968  -0.51833
 Alpha  occ. eigenvalues --   -0.51704  -0.51163  -0.50952  -0.50868  -0.50330
 Alpha  occ. eigenvalues --   -0.50002  -0.49554  -0.49329  -0.49179  -0.48965
 Alpha  occ. eigenvalues --   -0.48805  -0.48262  -0.48131  -0.47917  -0.47576
 Alpha  occ. eigenvalues --   -0.47483  -0.47344  -0.47059  -0.46929  -0.46787
 Alpha  occ. eigenvalues --   -0.46443  -0.46225  -0.46059  -0.45966  -0.45866
 Alpha  occ. eigenvalues --   -0.45708  -0.45469  -0.45355  -0.45079  -0.44929
 Alpha  occ. eigenvalues --   -0.44848  -0.44600  -0.44356  -0.44112  -0.43967
 Alpha  occ. eigenvalues --   -0.43880  -0.43415  -0.43158  -0.42953  -0.42785
 Alpha  occ. eigenvalues --   -0.42612  -0.42420  -0.42325  -0.42057  -0.41865
 Alpha  occ. eigenvalues --   -0.41779  -0.41604  -0.41275  -0.41165  -0.41005
 Alpha  occ. eigenvalues --   -0.40920  -0.40852  -0.40730  -0.40493  -0.40221
 Alpha  occ. eigenvalues --   -0.40070  -0.39951  -0.39681  -0.39405  -0.39287
 Alpha  occ. eigenvalues --   -0.38910  -0.38349  -0.38308  -0.38264  -0.38116
 Alpha  occ. eigenvalues --   -0.37996  -0.37834  -0.37458  -0.37074  -0.36978
 Alpha  occ. eigenvalues --   -0.36909  -0.36674  -0.36509  -0.35809  -0.35395
 Alpha  occ. eigenvalues --   -0.34967  -0.34883  -0.34739  -0.34683  -0.34613
 Alpha  occ. eigenvalues --   -0.34434  -0.34132  -0.33789  -0.33694  -0.33387
 Alpha  occ. eigenvalues --   -0.33111  -0.32861  -0.32374  -0.31907  -0.31838
 Alpha  occ. eigenvalues --   -0.31481  -0.31056  -0.30845  -0.29539  -0.29489
 Alpha  occ. eigenvalues --   -0.28656  -0.28458  -0.27578  -0.27505  -0.27300
 Alpha  occ. eigenvalues --   -0.27024  -0.26894  -0.22557  -0.21086
 Alpha virt. eigenvalues --   -0.07791  -0.06427  -0.02012  -0.00360   0.01185
 Alpha virt. eigenvalues --    0.02895   0.03388   0.03796   0.04771   0.05367
 Alpha virt. eigenvalues --    0.05632   0.06408   0.07730   0.08352   0.09273

 Mulliken charges:
               1
     1  Mg   0.824548
     2  C    0.125507
     3  C   -0.222409
     4  C   -0.192588
     5  C   -0.126045
     6  N   -0.607087
     7  C    0.278931
     8  C   -0.167974
     9  C   -0.141288
    10  C    0.355401
    11  C   -0.316112
    12  C   -0.123506
    13  C   -0.273163
    14  C    0.580851
    15  O   -0.457496
    16  O   -0.486576
    17  N   -0.735254
    18  C    0.353825
    19  C    0.050719
    20  C   -0.008746
    21  C    0.305184
    22  C   -0.363050
    23  C    0.224435
    24  O   -0.424426
    25  N   -0.669750
    26  C    0.370254
    27  C   -0.051248
    28  C    0.051765
    29  C    0.233355
    30  C    0.254334
    31  C   -0.245957
    32  C   -0.304101
    33  N   -0.690339
    34  C    0.217057
    35  C    0.004761
    36  C    0.047743
    37  C    0.240047
    38  C   -0.394507
    39  C    0.373745
    40  O   -0.448544
    41  C   -0.385068
    42  C    0.587107
    43  O   -0.420899
    44  O   -0.450516
    45  C   -0.092363
    46  C   -0.017722
    47  C   -0.114629
    48  C    0.116919
    49  C   -0.371243
    50  C   -0.239622
    51  C   -0.154187
    52  C   -0.170320
    53  C   -0.069596
    54  C   -0.334623
    55  C   -0.177258
    56  C   -0.175772
    57  C   -0.156595
    58  C   -0.055570
    59  C   -0.309049
    60  C   -0.149005
    61  C   -0.171550
    62  C   -0.165513
    63  C   -0.063746
    64  C   -0.315172
    65  C   -0.308188
    66  H    0.054235
    67  H    0.134983
    68  H    0.086859
    69  H    0.140076
    70  H    0.109553
    71  H    0.114415
    72  H    0.115692
    73  H    0.123224
    74  H    0.120808
    75  H    0.126253
    76  H    0.136379
    77  H    0.113031
    78  H    0.101500
    79  H    0.157440
    80  H    0.144441
    81  H    0.087035
    82  H    0.095651
    83  H    0.111036
    84  H    0.124416
    85  H    0.118527
    86  H    0.095204
    87  H    0.108427
    88  H    0.148882
    89  H    0.143592
    90  H    0.140748
    91  H    0.106511
    92  H    0.133128
    93  H    0.097187
    94  H    0.157617
    95  H    0.107129
    96  H    0.121854
    97  H    0.102855
    98  H    0.087811
    99  H    0.107784
   100  H    0.073736
   101  H    0.072360
   102  H    0.097021
   103  H    0.073355
   104  H    0.115427
   105  H    0.099600
   106  H    0.119273
   107  H    0.077624
   108  H    0.094022
   109  H    0.096193
   110  H    0.094369
   111  H    0.061281
   112  H    0.096150
   113  H    0.069609
   114  H    0.079635
   115  H    0.105116
   116  H    0.118670
   117  H    0.074228
   118  H    0.085419
   119  H    0.091288
   120  H    0.070157
   121  H    0.099093
   122  H    0.077980
   123  H    0.073101
   124  H    0.094451
   125  H    0.091465
   126  H    0.104245
   127  H    0.081289
   128  H    0.103648
   129  H    0.120585
   130  H    0.137337
   131  H    0.143644
   132  H    0.121905
   133  O   -0.405814
   134  H    0.040141
 Sum of Mulliken charges =  -0.00000

 Dipole moment (field-independent basis, Debye):
    X=              2.7700    Y=             -5.9622    Z=              0.4284  Tot=              6.5882
 Quadrupole moment (field-independent basis, Debye-Ang):
   XX=           -373.0891   YY=           -426.3618   ZZ=           -390.7278
   XY=              1.9853   XZ=             18.5792   YZ=            -34.6800

 Normal termination of Gaussian 16 at Fri Oct  4 05:37:09 2019.
