 Gaussian 16, Revision A.03,
 Gaussian 16:  ES64L-G16RevA.03 25-Dec-2016

 ----------------------------------------------------------------------
 # td=(NStates=1) iop(3/107=0140000000,3/108=0140000000) iop(3/107=0140
 000000,3/108=0140000000) CAM-B3LYP/6-31G(d,p)
 ----------------------------------------------------------------------

 --
 TD
 --
 Symbolic Z-matrix:
 Charge =  0 Multiplicity = 1

                         Standard orientation:
 ---------------------------------------------------------------------
 Center     Atomic      Atomic             Coordinates (Angstroms)
 Number     Number       Type             X           Y           Z
 ---------------------------------------------------------------------
      1         12           0       -5.756765    1.174852    0.272030
      2          6           0       -5.099333   -2.105805   -0.306887
      3          6           0       -3.347016    1.120090    2.827097
      4          6           0       -6.246834    4.580751    0.735529
      5          6           0       -7.996315    1.220732   -2.407783
      6          7           0       -4.447814   -0.270610    1.121946
      7          6           0       -4.297453   -1.617336    0.696810
      8          6           0       -3.217889   -2.333504    1.520257
      9          6           0       -2.912790   -1.320190    2.609250
     10          6           0       -3.632822   -0.035689    2.204610
     11          6           0       -3.471307   -1.826077    4.051043
     12          6           0       -1.928870   -2.564110    0.766001
     13          6           0       -0.953153   -3.406913    1.515321
     14          6           0        0.219486   -3.925748    0.624529
     15          8           0        0.413195   -3.659753   -0.570015
     16          8           0        0.993579   -4.707122    1.292941
     17          7           0       -4.904597    2.565230    1.536129
     18          6           0       -3.979477    2.342606    2.459045
     19          6           0       -3.682323    3.639533    3.155317
     20          6           0       -4.427006    4.664425    2.460567
     21          6           0       -5.297466    3.949952    1.503880
     22          6           0       -2.694954    3.858418    4.265083
     23          6           0       -4.515939    6.066055    2.818536
     24          8           0       -3.877145    6.613056    3.752157
     25          7           0       -6.920989    2.689366   -0.665305
     26          6           0       -6.964463    3.926812   -0.354382
     27          6           0       -7.900128    4.576924   -1.228873
     28          6           0       -8.402681    3.650313   -2.109321
     29          6           0       -7.762605    2.428509   -1.748017
     30          6           0       -8.330062    6.026421   -1.181213
     31          6           0       -9.391185    3.830576   -3.154753
     32          6           0       -8.732984    4.007277   -4.569842
     33          7           0       -6.454548   -0.121286   -1.162050
     34          6           0       -7.403641    0.019619   -2.117463
     35          6           0       -7.623737   -1.294498   -2.733440
     36          6           0       -6.706523   -2.175169   -2.027813
     37          6           0       -6.078463   -1.352866   -1.069972
     38          6           0       -8.627399   -1.710927   -3.828235
     39          6           0       -6.171630   -3.534430   -1.998164
     40          8           0       -6.604459   -4.464149   -2.684045
     41          6           0       -5.000964   -3.503950   -0.888402
     42          6           0       -5.410609   -4.618978    0.093315
     43          8           0       -5.838166   -4.354149    1.119729
     44          8           0       -5.073888   -5.886543   -0.403861
     45          6           0       -5.351441   -7.000592    0.389845
     46          6           0        2.294588   -5.071294    0.680299
     47          6           0        3.455272   -4.117377    1.059657
     48          6           0        4.005759   -3.290029    0.212767
     49          6           0        3.743376   -3.131368   -1.282721
     50          6           0        5.170134   -2.417093    0.716148
     51          6           0        6.632383   -2.776568    0.121664
     52          6           0        7.692747   -1.718314    0.576303
     53          6           0        9.038863   -1.941443    0.050524
     54          6           0        9.585497   -3.412381    0.239581
     55          6           0       10.043443   -0.781298    0.479759
     56          6           0       11.320861   -0.877576   -0.201476
     57          6           0       12.233528    0.287170    0.148251
     58          6           0       13.595133    0.442526   -0.588753
     59          6           0       14.451644   -0.826088   -0.614603
     60          6           0       14.327365    1.744695   -0.174531
     61          6           0       15.581582    2.176470   -1.033349
     62          6           0       16.091251    3.532042   -0.593663
     63          6           0       17.400982    3.855569   -1.417677
     64          6           0       17.143842    3.969878   -2.830669
     65          6           0       17.996412    5.235226   -0.815770
     66          1           0       -2.666399    1.234675    3.805267
     67          1           0       -6.562932    5.635324    0.922490
     68          1           0       -8.838115    1.177827   -3.059980
     69          1           0       -3.609512   -3.351641    1.831731
     70          1           0       -1.838080   -0.953767    2.633449
     71          1           0       -2.877954   -2.743439    4.388161
     72          1           0       -3.318685   -1.111474    4.791799
     73          1           0       -4.553481   -2.187591    3.983104
     74          1           0       -2.022503   -3.083001   -0.255385
     75          1           0       -1.607825   -1.679671    0.397454
     76          1           0       -0.542776   -2.708151    2.333609
     77          1           0       -1.606865   -4.158309    1.992874
     78          1           0       -1.867226    3.412946    3.944266
     79          1           0       -2.505769    4.993654    4.656938
     80          1           0       -3.202730    3.222965    5.128571
     81          1           0       -5.137588    6.678065    2.249272
     82          1           0      -10.038848    2.843802   -3.176790
     83          1           0      -10.201322    4.721808   -2.908105
     84          1           0       -9.469604    3.998615   -5.562088
     85          1           0       -8.288845    4.936300   -4.707349
     86          1           0       -7.915917    3.166305   -4.587985
     87          1           0       -8.458580   -1.036330   -4.899862
     88          1           0       -8.532162   -2.776177   -4.161107
     89          1           0       -9.663521   -1.858647   -3.504287
     90          1           0       -4.054976   -3.727732   -1.278897
     91          1           0        2.365664   -6.297202    0.943912
     92          1           0        2.174938   -5.141401   -0.445367
     93          1           0        3.553103   -4.136303    2.190030
     94          1           0        2.598469   -3.702814   -1.316849
     95          1           0        3.564148   -2.090523   -1.612452
     96          1           0        4.419681   -3.763286   -1.985346
     97          1           0        5.040058   -1.424593    0.694637
     98          1           0        5.110725   -2.471745    1.726235
     99          1           0        7.034970   -3.705878    0.388156
    100          1           0        6.343866   -2.643278   -0.856658
    101          1           0        7.490911   -0.543839    0.274886
    102          1           0        7.763882   -1.601506    1.604319
    103          1           0        8.891332   -2.076519   -1.187690
    104          1           0        8.887598   -4.138118   -0.112847
    105          1           0       10.720041   -3.559600   -0.474830
    106          1           0        9.580653   -3.580787    1.368841
    107          1           0        9.402476    0.102431    0.180780
    108          1           0        9.982877   -1.008869    1.540906
    109          1           0       11.819469   -1.845597   -0.299050
    110          1           0       11.056310   -0.943560   -1.269439
    111          1           0       11.682739    1.205333    0.012098
    112          1           0       12.394236    0.168869    1.197646
    113          1           0       13.285419    0.372858   -1.669270
    114          1           0       14.899162   -0.990437    0.318599
    115          1           0       13.935519   -1.593382   -0.850955
    116          1           0       15.259332   -0.774880   -1.406594
    117          1           0       13.639061    2.610115   -0.527699
    118          1           0       14.525886    1.861311    0.822476
    119          1           0       16.477470    1.357087   -0.866354
    120          1           0       15.193857    1.894446   -2.110415
    121          1           0       15.339703    4.221713   -0.693834
    122          1           0       16.217029    3.406055    0.383291
    123          1           0       18.297390    3.190943   -1.354715
    124          1           0       16.592929    4.740115   -3.186424
    125          1           0       18.063759    4.309051   -3.336331
    126          1           0       16.894586    2.989822   -3.259483
    127          1           0       18.036847    5.215473    0.409529
    128          1           0       19.060225    5.273471   -1.084858
    129          1           0       17.323979    6.016736   -1.035611
    130          1           0       -5.293988   -7.958331   -0.195082
    131          1           0       -6.456342   -6.785647    0.665183
    132          1           0       -4.591566   -7.056354    1.287831
    133          8           0       -7.856277    6.833882   -0.404979
    134          1           0       -9.062220    6.323499   -1.942480
 ---------------------------------------------------------------------

 SCF Done:  E(RCAM-B3LYP) =  -3043.45530750     A.U. after   15 cycles

 Excitation energies and oscillator strengths:

 Excited State   1:      Singlet-A      2.1997 eV  563.63 nm  f=0.1717  <S**2>=0.000
     243 -> 245        0.14196
     243 -> 246        0.26858
     244 -> 245        0.62402
 This state for optimization and/or second-order correction.
 Total Energy, E(TD-HF/TD-DFT) =  -3043.37446822
 Copying the excited state density for this state as the 1-particle RhoCI density.

 The electronic state is 1-A.
 Alpha  occ. eigenvalues --  -46.82292 -19.23332 -19.21513 -19.18502 -19.17348
 Alpha  occ. eigenvalues --  -19.16676 -19.16671 -19.16434 -14.38646 -14.37743
 Alpha  occ. eigenvalues --  -14.36987 -14.36497 -10.35404 -10.35117 -10.31237
 Alpha  occ. eigenvalues --  -10.30522 -10.29846 -10.29507 -10.28394 -10.27976
 Alpha  occ. eigenvalues --  -10.27507 -10.27471 -10.27328 -10.26129 -10.26041
 Alpha  occ. eigenvalues --  -10.25835 -10.25834 -10.25732 -10.25635 -10.25633
 Alpha  occ. eigenvalues --  -10.24962 -10.24739 -10.24562 -10.24536 -10.24473
 Alpha  occ. eigenvalues --  -10.24365 -10.24338 -10.24142 -10.23774 -10.23762
 Alpha  occ. eigenvalues --  -10.23653 -10.23614 -10.23528 -10.23346 -10.23249
 Alpha  occ. eigenvalues --  -10.23122 -10.22931 -10.22924 -10.22689 -10.22084
 Alpha  occ. eigenvalues --  -10.22001 -10.21811 -10.21726 -10.21689 -10.21677
 Alpha  occ. eigenvalues --  -10.21523 -10.21506 -10.21413 -10.20774 -10.20556
 Alpha  occ. eigenvalues --  -10.20175 -10.20119 -10.19867 -10.19300 -10.18431
 Alpha  occ. eigenvalues --  -10.18015  -3.10680  -1.85639  -1.85151  -1.85066
 Alpha  occ. eigenvalues --   -1.15060  -1.14993  -1.07496  -1.07062  -1.05507
 Alpha  occ. eigenvalues --   -1.04148  -1.03532  -1.02002  -1.01245  -0.99388
 Alpha  occ. eigenvalues --   -0.98098  -0.88352  -0.86706  -0.86374  -0.86217
 Alpha  occ. eigenvalues --   -0.85531  -0.84612  -0.84370  -0.83618  -0.83256
 Alpha  occ. eigenvalues --   -0.82739  -0.82289  -0.81009  -0.80510  -0.79820
 Alpha  occ. eigenvalues --   -0.78383  -0.78043  -0.77306  -0.77029  -0.76768
 Alpha  occ. eigenvalues --   -0.75245  -0.74847  -0.73259  -0.72970  -0.71763
 Alpha  occ. eigenvalues --   -0.71638  -0.71141  -0.70795  -0.70263  -0.69866
 Alpha  occ. eigenvalues --   -0.69275  -0.68907  -0.67354  -0.66849  -0.66719
 Alpha  occ. eigenvalues --   -0.66257  -0.65347  -0.64108  -0.62911  -0.62434
 Alpha  occ. eigenvalues --   -0.61756  -0.61048  -0.60521  -0.59588  -0.59580
 Alpha  occ. eigenvalues --   -0.58535  -0.58503  -0.57488  -0.57149  -0.56881
 Alpha  occ. eigenvalues --   -0.56672  -0.56090  -0.55691  -0.55275  -0.54826
 Alpha  occ. eigenvalues --   -0.54582  -0.53731  -0.52657  -0.52364  -0.51873
 Alpha  occ. eigenvalues --   -0.51521  -0.51119  -0.51060  -0.51031  -0.50886
 Alpha  occ. eigenvalues --   -0.50680  -0.50325  -0.49842  -0.49279  -0.49233
 Alpha  occ. eigenvalues --   -0.49013  -0.48805  -0.48522  -0.48033  -0.47681
 Alpha  occ. eigenvalues --   -0.47584  -0.47552  -0.47456  -0.46820  -0.46738
 Alpha  occ. eigenvalues --   -0.46544  -0.46481  -0.46084  -0.45891  -0.45789
 Alpha  occ. eigenvalues --   -0.45721  -0.45541  -0.45225  -0.44903  -0.44749
 Alpha  occ. eigenvalues --   -0.44670  -0.44451  -0.44325  -0.44194  -0.43900
 Alpha  occ. eigenvalues --   -0.43798  -0.43619  -0.43295  -0.43126  -0.43048
 Alpha  occ. eigenvalues --   -0.42738  -0.42574  -0.42307  -0.42166  -0.42037
 Alpha  occ. eigenvalues --   -0.41875  -0.41759  -0.41529  -0.41479  -0.41438
 Alpha  occ. eigenvalues --   -0.41253  -0.41028  -0.40603  -0.40379  -0.40352
 Alpha  occ. eigenvalues --   -0.40152  -0.39551  -0.39447  -0.39205  -0.38953
 Alpha  occ. eigenvalues --   -0.38745  -0.38625  -0.38409  -0.38334  -0.38299
 Alpha  occ. eigenvalues --   -0.37815  -0.37426  -0.37337  -0.36978  -0.36897
 Alpha  occ. eigenvalues --   -0.36816  -0.36650  -0.36230  -0.35802  -0.35574
 Alpha  occ. eigenvalues --   -0.35216  -0.34976  -0.34711  -0.34220  -0.33932
 Alpha  occ. eigenvalues --   -0.33799  -0.33756  -0.33700  -0.33024  -0.32832
 Alpha  occ. eigenvalues --   -0.32630  -0.32119  -0.31919  -0.31890  -0.31645
 Alpha  occ. eigenvalues --   -0.31345  -0.31001  -0.30403  -0.30136  -0.29983
 Alpha  occ. eigenvalues --   -0.29077  -0.28568  -0.27992  -0.27700  -0.27610
 Alpha  occ. eigenvalues --   -0.27273  -0.27176  -0.23319  -0.22228
 Alpha virt. eigenvalues --   -0.08417  -0.06564  -0.01392  -0.00783   0.00588
 Alpha virt. eigenvalues --    0.02307   0.02716   0.03896   0.04539   0.04627
 Alpha virt. eigenvalues --    0.04958   0.05500   0.07822   0.07841   0.08071

 Mulliken charges:
               1
     1  Mg   0.825300
     2  C    0.053887
     3  C   -0.190689
     4  C   -0.166298
     5  C   -0.143220
     6  N   -0.656685
     7  C    0.309225
     8  C   -0.151226
     9  C   -0.155576
    10  C    0.372306
    11  C   -0.316998
    12  C   -0.175619
    13  C   -0.257366
    14  C    0.598508
    15  O   -0.490303
    16  O   -0.424043
    17  N   -0.731558
    18  C    0.366628
    19  C   -0.000902
    20  C   -0.026326
    21  C    0.307428
    22  C   -0.370031
    23  C    0.245595
    24  O   -0.445130
    25  N   -0.698824
    26  C    0.337177
    27  C   -0.087400
    28  C    0.090688
    29  C    0.262163
    30  C    0.260551
    31  C   -0.266152
    32  C   -0.297070
    33  N   -0.750406
    34  C    0.280034
    35  C    0.009601
    36  C    0.020496
    37  C    0.351975
    38  C   -0.391196
    39  C    0.349966
    40  O   -0.465509
    41  C   -0.333721
    42  C    0.608622
    43  O   -0.397988
    44  O   -0.461765
    45  C   -0.074985
    46  C   -0.026152
    47  C   -0.114152
    48  C    0.130266
    49  C   -0.375817
    50  C   -0.239082
    51  C   -0.172435
    52  C   -0.170616
    53  C   -0.062351
    54  C   -0.291247
    55  C   -0.155997
    56  C   -0.182934
    57  C   -0.166207
    58  C   -0.069890
    59  C   -0.306935
    60  C   -0.177013
    61  C   -0.181451
    62  C   -0.142971
    63  C   -0.061699
    64  C   -0.297747
    65  C   -0.316781
    66  H    0.094330
    67  H    0.150665
    68  H    0.103662
    69  H    0.114739
    70  H    0.109586
    71  H    0.102298
    72  H    0.119893
    73  H    0.128197
    74  H    0.106746
    75  H    0.120909
    76  H    0.123306
    77  H    0.130844
    78  H    0.137044
    79  H    0.164122
    80  H    0.110495
    81  H    0.090895
    82  H    0.102487
    83  H    0.092491
    84  H    0.086960
    85  H    0.133209
    86  H    0.104665
    87  H    0.094458
    88  H    0.151718
    89  H    0.136537
    90  H    0.163783
    91  H    0.094861
    92  H    0.134742
    93  H    0.097561
    94  H    0.116364
    95  H    0.130374
    96  H    0.121143
    97  H    0.108026
    98  H    0.091563
    99  H    0.108437
   100  H    0.119524
   101  H    0.060915
   102  H    0.098300
   103  H    0.037804
   104  H    0.115176
   105  H    0.061413
   106  H    0.085332
   107  H    0.095224
   108  H    0.095662
   109  H    0.094779
   110  H    0.086248
   111  H    0.091683
   112  H    0.090965
   113  H    0.074445
   114  H    0.099219
   115  H    0.107666
   116  H    0.089959
   117  H    0.077284
   118  H    0.096732
   119  H    0.057968
   120  H    0.081376
   121  H    0.098324
   122  H    0.104871
   123  H    0.087270
   124  H    0.107140
   125  H    0.085590
   126  H    0.107122
   127  H    0.065160
   128  H    0.102537
   129  H    0.111326
   130  H    0.130130
   131  H    0.117451
   132  H    0.100374
   133  O   -0.423985
   134  H    0.069950
 Sum of Mulliken charges =  -0.00000

 Dipole moment (field-independent basis, Debye):
    X=              1.6019    Y=             -3.8865    Z=              0.3923  Tot=              4.2219
 Quadrupole moment (field-independent basis, Debye-Ang):
   XX=           -383.2809   YY=           -439.3896   ZZ=           -396.0546
   XY=              4.3691   XZ=             16.0768   YZ=            -36.8118

 Normal termination of Gaussian 16 at Fri Oct  4 18:34:20 2019.
