 Gaussian 16, Revision A.03,
 Gaussian 16:  ES64L-G16RevA.03 25-Dec-2016

 ----------------------------------------------------------------------
 # td=(NStates=1) iop(3/107=0140000000,3/108=0140000000) iop(3/107=0140
 000000,3/108=0140000000) CAM-B3LYP/6-31G(d,p)
 ----------------------------------------------------------------------

 --
 TD
 --
 Symbolic Z-matrix:
 Charge =  0 Multiplicity = 1

                         Standard orientation:
 ---------------------------------------------------------------------
 Center     Atomic      Atomic             Coordinates (Angstroms)
 Number     Number       Type             X           Y           Z
 ---------------------------------------------------------------------
      1         12           0       -5.700727    1.215648    0.214710
      2          6           0       -5.048180   -2.176168   -0.405538
      3          6           0       -3.368283    1.089919    2.689568
      4          6           0       -6.148276    4.547409    0.673218
      5          6           0       -7.986551    1.170690   -2.323375
      6          7           0       -4.377133   -0.272534    0.962391
      7          6           0       -4.304220   -1.576030    0.621520
      8          6           0       -3.301005   -2.342060    1.450481
      9          6           0       -2.901278   -1.263301    2.542772
     10          6           0       -3.609594   -0.099303    2.008472
     11          6           0       -3.302385   -1.762013    3.975527
     12          6           0       -2.009924   -2.691704    0.583067
     13          6           0       -0.946116   -3.586752    1.363364
     14          6           0        0.263975   -3.866446    0.587556
     15          8           0        0.530463   -3.560461   -0.595680
     16          8           0        1.165664   -4.567924    1.355646
     17          7           0       -4.930685    2.603403    1.471040
     18          6           0       -4.014345    2.391298    2.405460
     19          6           0       -3.769966    3.664094    3.104995
     20          6           0       -4.532004    4.564962    2.523511
     21          6           0       -5.220378    3.939032    1.421038
     22          6           0       -2.803911    3.740215    4.269824
     23          6           0       -4.606063    5.983149    2.812365
     24          8           0       -3.967449    6.573285    3.737616
     25          7           0       -6.912173    2.545116   -0.620921
     26          6           0       -6.916647    3.882649   -0.359263
     27          6           0       -8.010700    4.614315   -1.139412
     28          6           0       -8.536068    3.652541   -2.060690
     29          6           0       -7.845846    2.406430   -1.654713
     30          6           0       -8.402639    5.933016   -1.067120
     31          6           0       -9.482237    3.733407   -3.150220
     32          6           0       -8.864347    4.068825   -4.594219
     33          7           0       -6.377183   -0.132460   -1.073775
     34          6           0       -7.405225   -0.069375   -2.036178
     35          6           0       -7.713975   -1.256500   -2.630080
     36          6           0       -6.761991   -2.222215   -1.972550
     37          6           0       -6.016860   -1.460399   -1.089055
     38          6           0       -8.536676   -1.632280   -3.780716
     39          6           0       -6.302060   -3.608350   -2.016602
     40          8           0       -6.600570   -4.524144   -2.714892
     41          6           0       -5.176793   -3.569018   -0.890694
     42          6           0       -5.450319   -4.610943    0.180489
     43          8           0       -5.901663   -4.409583    1.294443
     44          8           0       -5.078056   -5.860295   -0.339793
     45          6           0       -5.314549   -6.905091    0.583591
     46          6           0        2.385952   -5.081762    0.672210
     47          6           0        3.386102   -4.051959    0.905924
     48          6           0        4.053325   -3.181729    0.174068
     49          6           0        3.794957   -2.929072   -1.309181
     50          6           0        5.203114   -2.270571    0.793097
     51          6           0        6.555434   -2.525441    0.050519
     52          6           0        7.639458   -1.631116    0.608915
     53          6           0        8.948956   -1.868951   -0.069802
     54          6           0        9.420702   -3.275721    0.190356
     55          6           0       10.072937   -0.850975    0.355994
     56          6           0       11.454262   -0.791017   -0.242836
     57          6           0       12.277778    0.306278    0.137671
     58          6           0       13.633118    0.499922   -0.605276
     59          6           0       14.454342   -0.688336   -0.300962
     60          6           0       14.323190    1.819781   -0.087500
     61          6           0       15.640063    2.065849   -0.950495
     62          6           0       16.187147    3.448850   -0.665582
     63          6           0       17.582727    3.712046   -1.399003
     64          6           0       17.293765    3.767228   -2.895592
     65          6           0       18.168218    4.920101   -0.855870
     66          1           0       -2.643555    1.151136    3.450572
     67          1           0       -5.950648    5.547775    0.664624
     68          1           0       -8.733368    1.260748   -3.075300
     69          1           0       -3.690990   -3.285515    2.026386
     70          1           0       -1.760504   -1.025088    2.540904
     71          1           0       -2.678422   -2.653005    3.987235
     72          1           0       -3.031442   -1.179819    5.076325
     73          1           0       -4.337502   -2.032630    4.190871
     74          1           0       -2.403933   -3.213145   -0.243224
     75          1           0       -1.762255   -1.865294    0.172474
     76          1           0       -0.854371   -3.436545    2.544415
     77          1           0       -1.521115   -4.518429    1.498445
     78          1           0       -1.819288    3.244212    4.086135
     79          1           0       -2.843358    4.739694    4.632275
     80          1           0       -3.126225    3.207493    5.122098
     81          1           0       -5.440347    6.662760    2.393816
     82          1           0      -10.306648    3.002454   -3.163124
     83          1           0       -9.912998    4.725903   -2.913511
     84          1           0       -9.682313    4.595531   -5.327285
     85          1           0       -7.833523    4.651521   -4.423564
     86          1           0       -8.428282    2.960959   -5.101165
     87          1           0       -8.282626   -0.971246   -4.747371
     88          1           0       -8.420420   -2.854543   -4.054946
     89          1           0       -9.438699   -1.508480   -3.378549
     90          1           0       -4.067086   -3.788233   -1.337577
     91          1           0        2.698303   -5.886321    1.099577
     92          1           0        2.344554   -5.249490   -0.376474
     93          1           0        3.603548   -3.988269    2.024184
     94          1           0        2.722686   -3.310763   -1.523254
     95          1           0        3.809911   -1.772436   -1.401322
     96          1           0        4.557584   -3.351589   -2.094983
     97          1           0        4.872378   -1.178952    0.754656
     98          1           0        5.169411   -2.645554    1.751806
     99          1           0        6.789183   -3.492239    0.276888
    100          1           0        6.349002   -2.225151   -1.075722
    101          1           0        7.223914   -0.497121    0.396197
    102          1           0        7.739808   -1.768300    1.659516
    103          1           0        8.786545   -1.799592   -1.242617
    104          1           0        8.426656   -3.757209   -0.052257
    105          1           0       10.355132   -3.543968   -0.513075
    106          1           0        9.658423   -3.398639    1.266581
    107          1           0        9.569671    0.191958    0.283596
    108          1           0       10.201059   -0.904070    1.451172
    109          1           0       11.927602   -1.693784   -0.157251
    110          1           0       11.162932   -0.695720   -1.398749
    111          1           0       11.920135    1.402143    0.058329
    112          1           0       12.504938    0.294234    1.240776
    113          1           0       13.462598    0.428660   -1.651893
    114          1           0       14.805625   -0.678630    0.705541
    115          1           0       14.073215   -1.574262   -0.581045
    116          1           0       15.449503   -0.421248   -0.611550
    117          1           0       13.460798    2.730325   -0.386623
    118          1           0       14.420923    1.721983    0.971135
    119          1           0       16.510858    1.354294   -0.720626
    120          1           0       15.150081    1.939002   -2.071632
    121          1           0       15.353035    4.168802   -0.864084
    122          1           0       16.117005    3.368533    0.543776
    123          1           0       18.103749    2.761822   -1.172669
    124          1           0       16.400363    4.473088   -2.916889
    125          1           0       18.095163    4.242545   -3.368476
    126          1           0       17.157104    2.728208   -3.212691
    127          1           0       18.381933    4.937502    0.213374
    128          1           0       19.039922    5.300099   -1.319087
    129          1           0       17.377218    5.974881   -0.945508
    130          1           0       -5.233543   -7.753802   -0.016253
    131          1           0       -6.328071   -6.900932    0.941876
    132          1           0       -4.562172   -6.964810    1.354396
    133          8           0       -8.104834    6.819560   -0.326178
    134          1           0       -9.198939    5.996160   -1.774836
 ---------------------------------------------------------------------

 SCF Done:  E(RCAM-B3LYP) =  -3043.43845988     A.U. after   15 cycles

 Excitation energies and oscillator strengths:

 Excited State   1:      Singlet-A      2.1391 eV  579.61 nm  f=0.1529  <S**2>=0.000
     243 -> 245       -0.24458
     243 -> 246       -0.26022
     244 -> 245        0.57612
     244 -> 246       -0.16986
 This state for optimization and/or second-order correction.
 Total Energy, E(TD-HF/TD-DFT) =  -3043.35984931
 Copying the excited state density for this state as the 1-particle RhoCI density.

 The electronic state is 1-A.
 Alpha  occ. eigenvalues --  -46.80871 -19.22424 -19.22376 -19.18413 -19.17571
 Alpha  occ. eigenvalues --  -19.17288 -19.17179 -19.16470 -14.39209 -14.38296
 Alpha  occ. eigenvalues --  -14.37133 -14.35850 -10.36023 -10.35694 -10.31309
 Alpha  occ. eigenvalues --  -10.31084 -10.28552 -10.28209 -10.27635 -10.27615
 Alpha  occ. eigenvalues --  -10.27346 -10.27183 -10.26698 -10.26333 -10.26286
 Alpha  occ. eigenvalues --  -10.26216 -10.26201 -10.25811 -10.25587 -10.25576
 Alpha  occ. eigenvalues --  -10.25279 -10.25101 -10.24870 -10.24860 -10.24835
 Alpha  occ. eigenvalues --  -10.24824 -10.24727 -10.24368 -10.23735 -10.23553
 Alpha  occ. eigenvalues --  -10.23253 -10.23229 -10.22906 -10.22856 -10.22785
 Alpha  occ. eigenvalues --  -10.22769 -10.22747 -10.22717 -10.22068 -10.22009
 Alpha  occ. eigenvalues --  -10.21928 -10.21654 -10.21638 -10.21618 -10.21604
 Alpha  occ. eigenvalues --  -10.21570 -10.21492 -10.21160 -10.21104 -10.20863
 Alpha  occ. eigenvalues --  -10.20567 -10.20354 -10.20293 -10.20067 -10.20016
 Alpha  occ. eigenvalues --  -10.17509  -3.09743  -1.84659  -1.84251  -1.84143
 Alpha  occ. eigenvalues --   -1.12650  -1.11740  -1.08327  -1.07520  -1.05363
 Alpha  occ. eigenvalues --   -1.04315  -1.03083  -1.02765  -1.01645  -0.99622
 Alpha  occ. eigenvalues --   -0.98527  -0.89292  -0.86677  -0.86426  -0.86079
 Alpha  occ. eigenvalues --   -0.85533  -0.85395  -0.84769  -0.84640  -0.84136
 Alpha  occ. eigenvalues --   -0.83752  -0.83647  -0.81969  -0.81101  -0.80320
 Alpha  occ. eigenvalues --   -0.79185  -0.78898  -0.77785  -0.77399  -0.77033
 Alpha  occ. eigenvalues --   -0.75792  -0.75541  -0.74379  -0.73338  -0.72194
 Alpha  occ. eigenvalues --   -0.71262  -0.70648  -0.70380  -0.70147  -0.69976
 Alpha  occ. eigenvalues --   -0.69249  -0.69065  -0.68256  -0.67672  -0.67196
 Alpha  occ. eigenvalues --   -0.66301  -0.64448  -0.64199  -0.62810  -0.62500
 Alpha  occ. eigenvalues --   -0.61760  -0.61030  -0.60402  -0.59563  -0.59108
 Alpha  occ. eigenvalues --   -0.58952  -0.58213  -0.58204  -0.57298  -0.57245
 Alpha  occ. eigenvalues --   -0.56847  -0.56231  -0.55355  -0.55210  -0.54464
 Alpha  occ. eigenvalues --   -0.54049  -0.53385  -0.52980  -0.52544  -0.52289
 Alpha  occ. eigenvalues --   -0.51870  -0.51660  -0.51451  -0.51007  -0.50815
 Alpha  occ. eigenvalues --   -0.50501  -0.50088  -0.49728  -0.49581  -0.49268
 Alpha  occ. eigenvalues --   -0.49139  -0.48723  -0.48652  -0.48362  -0.48040
 Alpha  occ. eigenvalues --   -0.47847  -0.47699  -0.47590  -0.47211  -0.47022
 Alpha  occ. eigenvalues --   -0.46818  -0.46574  -0.46352  -0.46238  -0.46112
 Alpha  occ. eigenvalues --   -0.45767  -0.45695  -0.45283  -0.45071  -0.45040
 Alpha  occ. eigenvalues --   -0.44991  -0.44618  -0.44438  -0.44333  -0.43957
 Alpha  occ. eigenvalues --   -0.43814  -0.43443  -0.43419  -0.43239  -0.43143
 Alpha  occ. eigenvalues --   -0.42650  -0.42627  -0.42533  -0.42294  -0.42142
 Alpha  occ. eigenvalues --   -0.41913  -0.41891  -0.41567  -0.41203  -0.41110
 Alpha  occ. eigenvalues --   -0.41028  -0.40537  -0.40312  -0.40131  -0.40051
 Alpha  occ. eigenvalues --   -0.39936  -0.39874  -0.39804  -0.39570  -0.39042
 Alpha  occ. eigenvalues --   -0.38995  -0.38818  -0.38586  -0.38333  -0.38293
 Alpha  occ. eigenvalues --   -0.38196  -0.37902  -0.37691  -0.37479  -0.37124
 Alpha  occ. eigenvalues --   -0.37089  -0.36788  -0.36083  -0.36001  -0.35606
 Alpha  occ. eigenvalues --   -0.35465  -0.35387  -0.35049  -0.34974  -0.34432
 Alpha  occ. eigenvalues --   -0.34285  -0.33972  -0.33887  -0.33552  -0.32639
 Alpha  occ. eigenvalues --   -0.32579  -0.32362  -0.32120  -0.32102  -0.31798
 Alpha  occ. eigenvalues --   -0.31527  -0.31424  -0.31021  -0.30317  -0.29998
 Alpha  occ. eigenvalues --   -0.29179  -0.28922  -0.27921  -0.27788  -0.27445
 Alpha  occ. eigenvalues --   -0.27433  -0.26864  -0.23254  -0.22197
 Alpha virt. eigenvalues --   -0.08778  -0.07014  -0.02227  -0.01515   0.00675
 Alpha virt. eigenvalues --    0.01615   0.02566   0.03325   0.04015   0.04444
 Alpha virt. eigenvalues --    0.05134   0.05267   0.06675   0.07796   0.09006

 Mulliken charges:
               1
     1  Mg   0.824231
     2  C    0.093148
     3  C   -0.186573
     4  C   -0.121327
     5  C   -0.163908
     6  N   -0.625609
     7  C    0.302904
     8  C   -0.200536
     9  C   -0.150815
    10  C    0.399915
    11  C   -0.304205
    12  C   -0.152902
    13  C   -0.290116
    14  C    0.641356
    15  O   -0.487086
    16  O   -0.485993
    17  N   -0.715724
    18  C    0.314350
    19  C    0.045273
    20  C    0.007267
    21  C    0.299296
    22  C   -0.394128
    23  C    0.204091
    24  O   -0.434167
    25  N   -0.671484
    26  C    0.278730
    27  C   -0.004188
    28  C    0.074548
    29  C    0.254360
    30  C    0.229566
    31  C   -0.274307
    32  C   -0.284207
    33  N   -0.741330
    34  C    0.292475
    35  C    0.049174
    36  C   -0.029462
    37  C    0.309570
    38  C   -0.369641
    39  C    0.368158
    40  O   -0.436207
    41  C   -0.352538
    42  C    0.621830
    43  O   -0.464384
    44  O   -0.453190
    45  C   -0.086714
    46  C    0.025553
    47  C   -0.139902
    48  C    0.127939
    49  C   -0.378800
    50  C   -0.227422
    51  C   -0.175202
    52  C   -0.153494
    53  C   -0.053540
    54  C   -0.291125
    55  C   -0.167287
    56  C   -0.161734
    57  C   -0.148810
    58  C   -0.061161
    59  C   -0.303855
    60  C   -0.178333
    61  C   -0.168210
    62  C   -0.156988
    63  C   -0.057775
    64  C   -0.293261
    65  C   -0.286096
    66  H    0.075558
    67  H    0.115606
    68  H    0.081469
    69  H    0.117195
    70  H    0.116868
    71  H    0.111160
    72  H    0.079129
    73  H    0.137271
    74  H    0.115875
    75  H    0.125982
    76  H    0.136736
    77  H    0.155850
    78  H    0.123245
    79  H    0.159751
    80  H    0.135185
    81  H    0.101864
    82  H    0.131170
    83  H    0.125193
    84  H    0.115961
    85  H    0.117711
    86  H    0.075051
    87  H    0.117131
    88  H    0.133768
    89  H    0.145061
    90  H    0.147323
    91  H    0.121874
    92  H    0.131394
    93  H    0.064336
    94  H    0.137662
    95  H    0.100935
    96  H    0.104823
    97  H    0.094921
    98  H    0.098899
    99  H    0.122360
   100  H    0.094751
   101  H    0.066672
   102  H    0.097234
   103  H    0.062549
   104  H    0.090053
   105  H    0.090122
   106  H    0.098026
   107  H    0.070190
   108  H    0.074058
   109  H    0.102834
   110  H    0.065053
   111  H    0.068153
   112  H    0.072984
   113  H    0.086792
   114  H    0.090334
   115  H    0.108961
   116  H    0.087940
   117  H    0.057050
   118  H    0.103636
   119  H    0.091929
   120  H    0.076849
   121  H    0.090619
   122  H    0.062941
   123  H    0.087424
   124  H    0.100777
   125  H    0.107072
   126  H    0.109828
   127  H    0.110238
   128  H    0.103687
   129  H    0.043522
   130  H    0.127668
   131  H    0.132461
   132  H    0.114763
   133  O   -0.435137
   134  H    0.033657
 Sum of Mulliken charges =  -0.00000

 Dipole moment (field-independent basis, Debye):
    X=              1.4893    Y=             -4.6803    Z=             -0.0050  Tot=              4.9115
 Quadrupole moment (field-independent basis, Debye-Ang):
   XX=           -368.6560   YY=           -443.2837   ZZ=           -394.7861
   XY=              6.0093   XZ=             22.8880   YZ=            -40.2340

 Normal termination of Gaussian 16 at Wed Oct  9 04:40:18 2019.
