 Gaussian 16, Revision A.03,
 Gaussian 16:  ES64L-G16RevA.03 25-Dec-2016

 ----------------------------------------------------------------------
 # td=(NStates=1) iop(3/107=0140000000,3/108=0140000000) iop(3/107=0140
 000000,3/108=0140000000) CAM-B3LYP/6-31G(d,p)
 ----------------------------------------------------------------------

 --
 TD
 --
 Symbolic Z-matrix:
 Charge =  0 Multiplicity = 1

                         Standard orientation:
 ---------------------------------------------------------------------
 Center     Atomic      Atomic             Coordinates (Angstroms)
 Number     Number       Type             X           Y           Z
 ---------------------------------------------------------------------
      1         12           0       -5.673138    1.163764    0.278286
      2          6           0       -5.041141   -2.137869   -0.412294
      3          6           0       -3.350027    1.161707    2.700554
      4          6           0       -6.169896    4.553310    0.673674
      5          6           0       -7.969511    1.185852   -2.392710
      6          7           0       -4.326402   -0.290336    0.943832
      7          6           0       -4.150865   -1.617222    0.502611
      8          6           0       -3.216498   -2.338859    1.505515
      9          6           0       -2.994134   -1.386540    2.647179
     10          6           0       -3.607038   -0.071029    2.182400
     11          6           0       -3.640724   -1.736689    3.931954
     12          6           0       -2.018769   -2.789069    0.680495
     13          6           0       -1.021726   -3.559230    1.486001
     14          6           0        0.150308   -4.002444    0.736973
     15          8           0        0.351841   -3.561189   -0.354213
     16          8           0        0.990100   -4.875496    1.263389
     17          7           0       -4.961997    2.579021    1.546461
     18          6           0       -4.085571    2.394772    2.532011
     19          6           0       -3.744742    3.588789    3.286653
     20          6           0       -4.491766    4.559919    2.630321
     21          6           0       -5.270249    3.972210    1.540634
     22          6           0       -2.779413    3.667867    4.431534
     23          6           0       -4.608077    5.969983    2.971905
     24          8           0       -4.171182    6.533517    4.018406
     25          7           0       -6.860129    2.625109   -0.675243
     26          6           0       -6.835078    3.950234   -0.405498
     27          6           0       -7.809793    4.618768   -1.242815
     28          6           0       -8.270807    3.737961   -2.048801
     29          6           0       -7.672291    2.525323   -1.718666
     30          6           0       -8.158878    6.044781   -1.277803
     31          6           0       -9.241635    4.007040   -3.149380
     32          6           0       -8.843032    4.216429   -4.540062
     33          7           0       -6.346157   -0.061668   -1.128949
     34          6           0       -7.338066   -0.009682   -2.071937
     35          6           0       -7.595505   -1.256715   -2.624932
     36          6           0       -6.792038   -2.176389   -1.976816
     37          6           0       -6.025375   -1.394084   -1.111269
     38          6           0       -8.657083   -1.570171   -3.696709
     39          6           0       -6.178960   -3.420442   -2.079443
     40          8           0       -6.416374   -4.481234   -2.695990
     41          6           0       -4.989099   -3.574327   -1.005259
     42          6           0       -5.268843   -4.669433   -0.026775
     43          8           0       -5.601616   -4.511933    1.193690
     44          8           0       -4.999589   -5.892984   -0.518580
     45          6           0       -5.328010   -6.954711    0.384954
     46          6           0        2.318290   -5.162276    0.629353
     47          6           0        3.453366   -4.118682    0.958393
     48          6           0        4.047991   -3.233234    0.196900
     49          6           0        3.828289   -3.176541   -1.270555
     50          6           0        5.094295   -2.395704    0.623646
     51          6           0        6.458570   -2.697507   -0.016165
     52          6           0        7.572635   -1.903543    0.613531
     53          6           0        9.044336   -2.038689   -0.172351
     54          6           0        9.655117   -3.431933    0.227897
     55          6           0        9.865792   -0.775556    0.216245
     56          6           0       11.278680   -0.863370   -0.274642
     57          6           0       12.251710    0.318557    0.212666
     58          6           0       13.604610    0.450841   -0.449406
     59          6           0       14.392288   -0.702945   -0.358023
     60          6           0       14.233720    1.800488   -0.267860
     61          6           0       15.510262    2.188808   -0.965525
     62          6           0       16.056217    3.521141   -0.608765
     63          6           0       17.303175    3.945553   -1.377683
     64          6           0       17.068183    4.133392   -2.845169
     65          6           0       17.849032    5.208739   -0.731635
     66          1           0       -2.777281    1.180364    3.614625
     67          1           0       -6.663614    5.487849    0.898260
     68          1           0       -8.485043    1.138150   -3.321229
     69          1           0       -3.834966   -3.125344    1.783831
     70          1           0       -2.059932   -1.125827    2.889134
     71          1           0       -3.119512   -2.540513    4.547771
     72          1           0       -3.830347   -0.822616    4.693344
     73          1           0       -4.609546   -2.098174    3.910263
     74          1           0       -2.302340   -3.309442   -0.379096
     75          1           0       -1.628992   -1.832203    0.473109
     76          1           0       -0.553592   -3.172608    2.398575
     77          1           0       -1.513548   -4.561838    1.738920
     78          1           0       -1.915962    3.562414    4.000850
     79          1           0       -2.845241    4.723129    4.629979
     80          1           0       -2.924098    2.955891    5.338732
     81          1           0       -5.179300    6.678772    2.553440
     82          1           0       -9.914480    3.003337   -3.357507
     83          1           0       -9.984337    4.732332   -2.903079
     84          1           0       -9.552858    4.097921   -5.391790
     85          1           0       -8.153692    5.159419   -4.745295
     86          1           0       -8.036213    3.402954   -4.907723
     87          1           0       -8.513422   -0.896329   -4.507864
     88          1           0       -8.438673   -2.635479   -3.952064
     89          1           0       -9.871952   -1.459629   -3.487916
     90          1           0       -4.013897   -3.812187   -1.491298
     91          1           0        2.519120   -6.036113    1.055969
     92          1           0        2.304555   -5.265137   -0.443824
     93          1           0        3.618691   -4.194884    1.947094
     94          1           0        2.827176   -3.748412   -1.440984
     95          1           0        3.795924   -2.058747   -1.513180
     96          1           0        4.616511   -3.645505   -1.855539
     97          1           0        4.726964   -1.527082    0.558544
     98          1           0        5.019928   -2.453943    1.659070
     99          1           0        6.779633   -3.639739   -0.017068
    100          1           0        6.432905   -2.633557   -1.206789
    101          1           0        7.116734   -1.008508    0.440834
    102          1           0        7.587933   -2.067830    1.739713
    103          1           0        8.879748   -1.939059   -1.232297
    104          1           0        9.090927   -4.250648   -0.231694
    105          1           0       10.742742   -3.447135   -0.139704
    106          1           0        9.879882   -3.311780    1.322589
    107          1           0        9.306188   -0.005234   -0.215764
    108          1           0        9.992513   -0.702084    1.261005
    109          1           0       11.711204   -1.872565   -0.140204
    110          1           0       11.235077   -0.686037   -1.430767
    111          1           0       11.798411    1.321396   -0.192217
    112          1           0       12.195329    0.449461    1.419356
    113          1           0       13.289927    0.401636   -1.422373
    114          1           0       14.614201   -0.980620    0.866045
    115          1           0       14.052964   -1.646008   -0.555418
    116          1           0       15.349906   -0.569439   -0.800732
    117          1           0       13.485884    2.727906   -0.549734
    118          1           0       14.550673    1.836658    0.807495
    119          1           0       16.290135    1.437755   -0.619684
    120          1           0       15.208480    2.090622   -1.984166
    121          1           0       15.177509    4.141904   -0.970101
    122          1           0       16.150806    3.578953    0.557659
    123          1           0       18.260557    3.180237   -1.144714
    124          1           0       16.285545    4.698859   -3.061960
    125          1           0       18.110572    4.419875   -3.199225
    126          1           0       16.837740    3.141377   -3.286489
    127          1           0       18.201455    5.038269    0.321006
    128          1           0       18.692220    5.508798   -1.274828
    129          1           0       17.203985    6.147291   -0.831616
    130          1           0       -4.911650   -7.778971   -0.136708
    131          1           0       -6.479418   -6.902373    0.452002
    132          1           0       -4.811338   -6.886828    1.319637
    133          8           0       -7.654925    6.892255   -0.545746
    134          1           0       -8.694376    6.307917   -2.196287
 ---------------------------------------------------------------------

 SCF Done:  E(RCAM-B3LYP) =  -3043.42850190     A.U. after   16 cycles

 Excitation energies and oscillator strengths:

 Excited State   1:      Singlet-A      2.0221 eV  613.13 nm  f=0.1526  <S**2>=0.000
     243 -> 246        0.30995
     244 -> 245        0.62560
 This state for optimization and/or second-order correction.
 Total Energy, E(TD-HF/TD-DFT) =  -3043.35418977
 Copying the excited state density for this state as the 1-particle RhoCI density.

 The electronic state is 1-A.
 Alpha  occ. eigenvalues --  -46.81263 -19.22857 -19.21273 -19.18038 -19.16774
 Alpha  occ. eigenvalues --  -19.16562 -19.16045 -19.14629 -14.38240 -14.37434
 Alpha  occ. eigenvalues --  -14.37254 -14.36711 -10.35287 -10.32915 -10.31485
 Alpha  occ. eigenvalues --  -10.30914 -10.28805 -10.27517 -10.27384 -10.27002
 Alpha  occ. eigenvalues --  -10.26961 -10.26750 -10.26726 -10.26714 -10.26474
 Alpha  occ. eigenvalues --  -10.25924 -10.25889 -10.25780 -10.25435 -10.25254
 Alpha  occ. eigenvalues --  -10.24766 -10.24408 -10.24261 -10.23895 -10.23779
 Alpha  occ. eigenvalues --  -10.23754 -10.23680 -10.23572 -10.23444 -10.23222
 Alpha  occ. eigenvalues --  -10.23050 -10.22920 -10.22715 -10.22685 -10.22661
 Alpha  occ. eigenvalues --  -10.22492 -10.22350 -10.22284 -10.21915 -10.21838
 Alpha  occ. eigenvalues --  -10.21708 -10.21656 -10.21546 -10.21306 -10.21251
 Alpha  occ. eigenvalues --  -10.21185 -10.21094 -10.20653 -10.20161 -10.20091
 Alpha  occ. eigenvalues --  -10.20016 -10.19901 -10.19821 -10.19818 -10.19711
 Alpha  occ. eigenvalues --  -10.19134  -3.09917  -1.84848  -1.84374  -1.84350
 Alpha  occ. eigenvalues --   -1.13254  -1.12953  -1.07046  -1.05158  -1.03798
 Alpha  occ. eigenvalues --   -1.03356  -1.02552  -1.02171  -1.01187  -0.99583
 Alpha  occ. eigenvalues --   -0.96988  -0.88875  -0.88269  -0.87083  -0.86953
 Alpha  occ. eigenvalues --   -0.86248  -0.85176  -0.84757  -0.84317  -0.83881
 Alpha  occ. eigenvalues --   -0.83759  -0.83608  -0.82200  -0.81004  -0.80328
 Alpha  occ. eigenvalues --   -0.80188  -0.79320  -0.78575  -0.77636  -0.77493
 Alpha  occ. eigenvalues --   -0.75652  -0.75463  -0.74706  -0.73212  -0.72489
 Alpha  occ. eigenvalues --   -0.72376  -0.71765  -0.71182  -0.70415  -0.70162
 Alpha  occ. eigenvalues --   -0.69949  -0.69853  -0.68225  -0.67531  -0.66564
 Alpha  occ. eigenvalues --   -0.66196  -0.65963  -0.65046  -0.63150  -0.62784
 Alpha  occ. eigenvalues --   -0.62449  -0.60950  -0.60446  -0.58904  -0.58741
 Alpha  occ. eigenvalues --   -0.58357  -0.58162  -0.57995  -0.57655  -0.57301
 Alpha  occ. eigenvalues --   -0.56507  -0.56000  -0.55836  -0.55699  -0.55278
 Alpha  occ. eigenvalues --   -0.54075  -0.53627  -0.53519  -0.53180  -0.52470
 Alpha  occ. eigenvalues --   -0.52329  -0.52050  -0.51996  -0.51065  -0.50642
 Alpha  occ. eigenvalues --   -0.50343  -0.50262  -0.49902  -0.49571  -0.49387
 Alpha  occ. eigenvalues --   -0.49310  -0.49037  -0.48850  -0.48589  -0.48417
 Alpha  occ. eigenvalues --   -0.48124  -0.47944  -0.47600  -0.47452  -0.47104
 Alpha  occ. eigenvalues --   -0.46844  -0.46765  -0.46515  -0.46376  -0.46140
 Alpha  occ. eigenvalues --   -0.45941  -0.45848  -0.45288  -0.45241  -0.44986
 Alpha  occ. eigenvalues --   -0.44770  -0.44710  -0.44652  -0.44265  -0.44187
 Alpha  occ. eigenvalues --   -0.43791  -0.43729  -0.43508  -0.43323  -0.43148
 Alpha  occ. eigenvalues --   -0.42884  -0.42638  -0.42327  -0.42252  -0.42155
 Alpha  occ. eigenvalues --   -0.41921  -0.41894  -0.41814  -0.41285  -0.41155
 Alpha  occ. eigenvalues --   -0.40828  -0.40708  -0.40566  -0.40279  -0.40070
 Alpha  occ. eigenvalues --   -0.39885  -0.39583  -0.39564  -0.39246  -0.39080
 Alpha  occ. eigenvalues --   -0.38733  -0.38548  -0.38400  -0.38375  -0.38090
 Alpha  occ. eigenvalues --   -0.37965  -0.37529  -0.37454  -0.37087  -0.36600
 Alpha  occ. eigenvalues --   -0.36492  -0.36300  -0.36231  -0.35804  -0.35510
 Alpha  occ. eigenvalues --   -0.35434  -0.34882  -0.34746  -0.34651  -0.34607
 Alpha  occ. eigenvalues --   -0.34361  -0.34234  -0.33600  -0.33461  -0.33070
 Alpha  occ. eigenvalues --   -0.32863  -0.32568  -0.32401  -0.32051  -0.31476
 Alpha  occ. eigenvalues --   -0.31202  -0.31006  -0.30317  -0.30092  -0.30017
 Alpha  occ. eigenvalues --   -0.29053  -0.28724  -0.28500  -0.28224  -0.27577
 Alpha  occ. eigenvalues --   -0.27260  -0.26761  -0.22878  -0.22324
 Alpha virt. eigenvalues --   -0.09085  -0.07063  -0.02055  -0.01513   0.00197
 Alpha virt. eigenvalues --    0.01994   0.02910   0.04016   0.04427   0.04993
 Alpha virt. eigenvalues --    0.05353   0.06374   0.07626   0.08182   0.09383

 Mulliken charges:
               1
     1  Mg   0.829507
     2  C    0.077255
     3  C   -0.151278
     4  C   -0.162738
     5  C   -0.165078
     6  N   -0.621034
     7  C    0.249588
     8  C   -0.150988
     9  C   -0.098724
    10  C    0.272956
    11  C   -0.326021
    12  C   -0.151140
    13  C   -0.266174
    14  C    0.586346
    15  O   -0.467022
    16  O   -0.488226
    17  N   -0.689479
    18  C    0.293628
    19  C    0.042610
    20  C   -0.035221
    21  C    0.291307
    22  C   -0.376138
    23  C    0.221973
    24  O   -0.441941
    25  N   -0.644272
    26  C    0.250345
    27  C   -0.012644
    28  C    0.087486
    29  C    0.254375
    30  C    0.249185
    31  C   -0.253766
    32  C   -0.304763
    33  N   -0.728249
    34  C    0.315718
    35  C    0.016984
    36  C    0.083010
    37  C    0.278912
    38  C   -0.370314
    39  C    0.320955
    40  O   -0.477311
    41  C   -0.316515
    42  C    0.629639
    43  O   -0.504258
    44  O   -0.431220
    45  C   -0.078657
    46  C    0.028464
    47  C   -0.150270
    48  C    0.132421
    49  C   -0.364499
    50  C   -0.199452
    51  C   -0.180761
    52  C   -0.176345
    53  C   -0.079666
    54  C   -0.313607
    55  C   -0.154901
    56  C   -0.188424
    57  C   -0.167400
    58  C   -0.025204
    59  C   -0.294782
    60  C   -0.164370
    61  C   -0.175675
    62  C   -0.141718
    63  C   -0.039626
    64  C   -0.302299
    65  C   -0.300981
    66  H    0.075303
    67  H    0.140506
    68  H    0.092654
    69  H    0.143594
    70  H    0.111777
    71  H    0.102025
    72  H    0.089600
    73  H    0.141707
    74  H    0.108735
    75  H    0.126581
    76  H    0.137060
    77  H    0.124470
    78  H    0.145870
    79  H    0.159273
    80  H    0.122166
    81  H    0.096350
    82  H    0.084742
    83  H    0.122031
    84  H    0.123460
    85  H    0.093159
    86  H    0.084197
    87  H    0.131241
    88  H    0.147888
    89  H    0.112228
    90  H    0.160659
    91  H    0.117346
    92  H    0.119685
    93  H    0.070224
    94  H    0.121818
    95  H    0.099822
    96  H    0.122376
    97  H    0.114963
    98  H    0.089882
    99  H    0.107439
   100  H    0.070772
   101  H    0.100338
   102  H    0.085696
   103  H    0.086466
   104  H    0.114056
   105  H    0.090763
   106  H    0.109250
   107  H    0.105213
   108  H    0.096303
   109  H    0.094855
   110  H    0.069889
   111  H    0.072056
   112  H    0.060579
   113  H    0.095575
   114  H    0.032258
   115  H    0.118983
   116  H    0.105197
   117  H    0.058325
   118  H    0.080913
   119  H    0.083208
   120  H    0.091263
   121  H    0.074257
   122  H    0.078412
   123  H    0.051122
   124  H    0.116686
   125  H    0.098490
   126  H    0.103460
   127  H    0.096943
   128  H    0.098394
   129  H    0.087306
   130  H    0.126799
   131  H    0.131049
   132  H    0.135792
   133  O   -0.420911
   134  H    0.079899
 Sum of Mulliken charges =  -0.00000

 Dipole moment (field-independent basis, Debye):
    X=              1.6957    Y=             -4.0049    Z=             -1.6615  Tot=              4.6557
 Quadrupole moment (field-independent basis, Debye-Ang):
   XX=           -364.4565   YY=           -440.2975   ZZ=           -395.4423
   XY=              1.8147   XZ=             14.7903   YZ=            -38.3075

 Normal termination of Gaussian 16 at Thu Oct  3 22:51:34 2019.
