 Gaussian 16, Revision A.03,
 Gaussian 16:  ES64L-G16RevA.03 25-Dec-2016

 ----------------------------------------------------------------------
 # td=(NStates=1) iop(3/107=0140000000,3/108=0140000000) iop(3/107=0140
 000000,3/108=0140000000) CAM-B3LYP/6-31G(d,p)
 ----------------------------------------------------------------------

 --
 TD
 --
 Symbolic Z-matrix:
 Charge =  0 Multiplicity = 1

                         Standard orientation:
 ---------------------------------------------------------------------
 Center     Atomic      Atomic             Coordinates (Angstroms)
 Number     Number       Type             X           Y           Z
 ---------------------------------------------------------------------
      1         12           0       -5.677919    1.180091    0.180823
      2          6           0       -4.911634   -2.152173   -0.464335
      3          6           0       -3.453326    1.134840    2.764772
      4          6           0       -6.353881    4.540167    0.757001
      5          6           0       -7.960765    1.156884   -2.384633
      6          7           0       -4.283578   -0.270957    1.006533
      7          6           0       -4.128597   -1.548579    0.496453
      8          6           0       -3.163817   -2.262782    1.377068
      9          6           0       -2.877026   -1.310848    2.568295
     10          6           0       -3.559999   -0.086365    2.086675
     11          6           0       -3.493113   -1.874388    3.917487
     12          6           0       -1.957598   -2.759838    0.577466
     13          6           0       -0.974970   -3.681147    1.318195
     14          6           0        0.394081   -3.849946    0.545114
     15          8           0        0.541413   -3.495934   -0.532351
     16          8           0        1.225190   -4.639224    1.272387
     17          7           0       -5.043655    2.593957    1.532200
     18          6           0       -4.050416    2.371432    2.536326
     19          6           0       -3.834937    3.523732    3.277553
     20          6           0       -4.594046    4.535498    2.660092
     21          6           0       -5.324043    3.930312    1.555763
     22          6           0       -2.939712    3.702009    4.439629
     23          6           0       -4.655988    5.976444    3.031441
     24          8           0       -4.097214    6.475189    3.978911
     25          7           0       -6.903656    2.639728   -0.669962
     26          6           0       -6.990718    3.988956   -0.440538
     27          6           0       -7.905037    4.673234   -1.267086
     28          6           0       -8.527341    3.557948   -2.152293
     29          6           0       -7.840550    2.336454   -1.704479
     30          6           0       -8.465322    6.008149   -1.155974
     31          6           0       -9.492233    3.831234   -3.185423
     32          6           0       -8.740551    4.116721   -4.488535
     33          7           0       -6.322640   -0.112508   -1.083923
     34          6           0       -7.246965    0.000719   -2.288159
     35          6           0       -7.428797   -1.382220   -2.786108
     36          6           0       -6.692727   -2.115444   -2.075111
     37          6           0       -5.894905   -1.387595   -1.090723
     38          6           0       -8.336637   -1.718796   -3.955698
     39          6           0       -6.170607   -3.517108   -2.049017
     40          8           0       -6.465428   -4.511186   -2.730442
     41          6           0       -5.028209   -3.583896   -0.987265
     42          6           0       -5.321946   -4.604893    0.149674
     43          8           0       -5.758404   -4.310023    1.224748
     44          8           0       -5.192942   -5.892813   -0.234416
     45          6           0       -5.568902   -6.979855    0.625233
     46          6           0        2.376387   -5.075325    0.674032
     47          6           0        3.469104   -4.170482    0.986711
     48          6           0        4.097677   -3.323007    0.201931
     49          6           0        3.832231   -3.076119   -1.321365
     50          6           0        5.201309   -2.470481    0.781092
     51          6           0        6.578149   -2.612973    0.130662
     52          6           0        7.703857   -1.717116    0.605120
     53          6           0        9.048715   -1.922963   -0.025033
     54          6           0        9.627067   -3.350433    0.365259
     55          6           0        9.996416   -0.733867    0.439524
     56          6           0       11.287311   -0.698222   -0.399399
     57          6           0       12.185658    0.396919    0.157856
     58          6           0       13.565024    0.496276   -0.636607
     59          6           0       14.491980   -0.671011   -0.255111
     60          6           0       14.265345    1.856141   -0.177628
     61          6           0       15.329207    2.284170   -1.027402
     62          6           0       16.080102    3.507261   -0.582347
     63          6           0       17.395591    3.878444   -1.382370
     64          6           0       17.010794    4.043595   -2.926265
     65          6           0       18.034877    5.101845   -0.807427
     66          1           0       -2.788874    1.080293    3.665807
     67          1           0       -6.613230    5.548038    1.062539
     68          1           0       -8.760776    1.203151   -3.244068
     69          1           0       -3.452152   -3.322142    1.841270
     70          1           0       -1.827075   -1.045533    2.652471
     71          1           0       -3.077049   -2.867308    4.266558
     72          1           0       -3.295445   -1.258444    4.798200
     73          1           0       -4.539140   -2.149050    3.789346
     74          1           0       -2.113296   -3.325185   -0.350147
     75          1           0       -1.388455   -1.731501    0.289260
     76          1           0       -0.664402   -3.145186    2.217332
     77          1           0       -1.541883   -4.647666    1.404621
     78          1           0       -1.915468    3.373130    4.040068
     79          1           0       -2.838301    4.696665    5.080953
     80          1           0       -3.368764    3.002518    5.339086
     81          1           0       -5.520547    6.571136    2.342860
     82          1           0      -10.201311    3.008697   -3.285824
     83          1           0      -10.197502    4.681803   -2.879060
     84          1           0       -9.378123    4.378535   -5.335585
     85          1           0       -7.857086    5.088779   -4.324726
     86          1           0       -8.248280    3.228365   -4.938749
     87          1           0       -8.406810   -1.222212   -4.938331
     88          1           0       -8.489222   -2.778515   -3.911136
     89          1           0       -9.240873   -1.482044   -3.777542
     90          1           0       -4.222346   -3.700019   -1.559782
     91          1           0        2.591932   -5.999374    0.873801
     92          1           0        2.370383   -4.931208   -0.409196
     93          1           0        3.854898   -4.267964    2.090001
     94          1           0        2.852824   -3.608111   -1.263444
     95          1           0        3.943327   -2.027758   -1.591771
     96          1           0        4.359325   -3.743603   -1.915919
     97          1           0        4.841786   -1.261502    0.706777
     98          1           0        5.149882   -2.865561    1.774894
     99          1           0        6.825729   -3.665652    0.473881
    100          1           0        6.516200   -2.870485   -0.992128
    101          1           0        7.399241   -0.647725    0.251780
    102          1           0        7.678021   -1.505960    1.807076
    103          1           0        8.978226   -1.884268   -1.053291
    104          1           0        8.915012   -3.978595    0.156164
    105          1           0       10.715215   -3.631222   -0.079738
    106          1           0        9.776463   -3.545331    1.353620
    107          1           0        9.450369    0.234126    0.329875
    108          1           0       10.393551   -1.039185    1.474808
    109          1           0       11.677830   -1.697282   -0.550867
    110          1           0       11.152108   -0.494133   -1.494642
    111          1           0       11.492616    1.134130    0.061517
    112          1           0       12.494157    0.019811    1.365143
    113          1           0       13.783789    0.258946   -1.659778
    114          1           0       14.736837   -0.792270    0.830773
    115          1           0       14.046993   -1.733258   -0.433800
    116          1           0       15.411021   -0.666847   -0.644609
    117          1           0       13.602058    2.675276   -0.288272
    118          1           0       14.406989    1.842351    0.939946
    119          1           0       16.204933    1.540798   -1.245507
    120          1           0       14.838239    2.343058   -2.061770
    121          1           0       15.388019    4.400350   -0.876125
    122          1           0       16.310303    3.305386    0.523432
    123          1           0       17.978486    3.077523   -1.342961
    124          1           0       16.074275    4.764331   -3.173185
    125          1           0       17.921910    4.239405   -3.565578
    126          1           0       16.771869    2.919100   -3.267703
    127          1           0       18.187577    5.048205    0.244445
    128          1           0       19.130938    5.198256   -1.346468
    129          1           0       17.592727    6.177569   -1.163775
    130          1           0       -5.323592   -7.931135    0.202404
    131          1           0       -6.801132   -7.030132    0.670697
    132          1           0       -5.083278   -6.856044    1.507147
    133          8           0       -7.986393    6.900733   -0.387395
    134          1           0       -9.295094    6.114048   -1.918984
 ---------------------------------------------------------------------

 SCF Done:  E(RCAM-B3LYP) =  -3043.38650407     A.U. after   15 cycles

 Excitation energies and oscillator strengths:

 Excited State   1:      Singlet-A      2.0741 eV  597.77 nm  f=0.0963  <S**2>=0.000
     243 -> 246       -0.30899
     244 -> 245        0.62500
 This state for optimization and/or second-order correction.
 Total Energy, E(TD-HF/TD-DFT) =  -3043.31028193
 Copying the excited state density for this state as the 1-particle RhoCI density.

 The electronic state is 1-A.
 Alpha  occ. eigenvalues --  -46.80629 -19.22793 -19.22602 -19.18678 -19.18104
 Alpha  occ. eigenvalues --  -19.17961 -19.17253 -19.16045 -14.38904 -14.37210
 Alpha  occ. eigenvalues --  -14.36749 -14.36257 -10.36364 -10.35487 -10.32520
 Alpha  occ. eigenvalues --  -10.30965 -10.29952 -10.28436 -10.28007 -10.27345
 Alpha  occ. eigenvalues --  -10.26932 -10.26596 -10.26437 -10.26340 -10.26303
 Alpha  occ. eigenvalues --  -10.26244 -10.25859 -10.25617 -10.25546 -10.25538
 Alpha  occ. eigenvalues --  -10.25319 -10.24706 -10.24648 -10.24375 -10.24284
 Alpha  occ. eigenvalues --  -10.24277 -10.24234 -10.24194 -10.24067 -10.24013
 Alpha  occ. eigenvalues --  -10.23923 -10.22983 -10.22982 -10.22884 -10.22787
 Alpha  occ. eigenvalues --  -10.22729 -10.22620 -10.22558 -10.22412 -10.22379
 Alpha  occ. eigenvalues --  -10.22213 -10.22187 -10.22029 -10.21761 -10.21636
 Alpha  occ. eigenvalues --  -10.21553 -10.21458 -10.21415 -10.21315 -10.21159
 Alpha  occ. eigenvalues --  -10.20684 -10.20596 -10.20047 -10.19805 -10.19403
 Alpha  occ. eigenvalues --  -10.19241  -3.09338  -1.84265  -1.83798  -1.83773
 Alpha  occ. eigenvalues --   -1.16606  -1.14339  -1.09226  -1.06987  -1.06559
 Alpha  occ. eigenvalues --   -1.05857  -1.02745  -1.01528  -0.98856  -0.98390
 Alpha  occ. eigenvalues --   -0.96979  -0.89042  -0.86685  -0.85781  -0.85640
 Alpha  occ. eigenvalues --   -0.85403  -0.85381  -0.84546  -0.84198  -0.83493
 Alpha  occ. eigenvalues --   -0.82742  -0.82659  -0.81605  -0.80636  -0.79950
 Alpha  occ. eigenvalues --   -0.79084  -0.78418  -0.77823  -0.77168  -0.76974
 Alpha  occ. eigenvalues --   -0.75985  -0.75569  -0.74403  -0.73700  -0.72603
 Alpha  occ. eigenvalues --   -0.72165  -0.71026  -0.70151  -0.70078  -0.69874
 Alpha  occ. eigenvalues --   -0.69270  -0.68818  -0.67699  -0.66913  -0.66273
 Alpha  occ. eigenvalues --   -0.65266  -0.64301  -0.63387  -0.62347  -0.62244
 Alpha  occ. eigenvalues --   -0.61345  -0.61078  -0.60191  -0.59941  -0.59425
 Alpha  occ. eigenvalues --   -0.59080  -0.58878  -0.58050  -0.57702  -0.57541
 Alpha  occ. eigenvalues --   -0.56653  -0.56288  -0.55994  -0.55471  -0.54775
 Alpha  occ. eigenvalues --   -0.54706  -0.53524  -0.53440  -0.52898  -0.52549
 Alpha  occ. eigenvalues --   -0.52148  -0.51942  -0.51318  -0.51284  -0.51102
 Alpha  occ. eigenvalues --   -0.50751  -0.50313  -0.50189  -0.49907  -0.49594
 Alpha  occ. eigenvalues --   -0.49096  -0.48478  -0.48206  -0.47758  -0.47640
 Alpha  occ. eigenvalues --   -0.47466  -0.47373  -0.47158  -0.47089  -0.46974
 Alpha  occ. eigenvalues --   -0.46758  -0.46504  -0.46190  -0.46044  -0.45723
 Alpha  occ. eigenvalues --   -0.45586  -0.45498  -0.45257  -0.45191  -0.44757
 Alpha  occ. eigenvalues --   -0.44615  -0.44218  -0.44180  -0.43442  -0.43419
 Alpha  occ. eigenvalues --   -0.43227  -0.42987  -0.42883  -0.42862  -0.42549
 Alpha  occ. eigenvalues --   -0.42480  -0.42256  -0.42164  -0.42029  -0.41605
 Alpha  occ. eigenvalues --   -0.41535  -0.41403  -0.41253  -0.41226  -0.40859
 Alpha  occ. eigenvalues --   -0.40775  -0.40535  -0.40329  -0.40048  -0.39994
 Alpha  occ. eigenvalues --   -0.39678  -0.39610  -0.39440  -0.39096  -0.39028
 Alpha  occ. eigenvalues --   -0.38942  -0.38610  -0.38327  -0.38243  -0.38037
 Alpha  occ. eigenvalues --   -0.38003  -0.37533  -0.37363  -0.37086  -0.37029
 Alpha  occ. eigenvalues --   -0.36779  -0.36629  -0.36122  -0.35883  -0.35680
 Alpha  occ. eigenvalues --   -0.35476  -0.35212  -0.34942  -0.34705  -0.34609
 Alpha  occ. eigenvalues --   -0.34053  -0.33703  -0.33582  -0.33502  -0.33198
 Alpha  occ. eigenvalues --   -0.32856  -0.32364  -0.32187  -0.31733  -0.31697
 Alpha  occ. eigenvalues --   -0.31331  -0.31224  -0.31197  -0.30804  -0.30054
 Alpha  occ. eigenvalues --   -0.29317  -0.28442  -0.27932  -0.27469  -0.27125
 Alpha  occ. eigenvalues --   -0.27018  -0.26125  -0.23097  -0.21814
 Alpha virt. eigenvalues --   -0.08313  -0.07076  -0.02169  -0.00676   0.00453
 Alpha virt. eigenvalues --    0.02945   0.03288   0.04105   0.04346   0.04585
 Alpha virt. eigenvalues --    0.04920   0.05461   0.07761   0.08429   0.09366

 Mulliken charges:
               1
     1  Mg   0.823804
     2  C    0.068846
     3  C   -0.204422
     4  C   -0.155350
     5  C   -0.166957
     6  N   -0.650051
     7  C    0.330573
     8  C   -0.176672
     9  C   -0.139142
    10  C    0.365872
    11  C   -0.323369
    12  C   -0.174825
    13  C   -0.273526
    14  C    0.581544
    15  O   -0.391452
    16  O   -0.441442
    17  N   -0.695069
    18  C    0.315542
    19  C    0.091769
    20  C   -0.054996
    21  C    0.308921
    22  C   -0.380494
    23  C    0.249378
    24  O   -0.403913
    25  N   -0.668291
    26  C    0.286875
    27  C   -0.023878
    28  C    0.035177
    29  C    0.305188
    30  C    0.239957
    31  C   -0.270848
    32  C   -0.291410
    33  N   -0.771822
    34  C    0.204324
    35  C    0.026759
    36  C    0.042719
    37  C    0.360315
    38  C   -0.383584
    39  C    0.353209
    40  O   -0.459153
    41  C   -0.275031
    42  C    0.614024
    43  O   -0.448600
    44  O   -0.449172
    45  C   -0.074111
    46  C    0.009028
    47  C   -0.149152
    48  C    0.119158
    49  C   -0.362494
    50  C   -0.205133
    51  C   -0.178845
    52  C   -0.159697
    53  C   -0.050240
    54  C   -0.318235
    55  C   -0.169083
    56  C   -0.202373
    57  C   -0.130775
    58  C   -0.069097
    59  C   -0.325738
    60  C   -0.152705
    61  C   -0.173712
    62  C   -0.159030
    63  C   -0.037192
    64  C   -0.308748
    65  C   -0.289483
    66  H    0.078085
    67  H    0.131914
    68  H    0.085807
    69  H    0.105511
    70  H    0.114917
    71  H    0.106519
    72  H    0.116343
    73  H    0.140322
    74  H    0.116602
    75  H    0.082400
    76  H    0.129705
    77  H    0.128548
    78  H    0.119516
    79  H    0.159410
    80  H    0.101392
    81  H    0.051340
    82  H    0.114381
    83  H    0.118544
    84  H    0.112918
    85  H    0.086699
    86  H    0.116031
    87  H    0.134101
    88  H    0.142395
    89  H    0.143260
    90  H    0.169234
    91  H    0.114876
    92  H    0.098919
    93  H    0.068482
    94  H    0.130048
    95  H    0.121341
    96  H    0.128533
    97  H    0.059843
    98  H    0.096821
    99  H    0.088829
   100  H    0.091869
   101  H    0.073680
   102  H    0.077957
   103  H    0.097682
   104  H    0.110396
   105  H    0.076770
   106  H    0.111012
   107  H    0.087367
   108  H    0.091344
   109  H    0.093617
   110  H    0.079966
   111  H    0.105005
   112  H    0.057133
   113  H    0.100182
   114  H    0.083471
   115  H    0.082744
   116  H    0.116048
   117  H    0.095399
   118  H    0.079856
   119  H    0.058754
   120  H    0.087698
   121  H    0.076695
   122  H    0.081607
   123  H    0.100590
   124  H    0.092129
   125  H    0.099687
   126  H    0.083773
   127  H    0.110527
   128  H    0.067521
   129  H    0.087158
   130  H    0.137277
   131  H    0.108255
   132  H    0.135988
   133  O   -0.462104
   134  H    0.065691
 Sum of Mulliken charges =  -0.00000

 Dipole moment (field-independent basis, Debye):
    X=              1.1390    Y=             -8.0958    Z=             -1.5925  Tot=              8.3292
 Quadrupole moment (field-independent basis, Debye-Ang):
   XX=           -378.0608   YY=           -441.0561   ZZ=           -392.0094
   XY=             22.4345   XZ=             25.4343   YZ=            -34.5461

 Normal termination of Gaussian 16 at Sat Oct  5 02:19:24 2019.
