 Gaussian 16, Revision A.03,
 Gaussian 16:  ES64L-G16RevA.03 25-Dec-2016

 ----------------------------------------------------------------------
 # td=(NStates=1) iop(3/107=0140000000,3/108=0140000000) iop(3/107=0140
 000000,3/108=0140000000) CAM-B3LYP/6-31G(d,p)
 ----------------------------------------------------------------------

 --
 TD
 --
 Symbolic Z-matrix:
 Charge =  0 Multiplicity = 1

                         Standard orientation:
 ---------------------------------------------------------------------
 Center     Atomic      Atomic             Coordinates (Angstroms)
 Number     Number       Type             X           Y           Z
 ---------------------------------------------------------------------
      1         12           0       -5.686066    1.274793    0.227989
      2          6           0       -5.089757   -2.150497   -0.373858
      3          6           0       -3.444438    1.130210    2.813373
      4          6           0       -6.126037    4.527018    0.657009
      5          6           0       -8.008461    1.174323   -2.346446
      6          7           0       -4.413433   -0.308173    0.998659
      7          6           0       -4.290141   -1.618586    0.663507
      8          6           0       -3.215954   -2.437659    1.517630
      9          6           0       -2.997152   -1.388349    2.773088
     10          6           0       -3.622758   -0.131011    2.183257
     11          6           0       -3.477657   -1.787969    4.058350
     12          6           0       -1.954706   -2.749072    0.649825
     13          6           0       -0.964185   -3.622555    1.482172
     14          6           0        0.196933   -3.985851    0.562712
     15          8           0        0.362283   -3.263580   -0.436365
     16          8           0        1.040668   -4.789007    1.262461
     17          7           0       -4.996634    2.634433    1.514648
     18          6           0       -4.088164    2.377335    2.483158
     19          6           0       -3.617495    3.688682    3.205016
     20          6           0       -4.382901    4.622904    2.596200
     21          6           0       -5.256349    4.007052    1.560810
     22          6           0       -2.650575    3.707233    4.316286
     23          6           0       -4.448049    6.076673    2.946676
     24          8           0       -3.826458    6.526972    3.859530
     25          7           0       -6.954835    2.685380   -0.647023
     26          6           0       -6.955216    3.961034   -0.357700
     27          6           0       -7.818878    4.627889   -1.247351
     28          6           0       -8.339255    3.651843   -2.120623
     29          6           0       -7.698624    2.488358   -1.707257
     30          6           0       -8.117848    6.046979   -1.248088
     31          6           0       -9.267997    3.747202   -3.245190
     32          6           0       -8.540624    4.154168   -4.623664
     33          7           0       -6.561719   -0.154710   -0.955870
     34          6           0       -7.365908   -0.036647   -1.953745
     35          6           0       -7.589586   -1.261969   -2.765323
     36          6           0       -6.749952   -2.153273   -2.056425
     37          6           0       -6.066766   -1.438226   -1.083871
     38          6           0       -8.642066   -1.540453   -3.773833
     39          6           0       -6.247917   -3.510457   -2.016515
     40          8           0       -6.571945   -4.453874   -2.694655
     41          6           0       -5.082285   -3.537682   -0.859370
     42          6           0       -5.405611   -4.605986    0.122701
     43          8           0       -5.700103   -4.391772    1.284774
     44          8           0       -5.141981   -5.884538   -0.304150
     45          6           0       -5.304424   -6.922426    0.673484
     46          6           0        2.336491   -4.975689    0.440399
     47          6           0        3.381957   -4.060336    0.880548
     48          6           0        3.962246   -3.073108    0.056476
     49          6           0        3.552581   -2.870679   -1.367836
     50          6           0        5.222488   -2.370212    0.554478
     51          6           0        6.511535   -2.735927   -0.174877
     52          6           0        7.641230   -1.911031    0.435754
     53          6           0        9.040683   -2.076401   -0.217151
     54          6           0        9.544157   -3.512105   -0.065790
     55          6           0       10.028257   -0.974405    0.257375
     56          6           0       11.306055   -0.851794   -0.557748
     57          6           0       12.079430    0.288955   -0.079784
     58          6           0       13.677773    0.283538   -0.541259
     59          6           0       14.527163   -0.903032   -0.159960
     60          6           0       14.248094    1.677178   -0.124840
     61          6           0       15.604457    2.079086   -0.805568
     62          6           0       16.108347    3.524402   -0.484441
     63          6           0       17.438911    3.940329   -1.229446
     64          6           0       17.092348    4.057022   -2.703363
     65          6           0       17.748345    5.338374   -0.680281
     66          1           0       -2.958976    1.047351    3.751245
     67          1           0       -6.375288    5.573756    0.678195
     68          1           0       -8.723159    0.898595   -3.002504
     69          1           0       -3.739479   -3.418326    1.808369
     70          1           0       -1.919059   -1.196100    3.006472
     71          1           0       -3.021771   -2.657865    4.315757
     72          1           0       -3.239111   -1.039551    4.767307
     73          1           0       -4.562481   -1.857786    4.098784
     74          1           0       -2.370796   -3.244233   -0.266249
     75          1           0       -1.490029   -1.779379    0.478745
     76          1           0       -0.809792   -3.114846    2.463795
     77          1           0       -1.534714   -4.459553    1.802679
     78          1           0       -1.599617    3.274887    4.161422
     79          1           0       -2.262190    4.697283    4.741800
     80          1           0       -3.123266    3.077873    5.164920
     81          1           0       -5.139546    6.707434    2.339583
     82          1           0       -9.994575    2.832513   -3.483602
     83          1           0      -10.038243    4.664588   -3.054537
     84          1           0       -9.420011    4.419446   -5.454795
     85          1           0       -7.896281    4.993384   -4.442158
     86          1           0       -7.977848    3.229759   -5.007294
     87          1           0       -8.425044   -1.002319   -4.570354
     88          1           0       -8.716128   -2.726391   -3.935731
     89          1           0       -9.784746   -1.167484   -3.326085
     90          1           0       -4.323263   -3.983861   -1.433198
     91          1           0        2.630031   -6.132271    0.771821
     92          1           0        2.257865   -5.285290   -0.366913
     93          1           0        3.802522   -4.390504    1.841816
     94          1           0        2.418885   -3.241970   -1.561064
     95          1           0        3.419286   -1.674300   -1.662039
     96          1           0        4.115691   -3.232117   -2.020851
     97          1           0        4.806526   -1.301672    0.480952
     98          1           0        5.263690   -2.543542    1.611292
     99          1           0        6.669513   -3.791968    0.178060
    100          1           0        6.427161   -2.437914   -1.338881
    101          1           0        7.207363   -0.866992    0.354291
    102          1           0        7.851307   -2.114211    1.573720
    103          1           0        9.066541   -1.750791   -1.247482
    104          1           0        8.823595   -4.413426   -0.351010
    105          1           0       10.425558   -3.831734   -0.568509
    106          1           0        9.617313   -3.634760    1.040625
    107          1           0        9.561074   -0.098682    0.198746
    108          1           0        9.756801   -1.171306    1.514158
    109          1           0       11.779428   -1.905519   -0.395295
    110          1           0       11.030727   -0.524742   -1.663447
    111          1           0       11.791512    1.325120   -0.309107
    112          1           0       12.010489    0.271611    1.005595
    113          1           0       13.686490    0.488683   -1.640570
    114          1           0       14.445078   -1.200175    0.991004
    115          1           0       14.097193   -1.829637   -0.549986
    116          1           0       15.496632   -0.736847   -0.379269
    117          1           0       13.342669    2.289990   -0.349808
    118          1           0       14.289923    1.412596    0.948228
    119          1           0       16.323845    1.184272   -0.668833
    120          1           0       15.453466    2.069090   -1.962017
    121          1           0       15.373149    4.177709   -0.833501
    122          1           0       16.134100    3.541947    0.630123
    123          1           0       18.396908    3.237100   -1.111240
    124          1           0       16.255919    4.801594   -2.895656
    125          1           0       17.956645    4.484859   -3.218586
    126          1           0       16.970560    3.025190   -3.141334
    127          1           0       18.067334    5.220440    0.407080
    128          1           0       18.646075    5.562030   -1.041415
    129          1           0       17.101457    6.172502   -0.864262
    130          1           0       -4.813605   -7.822009    0.093645
    131          1           0       -6.369894   -7.147939    1.039401
    132          1           0       -4.883401   -6.758058    1.653435
    133          8           0       -7.668528    6.903440   -0.519146
    134          1           0       -9.020854    6.420939   -2.035923
 ---------------------------------------------------------------------

 SCF Done:  E(RCAM-B3LYP) =  -3043.40248529     A.U. after   16 cycles

 Excitation energies and oscillator strengths:

 Excited State   1:      Singlet-A      2.1015 eV  589.99 nm  f=0.1190  <S**2>=0.000
     243 -> 246        0.31647
     244 -> 245        0.62125
 This state for optimization and/or second-order correction.
 Total Energy, E(TD-HF/TD-DFT) =  -3043.32525834
 Copying the excited state density for this state as the 1-particle RhoCI density.

 The electronic state is 1-A.
 Alpha  occ. eigenvalues --  -46.82224 -19.23651 -19.22669 -19.17876 -19.17483
 Alpha  occ. eigenvalues --  -19.17323 -19.16946 -19.16699 -14.39156 -14.37794
 Alpha  occ. eigenvalues --  -14.36346 -14.36018 -10.35603 -10.34934 -10.31561
 Alpha  occ. eigenvalues --  -10.30487 -10.30333 -10.28175 -10.28147 -10.28095
 Alpha  occ. eigenvalues --  -10.27840 -10.27163 -10.26554 -10.25742 -10.25651
 Alpha  occ. eigenvalues --  -10.25599 -10.25545 -10.25265 -10.25153 -10.24863
 Alpha  occ. eigenvalues --  -10.24756 -10.24727 -10.24707 -10.24522 -10.24363
 Alpha  occ. eigenvalues --  -10.23954 -10.23888 -10.23639 -10.23545 -10.23459
 Alpha  occ. eigenvalues --  -10.23275 -10.23036 -10.23004 -10.22868 -10.22838
 Alpha  occ. eigenvalues --  -10.22826 -10.22822 -10.22767 -10.22497 -10.22466
 Alpha  occ. eigenvalues --  -10.22231 -10.22180 -10.22043 -10.21970 -10.21647
 Alpha  occ. eigenvalues --  -10.21592 -10.21560 -10.21307 -10.21295 -10.20836
 Alpha  occ. eigenvalues --  -10.20686 -10.20570 -10.20505 -10.20435 -10.20151
 Alpha  occ. eigenvalues --  -10.18956  -3.10722  -1.85665  -1.85171  -1.85151
 Alpha  occ. eigenvalues --   -1.13050  -1.11756  -1.08288  -1.07800  -1.06690
 Alpha  occ. eigenvalues --   -1.04337  -1.04243  -1.02561  -1.01594  -0.99384
 Alpha  occ. eigenvalues --   -0.97866  -0.89280  -0.86360  -0.85695  -0.85328
 Alpha  occ. eigenvalues --   -0.84846  -0.84104  -0.83852  -0.83688  -0.83406
 Alpha  occ. eigenvalues --   -0.83208  -0.82924  -0.81705  -0.80988  -0.79795
 Alpha  occ. eigenvalues --   -0.79149  -0.78007  -0.76863  -0.76747  -0.76418
 Alpha  occ. eigenvalues --   -0.75633  -0.74995  -0.74220  -0.72867  -0.72317
 Alpha  occ. eigenvalues --   -0.71653  -0.71474  -0.71198  -0.70110  -0.69457
 Alpha  occ. eigenvalues --   -0.68858  -0.68239  -0.67222  -0.66288  -0.65603
 Alpha  occ. eigenvalues --   -0.65066  -0.64776  -0.64056  -0.62278  -0.61884
 Alpha  occ. eigenvalues --   -0.61422  -0.61221  -0.60055  -0.59671  -0.58936
 Alpha  occ. eigenvalues --   -0.58587  -0.57988  -0.57693  -0.57253  -0.56964
 Alpha  occ. eigenvalues --   -0.56400  -0.56081  -0.55519  -0.55258  -0.54917
 Alpha  occ. eigenvalues --   -0.53724  -0.53415  -0.52739  -0.52410  -0.52250
 Alpha  occ. eigenvalues --   -0.51598  -0.51287  -0.50706  -0.50609  -0.50477
 Alpha  occ. eigenvalues --   -0.49942  -0.49722  -0.49368  -0.49358  -0.49194
 Alpha  occ. eigenvalues --   -0.48998  -0.48768  -0.48564  -0.48298  -0.47946
 Alpha  occ. eigenvalues --   -0.47505  -0.47371  -0.47191  -0.47065  -0.46739
 Alpha  occ. eigenvalues --   -0.46654  -0.46435  -0.46335  -0.46048  -0.45753
 Alpha  occ. eigenvalues --   -0.45657  -0.45477  -0.45119  -0.45027  -0.44945
 Alpha  occ. eigenvalues --   -0.44521  -0.44392  -0.44152  -0.43947  -0.43732
 Alpha  occ. eigenvalues --   -0.43529  -0.43378  -0.43340  -0.43134  -0.43081
 Alpha  occ. eigenvalues --   -0.42646  -0.42433  -0.42354  -0.42077  -0.41876
 Alpha  occ. eigenvalues --   -0.41503  -0.41345  -0.41136  -0.40992  -0.40955
 Alpha  occ. eigenvalues --   -0.40865  -0.40692  -0.40249  -0.40140  -0.39980
 Alpha  occ. eigenvalues --   -0.39873  -0.39600  -0.39281  -0.39181  -0.39052
 Alpha  occ. eigenvalues --   -0.38881  -0.38682  -0.38503  -0.38448  -0.38312
 Alpha  occ. eigenvalues --   -0.38151  -0.37505  -0.37379  -0.37072  -0.36777
 Alpha  occ. eigenvalues --   -0.36763  -0.36474  -0.36350  -0.36264  -0.36057
 Alpha  occ. eigenvalues --   -0.35618  -0.35447  -0.35123  -0.34979  -0.34836
 Alpha  occ. eigenvalues --   -0.34639  -0.34406  -0.33897  -0.33739  -0.33363
 Alpha  occ. eigenvalues --   -0.33065  -0.32765  -0.32086  -0.31829  -0.31349
 Alpha  occ. eigenvalues --   -0.30749  -0.30574  -0.30316  -0.29877  -0.29158
 Alpha  occ. eigenvalues --   -0.28961  -0.28225  -0.27854  -0.27732  -0.27590
 Alpha  occ. eigenvalues --   -0.27043  -0.27013  -0.22741  -0.21328
 Alpha virt. eigenvalues --   -0.07662  -0.06662  -0.01603  -0.00178   0.00633
 Alpha virt. eigenvalues --    0.01045   0.01982   0.02857   0.03184   0.04465
 Alpha virt. eigenvalues --    0.05025   0.06025   0.08169   0.08513   0.08644

 Mulliken charges:
               1
     1  Mg   0.840540
     2  C    0.066835
     3  C   -0.190793
     4  C   -0.203659
     5  C   -0.108485
     6  N   -0.628124
     7  C    0.320340
     8  C   -0.171101
     9  C   -0.149408
    10  C    0.323097
    11  C   -0.293748
    12  C   -0.145170
    13  C   -0.279920
    14  C    0.621851
    15  O   -0.457283
    16  O   -0.460650
    17  N   -0.707609
    18  C    0.297381
    19  C    0.082831
    20  C   -0.031798
    21  C    0.329497
    22  C   -0.402647
    23  C    0.255798
    24  O   -0.395058
    25  N   -0.681794
    26  C    0.312406
    27  C   -0.034326
    28  C    0.086786
    29  C    0.261802
    30  C    0.229176
    31  C   -0.272876
    32  C   -0.290958
    33  N   -0.695284
    34  C    0.272392
    35  C    0.011155
    36  C    0.050239
    37  C    0.263425
    38  C   -0.359316
    39  C    0.324308
    40  O   -0.440550
    41  C   -0.359658
    42  C    0.631253
    43  O   -0.474175
    44  O   -0.450020
    45  C   -0.087559
    46  C    0.031473
    47  C   -0.127093
    48  C    0.122981
    49  C   -0.371461
    50  C   -0.225548
    51  C   -0.156554
    52  C   -0.169201
    53  C   -0.059323
    54  C   -0.311322
    55  C   -0.156762
    56  C   -0.174995
    57  C   -0.187224
    58  C   -0.071302
    59  C   -0.307035
    60  C   -0.171315
    61  C   -0.192108
    62  C   -0.140120
    63  C   -0.065859
    64  C   -0.302144
    65  C   -0.305770
    66  H    0.077259
    67  H    0.117652
    68  H    0.067982
    69  H    0.123839
    70  H    0.106133
    71  H    0.119857
    72  H    0.108780
    73  H    0.123725
    74  H    0.109897
    75  H    0.123891
    76  H    0.131657
    77  H    0.124763
    78  H    0.121904
    79  H    0.155326
    80  H    0.124636
    81  H    0.086307
    82  H    0.099991
    83  H    0.095770
    84  H    0.084032
    85  H    0.127027
    86  H    0.106065
    87  H    0.147829
    88  H    0.145827
    89  H    0.101733
    90  H    0.166404
    91  H    0.069876
    92  H    0.114363
    93  H    0.094831
    94  H    0.136091
    95  H    0.081112
    96  H    0.137918
    97  H    0.094771
    98  H    0.106266
    99  H    0.106851
   100  H    0.095302
   101  H    0.088950
   102  H    0.075466
   103  H    0.078735
   104  H    0.084308
   105  H    0.112650
   106  H    0.094956
   107  H    0.107915
   108  H    0.034815
   109  H    0.100744
   110  H    0.092723
   111  H    0.092162
   112  H    0.099078
   113  H    0.074814
   114  H    0.076523
   115  H    0.105612
   116  H    0.115558
   117  H    0.078175
   118  H    0.090221
   119  H    0.081381
   120  H    0.074880
   121  H    0.100572
   122  H    0.088061
   123  H    0.072803
   124  H    0.096953
   125  H    0.096770
   126  H    0.102349
   127  H    0.088528
   128  H    0.107400
   129  H    0.107294
   130  H    0.116388
   131  H    0.120596
   132  H    0.132265
   133  O   -0.417471
   134  H    0.023698
 Sum of Mulliken charges =  -0.00000

 Dipole moment (field-independent basis, Debye):
    X=              4.6508    Y=             -5.1615    Z=             -0.5537  Tot=              6.9698
 Quadrupole moment (field-independent basis, Debye-Ang):
   XX=           -382.0562   YY=           -438.5407   ZZ=           -392.3721
   XY=             17.4790   XZ=              6.8643   YZ=            -27.9541

 Normal termination of Gaussian 16 at Tue Oct  8 03:17:18 2019.
