 Gaussian 16, Revision A.03,
 Gaussian 16:  ES64L-G16RevA.03 25-Dec-2016

 ----------------------------------------------------------------------
 # td=(NStates=1) iop(3/107=0140000000,3/108=0140000000) iop(3/107=0140
 000000,3/108=0140000000) CAM-B3LYP/6-31G(d,p)
 ----------------------------------------------------------------------

 --
 TD
 --
 Symbolic Z-matrix:
 Charge =  0 Multiplicity = 1

                         Standard orientation:
 ---------------------------------------------------------------------
 Center     Atomic      Atomic             Coordinates (Angstroms)
 Number     Number       Type             X           Y           Z
 ---------------------------------------------------------------------
      1         12           0       -5.738901    1.193283    0.138808
      2          6           0       -5.028637   -2.188262   -0.404891
      3          6           0       -3.415535    1.125242    2.772015
      4          6           0       -6.324382    4.619023    0.713107
      5          6           0       -7.909466    1.221631   -2.399950
      6          7           0       -4.291557   -0.318673    1.027493
      7          6           0       -4.221245   -1.604274    0.686432
      8          6           0       -3.140658   -2.370931    1.510053
      9          6           0       -2.752236   -1.326093    2.658540
     10          6           0       -3.548437   -0.119875    2.229725
     11          6           0       -3.294471   -1.810622    3.955453
     12          6           0       -1.890271   -2.766853    0.637009
     13          6           0       -0.933971   -3.578858    1.493645
     14          6           0        0.338090   -3.989309    0.732693
     15          8           0        0.447259   -3.774486   -0.475059
     16          8           0        1.128756   -4.795612    1.519673
     17          7           0       -5.050164    2.660180    1.562981
     18          6           0       -4.052936    2.382809    2.473282
     19          6           0       -3.783545    3.592179    3.269215
     20          6           0       -4.574406    4.592759    2.704306
     21          6           0       -5.412722    3.966497    1.558407
     22          6           0       -2.896377    3.793415    4.363523
     23          6           0       -4.792043    6.007124    3.026751
     24          8           0       -4.229660    6.577954    3.943584
     25          7           0       -6.881856    2.678473   -0.749207
     26          6           0       -6.943643    3.988247   -0.366660
     27          6           0       -8.066369    4.583198   -1.209670
     28          6           0       -8.479217    3.637237   -2.119027
     29          6           0       -7.761418    2.442059   -1.655220
     30          6           0       -8.356825    6.043540   -1.196257
     31          6           0       -9.530800    3.932971   -3.227431
     32          6           0       -8.912592    4.063010   -4.662624
     33          7           0       -6.376678   -0.095997   -1.222028
     34          6           0       -7.287313   -0.051796   -2.188411
     35          6           0       -7.495069   -1.320411   -2.768508
     36          6           0       -6.707868   -2.143159   -2.054737
     37          6           0       -5.962850   -1.402583   -1.070634
     38          6           0       -8.436375   -1.636046   -3.906597
     39          6           0       -6.149583   -3.540992   -2.020753
     40          8           0       -6.598470   -4.588288   -2.536106
     41          6           0       -5.055217   -3.530488   -1.013631
     42          6           0       -5.209142   -4.725334    0.109706
     43          8           0       -5.781447   -4.484324    1.173060
     44          8           0       -4.823337   -5.894579   -0.356087
     45          6           0       -5.159328   -7.004720    0.547967
     46          6           0        2.349153   -5.069085    0.711505
     47          6           0        3.379886   -4.104143    0.988034
     48          6           0        3.989170   -3.162136    0.197636
     49          6           0        3.597243   -3.241684   -1.298574
     50          6           0        5.097644   -2.302826    0.612065
     51          6           0        6.519738   -2.708857    0.033724
     52          6           0        7.545759   -1.789593    0.516908
     53          6           0        8.969798   -1.921386   -0.132292
     54          6           0        9.572366   -3.294267    0.016325
     55          6           0        9.943009   -0.882676    0.328866
     56          6           0       11.363097   -0.829149   -0.378279
     57          6           0       12.215993    0.313870    0.062409
     58          6           0       13.587642    0.505408   -0.687882
     59          6           0       14.402150   -0.714864   -0.363173
     60          6           0       14.415828    1.732820   -0.335538
     61          6           0       15.602389    2.155315   -1.020248
     62          6           0       16.103788    3.545301   -0.634677
     63          6           0       17.327330    4.005921   -1.224201
     64          6           0       17.355619    4.181715   -2.775258
     65          6           0       17.866340    5.333806   -0.539568
     66          1           0       -2.905184    1.155719    3.652722
     67          1           0       -6.465774    5.785238    0.667926
     68          1           0       -8.754555    0.981036   -3.121518
     69          1           0       -3.442621   -3.464714    1.794673
     70          1           0       -1.781336   -1.110403    2.969362
     71          1           0       -2.906131   -2.711975    4.283391
     72          1           0       -3.051516   -1.054899    4.767378
     73          1           0       -4.466303   -1.802778    3.985929
     74          1           0       -2.201583   -3.376201   -0.205134
     75          1           0       -1.390765   -1.767049    0.297161
     76          1           0       -0.608122   -3.029343    2.355095
     77          1           0       -1.354465   -4.560584    1.991139
     78          1           0       -1.964305    3.364939    4.017410
     79          1           0       -3.018989    4.718990    5.004577
     80          1           0       -3.072146    2.804843    5.204471
     81          1           0       -5.558945    6.506026    2.462757
     82          1           0      -10.103849    2.983412   -3.290400
     83          1           0      -10.189547    4.666098   -2.870378
     84          1           0       -9.775801    4.110513   -5.369888
     85          1           0       -8.342289    5.118276   -4.725471
     86          1           0       -8.278464    3.244489   -5.081491
     87          1           0       -8.323087   -0.901766   -4.928011
     88          1           0       -8.217975   -2.708313   -4.365666
     89          1           0       -9.466613   -1.450063   -3.780671
     90          1           0       -4.084061   -3.570290   -1.525195
     91          1           0        2.622252   -6.084127    1.026485
     92          1           0        2.154952   -5.066191   -0.241723
     93          1           0        3.473056   -4.095169    2.152035
     94          1           0        2.663331   -3.582906   -1.510842
     95          1           0        3.707837   -2.053104   -1.610161
     96          1           0        4.458935   -3.869156   -1.865979
     97          1           0        4.876612   -1.285569    0.090173
     98          1           0        5.150253   -1.976335    1.749699
     99          1           0        6.742538   -3.686844    0.403387
    100          1           0        6.533000   -2.661194   -1.015183
    101          1           0        7.240899   -0.721575    0.326203
    102          1           0        7.468717   -2.011774    1.555623
    103          1           0        8.872933   -1.646315   -1.313029
    104          1           0        8.790563   -4.020632   -0.182089
    105          1           0       10.324276   -3.523840   -0.734265
    106          1           0        9.949987   -3.563120    0.994515
    107          1           0        9.457605   -0.039184    0.247310
    108          1           0        9.983094   -0.983354    1.477168
    109          1           0       12.166987   -1.719412   -0.064820
    110          1           0       11.310936   -0.711232   -1.381394
    111          1           0       11.598953    1.334456   -0.122811
    112          1           0       12.411915    0.199813    1.170187
    113          1           0       13.346032    0.582486   -1.659533
    114          1           0       14.422357   -1.050052    0.704378
    115          1           0       14.039641   -1.674328   -1.003917
    116          1           0       15.580327   -0.598545   -0.712553
    117          1           0       13.556678    2.614210   -0.598574
    118          1           0       14.598784    1.782972    0.748390
    119          1           0       16.298851    1.279681   -0.670891
    120          1           0       15.398744    1.961446   -2.216275
    121          1           0       15.230404    4.234834   -0.751406
    122          1           0       16.450925    3.484851    0.293015
    123          1           0       18.156576    3.156774   -0.964059
    124          1           0       16.735020    5.146581   -3.048655
    125          1           0       18.488877    4.315212   -3.183681
    126          1           0       16.836280    3.438855   -3.419138
    127          1           0       18.131834    5.062516    0.482900
    128          1           0       18.629415    5.775294   -1.150515
    129          1           0       17.103067    6.197771   -0.507669
    130          1           0       -4.759832   -7.987541   -0.000074
    131          1           0       -6.325451   -7.065584    0.715292
    132          1           0       -4.612188   -6.854557    1.541061
    133          8           0       -7.845693    6.845954   -0.474142
    134          1           0       -9.194749    6.349494   -1.826157
 ---------------------------------------------------------------------

 SCF Done:  E(RCAM-B3LYP) =  -3043.47662776     A.U. after   16 cycles

 Excitation energies and oscillator strengths:

 Excited State   1:      Singlet-A      1.9727 eV  628.51 nm  f=0.2230  <S**2>=0.000
     243 -> 246       -0.24418
     244 -> 245        0.65739
 This state for optimization and/or second-order correction.
 Total Energy, E(TD-HF/TD-DFT) =  -3043.40413372
 Copying the excited state density for this state as the 1-particle RhoCI density.

 The electronic state is 1-A.
 Alpha  occ. eigenvalues --  -46.82901 -19.24990 -19.23309 -19.18164 -19.18154
 Alpha  occ. eigenvalues --  -19.17649 -19.17143 -19.15490 -14.39588 -14.37181
 Alpha  occ. eigenvalues --  -14.37007 -14.36180 -10.36622 -10.35800 -10.31654
 Alpha  occ. eigenvalues --  -10.30677 -10.30341 -10.28732 -10.28512 -10.27306
 Alpha  occ. eigenvalues --  -10.26901 -10.26705 -10.26229 -10.26109 -10.25938
 Alpha  occ. eigenvalues --  -10.25691 -10.25674 -10.25640 -10.25565 -10.24646
 Alpha  occ. eigenvalues --  -10.24583 -10.24575 -10.24537 -10.24461 -10.24390
 Alpha  occ. eigenvalues --  -10.24312 -10.24289 -10.24129 -10.24096 -10.23911
 Alpha  occ. eigenvalues --  -10.23854 -10.23797 -10.23776 -10.23379 -10.22860
 Alpha  occ. eigenvalues --  -10.22827 -10.22747 -10.22725 -10.22517 -10.22409
 Alpha  occ. eigenvalues --  -10.22372 -10.22227 -10.22200 -10.22123 -10.21878
 Alpha  occ. eigenvalues --  -10.21857 -10.21776 -10.21691 -10.21325 -10.21140
 Alpha  occ. eigenvalues --  -10.21020 -10.20958 -10.20818 -10.20330 -10.19833
 Alpha  occ. eigenvalues --  -10.19452  -3.11203  -1.86154  -1.85686  -1.85579
 Alpha  occ. eigenvalues --   -1.15096  -1.12776  -1.08637  -1.05435  -1.05268
 Alpha  occ. eigenvalues --   -1.05229  -1.04862  -1.01655  -1.00769  -0.99350
 Alpha  occ. eigenvalues --   -0.98115  -0.89533  -0.86809  -0.86453  -0.86133
 Alpha  occ. eigenvalues --   -0.85219  -0.84901  -0.84278  -0.84115  -0.83711
 Alpha  occ. eigenvalues --   -0.83072  -0.82589  -0.81769  -0.80995  -0.79555
 Alpha  occ. eigenvalues --   -0.79199  -0.78073  -0.77591  -0.76898  -0.76313
 Alpha  occ. eigenvalues --   -0.75479  -0.74275  -0.73864  -0.73238  -0.71712
 Alpha  occ. eigenvalues --   -0.71536  -0.71049  -0.70227  -0.69864  -0.69354
 Alpha  occ. eigenvalues --   -0.69072  -0.68243  -0.67206  -0.66590  -0.66224
 Alpha  occ. eigenvalues --   -0.65577  -0.65109  -0.63940  -0.62912  -0.62060
 Alpha  occ. eigenvalues --   -0.61521  -0.61130  -0.59888  -0.59687  -0.59553
 Alpha  occ. eigenvalues --   -0.58769  -0.58085  -0.57842  -0.57237  -0.57061
 Alpha  occ. eigenvalues --   -0.56585  -0.56050  -0.55793  -0.55002  -0.54590
 Alpha  occ. eigenvalues --   -0.54154  -0.53596  -0.53155  -0.52554  -0.52273
 Alpha  occ. eigenvalues --   -0.51991  -0.51756  -0.51550  -0.51345  -0.51135
 Alpha  occ. eigenvalues --   -0.51118  -0.49961  -0.49807  -0.49433  -0.49290
 Alpha  occ. eigenvalues --   -0.48913  -0.48331  -0.48300  -0.48041  -0.47870
 Alpha  occ. eigenvalues --   -0.47671  -0.47520  -0.47373  -0.47249  -0.47067
 Alpha  occ. eigenvalues --   -0.46686  -0.46396  -0.46190  -0.46100  -0.45874
 Alpha  occ. eigenvalues --   -0.45736  -0.45554  -0.45220  -0.45085  -0.44641
 Alpha  occ. eigenvalues --   -0.44514  -0.44223  -0.43947  -0.43851  -0.43630
 Alpha  occ. eigenvalues --   -0.43396  -0.43296  -0.43233  -0.43016  -0.42899
 Alpha  occ. eigenvalues --   -0.42736  -0.42392  -0.42347  -0.42114  -0.42073
 Alpha  occ. eigenvalues --   -0.41854  -0.41361  -0.41213  -0.40799  -0.40604
 Alpha  occ. eigenvalues --   -0.40405  -0.40279  -0.40169  -0.40063  -0.39944
 Alpha  occ. eigenvalues --   -0.39711  -0.39631  -0.39326  -0.39187  -0.39045
 Alpha  occ. eigenvalues --   -0.39025  -0.38867  -0.38727  -0.38422  -0.38406
 Alpha  occ. eigenvalues --   -0.38121  -0.38095  -0.38087  -0.37673  -0.37231
 Alpha  occ. eigenvalues --   -0.37040  -0.36806  -0.36452  -0.36168  -0.35659
 Alpha  occ. eigenvalues --   -0.35317  -0.35146  -0.35030  -0.34815  -0.34697
 Alpha  occ. eigenvalues --   -0.34558  -0.34062  -0.33985  -0.33716  -0.33710
 Alpha  occ. eigenvalues --   -0.33209  -0.33042  -0.32719  -0.32146  -0.31644
 Alpha  occ. eigenvalues --   -0.31535  -0.31056  -0.30644  -0.30321  -0.29766
 Alpha  occ. eigenvalues --   -0.28926  -0.28585  -0.28169  -0.27877  -0.26955
 Alpha  occ. eigenvalues --   -0.26705  -0.26358  -0.22662  -0.20833
 Alpha virt. eigenvalues --   -0.08237  -0.05978  -0.01849  -0.00138   0.00318
 Alpha virt. eigenvalues --    0.02159   0.02439   0.02774   0.03200   0.03822
 Alpha virt. eigenvalues --    0.04782   0.05807   0.07941   0.08669   0.09281

 Mulliken charges:
               1
     1  Mg   0.846904
     2  C    0.064485
     3  C   -0.165890
     4  C   -0.168887
     5  C   -0.170184
     6  N   -0.629205
     7  C    0.352616
     8  C   -0.157049
     9  C   -0.134001
    10  C    0.319254
    11  C   -0.308470
    12  C   -0.161361
    13  C   -0.272578
    14  C    0.619675
    15  O   -0.468283
    16  O   -0.473416
    17  N   -0.706713
    18  C    0.303159
    19  C    0.088739
    20  C   -0.057718
    21  C    0.305320
    22  C   -0.389325
    23  C    0.244311
    24  O   -0.435722
    25  N   -0.676337
    26  C    0.268609
    27  C   -0.081767
    28  C    0.048765
    29  C    0.312187
    30  C    0.260117
    31  C   -0.237095
    32  C   -0.309050
    33  N   -0.768007
    34  C    0.274473
    35  C    0.059674
    36  C   -0.009264
    37  C    0.304780
    38  C   -0.392208
    39  C    0.380929
    40  O   -0.472226
    41  C   -0.314142
    42  C    0.614891
    43  O   -0.470357
    44  O   -0.411129
    45  C   -0.097369
    46  C   -0.006972
    47  C   -0.113464
    48  C    0.124172
    49  C   -0.350527
    50  C   -0.238022
    51  C   -0.168801
    52  C   -0.169376
    53  C   -0.058376
    54  C   -0.313680
    55  C   -0.145826
    56  C   -0.155952
    57  C   -0.174962
    58  C   -0.025312
    59  C   -0.312730
    60  C   -0.143287
    61  C   -0.158809
    62  C   -0.112396
    63  C   -0.054110
    64  C   -0.305240
    65  C   -0.315641
    66  H    0.063166
    67  H    0.161271
    68  H    0.077244
    69  H    0.109900
    70  H    0.121845
    71  H    0.117738
    72  H    0.093587
    73  H    0.114300
    74  H    0.119251
    75  H    0.110552
    76  H    0.134327
    77  H    0.123065
    78  H    0.138558
    79  H    0.170278
    80  H    0.062674
    81  H    0.078730
    82  H    0.113094
    83  H    0.125587
    84  H    0.110546
    85  H    0.098617
    86  H    0.125886
    87  H    0.085125
    88  H    0.139845
    89  H    0.144851
    90  H    0.164777
    91  H    0.114891
    92  H    0.133531
    93  H    0.063236
    94  H    0.157371
    95  H    0.079079
    96  H    0.102164
    97  H    0.087814
    98  H    0.094738
    99  H    0.111994
   100  H    0.104765
   101  H    0.082292
   102  H    0.094533
   103  H    0.051467
   104  H    0.091901
   105  H    0.109577
   106  H    0.103467
   107  H    0.096653
   108  H    0.072280
   109  H    0.074259
   110  H    0.100603
   111  H    0.054285
   112  H    0.083818
   113  H    0.093158
   114  H    0.108778
   115  H    0.084093
   116  H    0.072049
   117  H    0.030985
   118  H    0.084622
   119  H    0.073584
   120  H    0.061712
   121  H    0.089302
   122  H    0.103187
   123  H    0.061565
   124  H    0.080556
   125  H    0.082876
   126  H    0.104390
   127  H    0.105504
   128  H    0.111366
   129  H    0.091041
   130  H    0.126307
   131  H    0.145615
   132  H    0.134511
   133  O   -0.404524
   134  H    0.057968
 Sum of Mulliken charges =  -0.00000

 Dipole moment (field-independent basis, Debye):
    X=              2.2031    Y=             -5.8131    Z=             -1.1664  Tot=              6.3250
 Quadrupole moment (field-independent basis, Debye-Ang):
   XX=           -378.7269   YY=           -436.7528   ZZ=           -398.7042
   XY=              8.5722   XZ=             28.9323   YZ=            -39.3429

 Normal termination of Gaussian 16 at Tue Oct  8 15:10:34 2019.
