 Gaussian 16, Revision A.03,
 Gaussian 16:  ES64L-G16RevA.03 25-Dec-2016

 ----------------------------------------------------------------------
 # td=(NStates=1) iop(3/107=0140000000,3/108=0140000000) iop(3/107=0140
 000000,3/108=0140000000) CAM-B3LYP/6-31G(d,p)
 ----------------------------------------------------------------------

 --
 TD
 --
 Symbolic Z-matrix:
 Charge =  0 Multiplicity = 1

                         Standard orientation:
 ---------------------------------------------------------------------
 Center     Atomic      Atomic             Coordinates (Angstroms)
 Number     Number       Type             X           Y           Z
 ---------------------------------------------------------------------
      1         12           0       -5.590031    1.246079    0.194532
      2          6           0       -5.040787   -2.077844   -0.331834
      3          6           0       -3.437911    1.139583    2.824214
      4          6           0       -6.143913    4.605464    0.719359
      5          6           0       -7.968843    1.178579   -2.379642
      6          7           0       -4.357786   -0.323452    1.118667
      7          6           0       -4.234324   -1.668196    0.622597
      8          6           0       -3.289600   -2.360665    1.572325
      9          6           0       -3.045870   -1.404773    2.634097
     10          6           0       -3.644502   -0.112408    2.161405
     11          6           0       -3.557295   -1.778386    4.056264
     12          6           0       -1.989343   -2.765761    0.818978
     13          6           0       -0.882333   -3.492808    1.530277
     14          6           0        0.338390   -3.865725    0.657135
     15          8           0        0.495036   -3.371598   -0.499554
     16          8           0        1.010716   -4.747706    1.192342
     17          7           0       -4.997173    2.565411    1.496194
     18          6           0       -4.038847    2.385100    2.532806
     19          6           0       -3.710171    3.563131    3.146265
     20          6           0       -4.444997    4.568284    2.560541
     21          6           0       -5.240693    3.913553    1.506549
     22          6           0       -2.713096    3.712507    4.326839
     23          6           0       -4.498821    5.963045    2.938856
     24          8           0       -3.801023    6.586573    3.699737
     25          7           0       -6.807257    2.587583   -0.762079
     26          6           0       -6.854642    3.924311   -0.386584
     27          6           0       -7.763936    4.662300   -1.278957
     28          6           0       -8.362812    3.628932   -2.036477
     29          6           0       -7.717282    2.410160   -1.750497
     30          6           0       -8.269652    6.032842   -1.154250
     31          6           0       -9.447866    3.801016   -3.065193
     32          6           0       -8.801597    4.068622   -4.498787
     33          7           0       -6.360985   -0.097927   -1.108953
     34          6           0       -7.301179    0.002415   -2.065763
     35          6           0       -7.542099   -1.319070   -2.747140
     36          6           0       -6.691963   -2.097988   -2.064034
     37          6           0       -5.973886   -1.342918   -1.086857
     38          6           0       -8.509182   -1.618927   -3.727220
     39          6           0       -6.287414   -3.573570   -2.031041
     40          8           0       -6.687048   -4.552056   -2.670604
     41          6           0       -5.147155   -3.604532   -0.888844
     42          6           0       -5.305855   -4.549332    0.196966
     43          8           0       -5.651521   -4.320793    1.334845
     44          8           0       -5.098459   -5.802589   -0.376097
     45          6           0       -5.426389   -6.975543    0.475063
     46          6           0        2.307269   -4.966777    0.544949
     47          6           0        3.378601   -4.025475    0.882885
     48          6           0        4.016750   -3.145599    0.151434
     49          6           0        3.702517   -3.061821   -1.351902
     50          6           0        5.186904   -2.400900    0.659908
     51          6           0        6.578786   -2.793904    0.055327
     52          6           0        7.701692   -1.890353    0.471883
     53          6           0        8.977977   -2.020893   -0.165052
     54          6           0        9.615883   -3.367734   -0.098866
     55          6           0        9.933693   -0.965510    0.330907
     56          6           0       11.357240   -0.894852   -0.323693
     57          6           0       12.194794    0.189814    0.139063
     58          6           0       13.620261    0.416644   -0.512708
     59          6           0       14.463142   -0.887572   -0.282354
     60          6           0       14.198301    1.807477   -0.156019
     61          6           0       15.477818    2.096832   -0.988699
     62          6           0       15.907292    3.503389   -0.653512
     63          6           0       17.401200    3.893245   -1.243139
     64          6           0       17.090319    4.238098   -2.739331
     65          6           0       17.796279    5.130453   -0.601360
     66          1           0       -2.807180    0.964102    3.573692
     67          1           0       -6.404563    5.694245    0.637012
     68          1           0       -8.642373    1.266852   -3.335235
     69          1           0       -3.914115   -3.118323    1.972177
     70          1           0       -1.952862   -1.261605    2.516146
     71          1           0       -2.956880   -2.632556    4.359445
     72          1           0       -3.375623   -0.913954    4.691972
     73          1           0       -4.680612   -1.934399    3.890370
     74          1           0       -2.048354   -3.180940   -0.313739
     75          1           0       -1.671711   -1.871944    0.474218
     76          1           0       -0.612855   -3.239083    2.447728
     77          1           0       -1.287160   -4.609810    1.876418
     78          1           0       -1.718492    3.249288    3.867351
     79          1           0       -2.491820    4.739799    4.377891
     80          1           0       -3.009720    3.281317    5.226001
     81          1           0       -5.131918    6.464122    2.217673
     82          1           0      -10.085760    2.797963   -3.283774
     83          1           0      -10.151389    4.434633   -2.713370
     84          1           0       -9.635537    4.173762   -5.170968
     85          1           0       -8.135874    5.147663   -4.345898
     86          1           0       -8.251088    3.233719   -5.005598
     87          1           0       -8.317711   -1.049471   -4.702230
     88          1           0       -8.590562   -2.601349   -4.045256
     89          1           0       -9.493635   -1.295530   -3.635084
     90          1           0       -4.130559   -3.636970   -1.353467
     91          1           0        2.416426   -5.970221    1.012320
     92          1           0        2.185777   -5.085106   -0.444376
     93          1           0        3.538895   -3.945974    1.862612
     94          1           0        2.748619   -3.548104   -1.548397
     95          1           0        3.508476   -1.939681   -1.737656
     96          1           0        4.605742   -3.315375   -2.147827
     97          1           0        5.030571   -1.257443    0.422029
     98          1           0        5.425696   -2.470991    1.647000
     99          1           0        6.627600   -3.859665    0.249966
    100          1           0        6.290861   -2.813738   -1.048915
    101          1           0        7.326794   -0.900129    0.397788
    102          1           0        7.588257   -1.991656    1.576307
    103          1           0        8.975095   -1.711027   -1.203905
    104          1           0        9.163482   -4.109880   -0.445537
    105          1           0       10.608290   -3.619146   -0.500538
    106          1           0        9.732323   -3.574084    1.042978
    107          1           0        9.457761    0.132742    0.310987
    108          1           0       10.168180   -1.072453    1.494639
    109          1           0       11.802515   -1.827493   -0.262729
    110          1           0       11.162453   -0.726634   -1.652593
    111          1           0       11.582477    1.039130   -0.163375
    112          1           0       12.146993    0.180249    1.269116
    113          1           0       13.288465    0.354012   -1.694478
    114          1           0       15.081290   -0.832164    0.599708
    115          1           0       13.827933   -1.865445   -0.095034
    116          1           0       15.298899   -0.766635   -1.200486
    117          1           0       13.495783    2.372856   -0.561929
    118          1           0       14.283372    1.898133    0.916701
    119          1           0       16.061280    1.470879   -0.764601
    120          1           0       15.070884    2.154992   -2.167436
    121          1           0       15.254854    4.379817   -1.163363
    122          1           0       16.088636    3.467793    0.409788
    123          1           0       18.062671    3.054078   -1.009871
    124          1           0       16.475760    5.179184   -2.865371
    125          1           0       17.921997    4.622210   -3.229686
    126          1           0       16.912567    3.407129   -3.368673
    127          1           0       17.939571    4.996792    0.441075
    128          1           0       18.804667    5.359121   -1.011709
    129          1           0       17.160069    5.985529   -0.832503
    130          1           0       -4.838907   -7.841848    0.110098
    131          1           0       -6.650396   -7.349298    0.380594
    132          1           0       -5.190343   -6.795539    1.622025
    133          8           0       -7.885584    6.948146   -0.432895
    134          1           0       -9.023306    6.203700   -1.834420
 ---------------------------------------------------------------------

 SCF Done:  E(RCAM-B3LYP) =  -3043.38045484     A.U. after   15 cycles

 Excitation energies and oscillator strengths:

 Excited State   1:      Singlet-A      2.0886 eV  593.62 nm  f=0.1492  <S**2>=0.000
     243 -> 246        0.26452
     244 -> 245        0.64277
 This state for optimization and/or second-order correction.
 Total Energy, E(TD-HF/TD-DFT) =  -3043.30369940
 Copying the excited state density for this state as the 1-particle RhoCI density.

 The electronic state is 1-A.
 Alpha  occ. eigenvalues --  -46.80724 -19.24604 -19.22940 -19.18529 -19.18471
 Alpha  occ. eigenvalues --  -19.16761 -19.16703 -19.15885 -14.38020 -14.37025
 Alpha  occ. eigenvalues --  -14.36485 -14.36265 -10.35760 -10.34969 -10.33116
 Alpha  occ. eigenvalues --  -10.29920 -10.29325 -10.29062 -10.27833 -10.26687
 Alpha  occ. eigenvalues --  -10.26528 -10.26385 -10.26343 -10.26341 -10.26061
 Alpha  occ. eigenvalues --  -10.25850 -10.25621 -10.25028 -10.24888 -10.24667
 Alpha  occ. eigenvalues --  -10.24181 -10.24082 -10.23948 -10.23883 -10.23861
 Alpha  occ. eigenvalues --  -10.23845 -10.23515 -10.23470 -10.23137 -10.23121
 Alpha  occ. eigenvalues --  -10.23043 -10.22933 -10.22884 -10.22751 -10.22635
 Alpha  occ. eigenvalues --  -10.22520 -10.22352 -10.22293 -10.22161 -10.21985
 Alpha  occ. eigenvalues --  -10.21915 -10.21804 -10.21778 -10.21707 -10.21618
 Alpha  occ. eigenvalues --  -10.21579 -10.21355 -10.21031 -10.21030 -10.20952
 Alpha  occ. eigenvalues --  -10.20141 -10.19910 -10.19582 -10.19341 -10.19319
 Alpha  occ. eigenvalues --  -10.19090  -3.09467  -1.84396  -1.83950  -1.83877
 Alpha  occ. eigenvalues --   -1.18332  -1.12403  -1.06811  -1.06636  -1.05802
 Alpha  occ. eigenvalues --   -1.05128  -1.02431  -1.02411  -1.00737  -0.99179
 Alpha  occ. eigenvalues --   -0.98385  -0.88256  -0.87992  -0.86913  -0.86476
 Alpha  occ. eigenvalues --   -0.85544  -0.85075  -0.84484  -0.83780  -0.83465
 Alpha  occ. eigenvalues --   -0.83180  -0.82792  -0.82710  -0.81147  -0.80515
 Alpha  occ. eigenvalues --   -0.79806  -0.78546  -0.77789  -0.77046  -0.77023
 Alpha  occ. eigenvalues --   -0.75687  -0.75450  -0.74352  -0.72941  -0.72588
 Alpha  occ. eigenvalues --   -0.72067  -0.71449  -0.71224  -0.70208  -0.70103
 Alpha  occ. eigenvalues --   -0.69960  -0.69595  -0.67824  -0.66990  -0.66749
 Alpha  occ. eigenvalues --   -0.66331  -0.65227  -0.64623  -0.63389  -0.62273
 Alpha  occ. eigenvalues --   -0.62015  -0.61419  -0.60967  -0.60758  -0.59072
 Alpha  occ. eigenvalues --   -0.58770  -0.58489  -0.58104  -0.57845  -0.57367
 Alpha  occ. eigenvalues --   -0.56848  -0.56620  -0.56103  -0.55443  -0.54980
 Alpha  occ. eigenvalues --   -0.54322  -0.53768  -0.53346  -0.53054  -0.52739
 Alpha  occ. eigenvalues --   -0.52467  -0.52121  -0.51956  -0.51783  -0.51342
 Alpha  occ. eigenvalues --   -0.50892  -0.50540  -0.50120  -0.49963  -0.49255
 Alpha  occ. eigenvalues --   -0.48768  -0.48336  -0.48232  -0.47994  -0.47785
 Alpha  occ. eigenvalues --   -0.47754  -0.47519  -0.47379  -0.47028  -0.46741
 Alpha  occ. eigenvalues --   -0.46396  -0.46298  -0.46068  -0.45873  -0.45664
 Alpha  occ. eigenvalues --   -0.45601  -0.45369  -0.45179  -0.45143  -0.44902
 Alpha  occ. eigenvalues --   -0.44584  -0.44459  -0.44443  -0.44287  -0.43917
 Alpha  occ. eigenvalues --   -0.43616  -0.43308  -0.43242  -0.42926  -0.42841
 Alpha  occ. eigenvalues --   -0.42753  -0.42524  -0.42474  -0.42374  -0.42348
 Alpha  occ. eigenvalues --   -0.41787  -0.41592  -0.41199  -0.41187  -0.40981
 Alpha  occ. eigenvalues --   -0.40744  -0.40698  -0.40580  -0.40449  -0.39911
 Alpha  occ. eigenvalues --   -0.39866  -0.39736  -0.39458  -0.39101  -0.39035
 Alpha  occ. eigenvalues --   -0.39014  -0.38811  -0.38758  -0.38443  -0.38331
 Alpha  occ. eigenvalues --   -0.38149  -0.37814  -0.37453  -0.37362  -0.37345
 Alpha  occ. eigenvalues --   -0.36677  -0.36472  -0.36438  -0.36153  -0.36147
 Alpha  occ. eigenvalues --   -0.35878  -0.35476  -0.35328  -0.34968  -0.34698
 Alpha  occ. eigenvalues --   -0.34533  -0.33700  -0.33612  -0.33376  -0.33257
 Alpha  occ. eigenvalues --   -0.33161  -0.32794  -0.32097  -0.31982  -0.31736
 Alpha  occ. eigenvalues --   -0.31397  -0.31167  -0.29962  -0.29923  -0.29137
 Alpha  occ. eigenvalues --   -0.29080  -0.28522  -0.28389  -0.28375  -0.27797
 Alpha  occ. eigenvalues --   -0.27382  -0.27180  -0.23030  -0.21223
 Alpha virt. eigenvalues --   -0.07898  -0.06559  -0.01703  -0.00431   0.01087
 Alpha virt. eigenvalues --    0.01944   0.02037   0.03958   0.04038   0.04565
 Alpha virt. eigenvalues --    0.05840   0.06110   0.07721   0.08571   0.08608

 Mulliken charges:
               1
     1  Mg   0.828487
     2  C    0.039745
     3  C   -0.165532
     4  C   -0.182157
     5  C   -0.162384
     6  N   -0.626992
     7  C    0.242228
     8  C   -0.146514
     9  C   -0.170755
    10  C    0.355331
    11  C   -0.300967
    12  C   -0.183288
    13  C   -0.261935
    14  C    0.598301
    15  O   -0.525610
    16  O   -0.396013
    17  N   -0.740901
    18  C    0.320891
    19  C    0.042823
    20  C   -0.038229
    21  C    0.334111
    22  C   -0.359873
    23  C    0.253203
    24  O   -0.415898
    25  N   -0.707227
    26  C    0.262520
    27  C   -0.046915
    28  C    0.012459
    29  C    0.328806
    30  C    0.264194
    31  C   -0.245791
    32  C   -0.295803
    33  N   -0.714953
    34  C    0.243238
    35  C    0.091528
    36  C   -0.031291
    37  C    0.349473
    38  C   -0.420787
    39  C    0.399762
    40  O   -0.447226
    41  C   -0.306770
    42  C    0.643974
    43  O   -0.460082
    44  O   -0.458478
    45  C   -0.085539
    46  C   -0.004776
    47  C   -0.120311
    48  C    0.175950
    49  C   -0.378978
    50  C   -0.237598
    51  C   -0.189525
    52  C   -0.155542
    53  C   -0.038855
    54  C   -0.301513
    55  C   -0.170987
    56  C   -0.141048
    57  C   -0.173068
    58  C   -0.056677
    59  C   -0.309310
    60  C   -0.164409
    61  C   -0.131047
    62  C   -0.154606
    63  C   -0.068606
    64  C   -0.321248
    65  C   -0.289340
    66  H    0.058054
    67  H    0.153200
    68  H    0.094259
    69  H    0.140339
    70  H    0.106809
    71  H    0.118348
    72  H    0.116413
    73  H    0.126526
    74  H    0.100890
    75  H    0.133380
    76  H    0.134292
    77  H    0.095373
    78  H    0.099493
    79  H    0.158890
    80  H    0.136961
    81  H    0.067756
    82  H    0.080554
    83  H    0.124383
    84  H    0.115850
    85  H    0.088575
    86  H    0.117583
    87  H    0.115406
    88  H    0.154443
    89  H    0.142371
    90  H    0.177677
    91  H    0.113853
    92  H    0.138136
    93  H    0.076137
    94  H    0.146655
    95  H    0.101790
    96  H    0.097982
    97  H    0.085155
    98  H    0.102878
    99  H    0.101860
   100  H    0.080161
   101  H    0.102777
   102  H    0.086896
   103  H    0.099869
   104  H    0.110492
   105  H    0.102871
   106  H    0.077044
   107  H    0.068802
   108  H    0.062903
   109  H    0.102464
   110  H    0.012620
   111  H    0.091157
   112  H    0.076301
   113  H    0.057617
   114  H    0.104552
   115  H    0.098267
   116  H    0.079693
   117  H    0.112763
   118  H    0.094512
   119  H    0.084950
   120  H    0.066569
   121  H    0.075139
   122  H    0.081245
   123  H    0.082826
   124  H    0.095954
   125  H    0.099194
   126  H    0.107389
   127  H    0.097693
   128  H    0.090044
   129  H    0.100149
   130  H    0.134544
   131  H    0.101398
   132  H    0.130537
   133  O   -0.438272
   134  H    0.064946
 Sum of Mulliken charges =  -0.00000

 Dipole moment (field-independent basis, Debye):
    X=              3.2852    Y=             -6.6752    Z=             -0.5083  Tot=              7.4571
 Quadrupole moment (field-independent basis, Debye-Ang):
   XX=           -362.0091   YY=           -443.6185   ZZ=           -390.6085
   XY=             17.6769   XZ=             29.5500   YZ=            -37.4527

 Normal termination of Gaussian 16 at Tue Oct  8 03:07:17 2019.
