 Gaussian 16, Revision A.03,
 Gaussian 16:  ES64L-G16RevA.03 25-Dec-2016

 ----------------------------------------------------------------------
 # td=(NStates=1) iop(3/107=0140000000,3/108=0140000000) iop(3/107=0140
 000000,3/108=0140000000) CAM-B3LYP/6-31G(d,p)
 ----------------------------------------------------------------------

 --
 TD
 --
 Symbolic Z-matrix:
 Charge =  0 Multiplicity = 1

                         Standard orientation:
 ---------------------------------------------------------------------
 Center     Atomic      Atomic             Coordinates (Angstroms)
 Number     Number       Type             X           Y           Z
 ---------------------------------------------------------------------
      1         12           0       -5.691566    1.116188    0.239924
      2          6           0       -5.075514   -2.168891   -0.391438
      3          6           0       -3.430287    1.132962    2.850625
      4          6           0       -6.109494    4.577689    0.589679
      5          6           0       -7.979728    1.133810   -2.390223
      6          7           0       -4.352989   -0.282895    1.092172
      7          6           0       -4.270551   -1.630357    0.690811
      8          6           0       -3.266096   -2.309866    1.535319
      9          6           0       -2.923388   -1.324425    2.723202
     10          6           0       -3.578962   -0.056268    2.134672
     11          6           0       -3.634387   -1.731447    4.077817
     12          6           0       -1.965922   -2.607617    0.651888
     13          6           0       -0.994753   -3.516172    1.317805
     14          6           0        0.199494   -3.821997    0.493372
     15          8           0        0.558916   -3.333604   -0.618414
     16          8           0        1.051282   -4.743794    1.205455
     17          7           0       -4.958133    2.641084    1.557418
     18          6           0       -4.041997    2.437967    2.492699
     19          6           0       -3.852240    3.750905    3.270410
     20          6           0       -4.641874    4.653735    2.642216
     21          6           0       -5.381118    3.955835    1.542980
     22          6           0       -2.862492    3.796210    4.387200
     23          6           0       -4.784444    6.030207    2.924296
     24          8           0       -4.110979    6.580277    3.789502
     25          7           0       -6.811243    2.678088   -0.733741
     26          6           0       -7.018486    3.946326   -0.404568
     27          6           0       -7.944186    4.570434   -1.265365
     28          6           0       -8.484303    3.552170   -2.019784
     29          6           0       -7.707158    2.397403   -1.795881
     30          6           0       -8.498960    5.958723   -1.156040
     31          6           0       -9.488927    3.623906   -3.155269
     32          6           0       -8.942453    4.014884   -4.630765
     33          7           0       -6.343744   -0.107122   -1.212204
     34          6           0       -7.263357   -0.054406   -2.131729
     35          6           0       -7.591060   -1.405309   -2.775320
     36          6           0       -6.831859   -2.255434   -2.083032
     37          6           0       -6.008969   -1.470781   -1.044944
     38          6           0       -8.449574   -1.532196   -4.046731
     39          6           0       -6.180244   -3.602020   -2.009191
     40          8           0       -6.361052   -4.526533   -2.850471
     41          6           0       -5.092883   -3.538888   -0.854926
     42          6           0       -5.373306   -4.592559    0.204482
     43          8           0       -5.920171   -4.386067    1.317307
     44          8           0       -4.996086   -5.873957   -0.169564
     45          6           0       -5.315460   -6.984697    0.587633
     46          6           0        2.398375   -5.128944    0.577089
     47          6           0        3.442591   -4.084381    0.970813
     48          6           0        4.064244   -3.176910    0.292793
     49          6           0        3.775573   -3.108301   -1.224024
     50          6           0        5.217668   -2.430586    0.873223
     51          6           0        6.561045   -2.619463    0.052772
     52          6           0        7.664050   -1.796222    0.689518
     53          6           0        9.039300   -1.910425   -0.039012
     54          6           0        9.568695   -3.370211    0.135887
     55          6           0       10.039162   -0.848643    0.438659
     56          6           0       11.309881   -0.751696   -0.405227
     57          6           0       12.292667    0.331203    0.178014
     58          6           0       13.701077    0.485791   -0.571889
     59          6           0       14.573569   -0.694189   -0.272715
     60          6           0       14.369300    1.777106   -0.165417
     61          6           0       15.527300    2.139418   -0.995183
     62          6           0       16.117962    3.496599   -0.652452
     63          6           0       17.408674    3.777983   -1.345523
     64          6           0       17.345134    4.029711   -2.916315
     65          6           0       18.013609    5.076386   -0.865854
     66          1           0       -2.778936    1.264911    3.695021
     67          1           0       -6.341267    5.557994    0.841309
     68          1           0       -8.928210    1.050797   -3.132524
     69          1           0       -3.717505   -3.170550    1.734569
     70          1           0       -1.912718   -1.228382    2.918320
     71          1           0       -3.125281   -2.724751    4.359309
     72          1           0       -3.337018   -1.081441    4.737549
     73          1           0       -4.569485   -1.794097    4.144750
     74          1           0       -2.200002   -3.077999   -0.180862
     75          1           0       -1.658591   -1.575680    0.277831
     76          1           0       -0.594199   -3.158229    2.278992
     77          1           0       -1.621137   -4.539490    1.385595
     78          1           0       -1.926301    3.166580    4.158846
     79          1           0       -2.769466    4.803172    4.726187
     80          1           0       -3.284377    3.381160    5.337900
     81          1           0       -5.749862    6.627570    2.280479
     82          1           0      -10.170186    2.765113   -3.244411
     83          1           0      -10.246186    4.330607   -2.726003
     84          1           0       -9.897255    3.661221   -5.364534
     85          1           0       -8.197827    4.838827   -4.723104
     86          1           0       -8.232913    3.277572   -4.971977
     87          1           0       -8.438727   -0.578313   -4.707254
     88          1           0       -8.218159   -2.418249   -4.670490
     89          1           0       -9.394850   -1.805394   -3.631141
     90          1           0       -4.336483   -3.948447   -1.595693
     91          1           0        2.447612   -6.106943    0.879575
     92          1           0        2.233980   -5.248414   -0.570597
     93          1           0        3.659524   -4.112122    2.030590
     94          1           0        2.761170   -3.304919   -1.557611
     95          1           0        4.009350   -2.164743   -1.450761
     96          1           0        4.466444   -3.743187   -1.733757
     97          1           0        4.859234   -1.218929    0.820263
     98          1           0        5.276732   -2.603474    1.898884
     99          1           0        6.834141   -3.637138    0.172390
    100          1           0        6.738420   -2.324617   -1.010988
    101          1           0        7.183021   -0.840670    0.732389
    102          1           0        7.966519   -2.178378    1.844918
    103          1           0        8.727487   -1.574680   -1.112372
    104          1           0        9.007553   -4.265128   -0.491243
    105          1           0       10.607839   -3.409633   -0.366786
    106          1           0        9.580291   -3.710992    1.250020
    107          1           0        9.756066    0.251494    0.516764
    108          1           0        9.995187   -1.109507    1.655111
    109          1           0       12.052266   -1.688845   -0.473987
    110          1           0       11.056685   -0.643073   -1.501185
    111          1           0       11.853131    1.304906    0.014239
    112          1           0       12.508667    0.227325    1.073829
    113          1           0       13.342679    0.478484   -1.669647
    114          1           0       15.195140   -0.672002    0.688027
    115          1           0       14.003272   -1.694082   -0.431968
    116          1           0       15.391680   -0.688681   -1.040263
    117          1           0       13.702594    2.595049   -0.159630
    118          1           0       14.689936    1.764044    1.004368
    119          1           0       16.254365    1.459368   -0.788387
    120          1           0       15.479734    2.261568   -2.050703
    121          1           0       15.331264    4.215076   -0.621697
    122          1           0       16.412209    3.574665    0.363616
    123          1           0       18.062409    2.859547   -1.022611
    124          1           0       16.663325    4.769532   -3.208089
    125          1           0       18.326917    4.490880   -3.265062
    126          1           0       16.955009    3.118418   -3.378586
    127          1           0       18.257261    4.972960    0.242684
    128          1           0       18.867106    5.317759   -1.349586
    129          1           0       17.406580    5.970872   -1.061896
    130          1           0       -4.963215   -7.859066    0.024568
    131          1           0       -6.386036   -7.189527    0.769352
    132          1           0       -4.946694   -6.997705    1.653885
    133          8           0       -7.822039    6.899521   -0.617112
    134          1           0       -9.486955    6.160545   -1.807277
 ---------------------------------------------------------------------

 SCF Done:  E(RCAM-B3LYP) =  -3043.43074072     A.U. after   16 cycles

 Excitation energies and oscillator strengths:

 Excited State   1:      Singlet-A      2.0834 eV  595.10 nm  f=0.1715  <S**2>=0.000
     243 -> 246        0.27608
     244 -> 245        0.64392
 This state for optimization and/or second-order correction.
 Total Energy, E(TD-HF/TD-DFT) =  -3043.35417712
 Copying the excited state density for this state as the 1-particle RhoCI density.

 The electronic state is 1-A.
 Alpha  occ. eigenvalues --  -46.83130 -19.23702 -19.20779 -19.18486 -19.18032
 Alpha  occ. eigenvalues --  -19.17773 -19.17360 -19.16973 -14.39651 -14.37691
 Alpha  occ. eigenvalues --  -14.37376 -14.36525 -10.37206 -10.35709 -10.33192
 Alpha  occ. eigenvalues --  -10.31451 -10.31144 -10.29189 -10.28046 -10.27882
 Alpha  occ. eigenvalues --  -10.27786 -10.27686 -10.27151 -10.27132 -10.26558
 Alpha  occ. eigenvalues --  -10.26158 -10.26151 -10.25931 -10.25700 -10.25378
 Alpha  occ. eigenvalues --  -10.25352 -10.25132 -10.24914 -10.24805 -10.24059
 Alpha  occ. eigenvalues --  -10.24009 -10.23929 -10.23673 -10.23660 -10.23499
 Alpha  occ. eigenvalues --  -10.23413 -10.23378 -10.23311 -10.23200 -10.23046
 Alpha  occ. eigenvalues --  -10.23042 -10.22965 -10.22920 -10.22811 -10.22628
 Alpha  occ. eigenvalues --  -10.22268 -10.22159 -10.22081 -10.21811 -10.21716
 Alpha  occ. eigenvalues --  -10.21687 -10.21102 -10.20859 -10.20576 -10.20490
 Alpha  occ. eigenvalues --  -10.20117 -10.19117 -10.18889 -10.18855 -10.18697
 Alpha  occ. eigenvalues --  -10.18606  -3.11430  -1.86382  -1.85886  -1.85837
 Alpha  occ. eigenvalues --   -1.13548  -1.08335  -1.06440  -1.05403  -1.04488
 Alpha  occ. eigenvalues --   -1.03166  -1.01276  -1.01218  -1.00409  -0.99956
 Alpha  occ. eigenvalues --   -0.99028  -0.90762  -0.86847  -0.86176  -0.85986
 Alpha  occ. eigenvalues --   -0.84824  -0.84383  -0.84099  -0.83827  -0.83412
 Alpha  occ. eigenvalues --   -0.83352  -0.82682  -0.82047  -0.81072  -0.80252
 Alpha  occ. eigenvalues --   -0.78965  -0.78358  -0.77328  -0.77036  -0.76437
 Alpha  occ. eigenvalues --   -0.75547  -0.75313  -0.74506  -0.74130  -0.72531
 Alpha  occ. eigenvalues --   -0.71970  -0.70860  -0.70519  -0.70372  -0.70023
 Alpha  occ. eigenvalues --   -0.69711  -0.68689  -0.67651  -0.67139  -0.66632
 Alpha  occ. eigenvalues --   -0.65901  -0.65262  -0.64555  -0.63821  -0.63057
 Alpha  occ. eigenvalues --   -0.62555  -0.61438  -0.60373  -0.60116  -0.59419
 Alpha  occ. eigenvalues --   -0.58356  -0.58239  -0.57614  -0.57359  -0.57022
 Alpha  occ. eigenvalues --   -0.56434  -0.56074  -0.55190  -0.55146  -0.54575
 Alpha  occ. eigenvalues --   -0.53743  -0.53319  -0.53015  -0.52706  -0.51950
 Alpha  occ. eigenvalues --   -0.51612  -0.51281  -0.51189  -0.50989  -0.50334
 Alpha  occ. eigenvalues --   -0.50239  -0.49694  -0.49341  -0.49196  -0.48906
 Alpha  occ. eigenvalues --   -0.48700  -0.48601  -0.48449  -0.48139  -0.47734
 Alpha  occ. eigenvalues --   -0.47668  -0.47455  -0.47154  -0.46990  -0.46771
 Alpha  occ. eigenvalues --   -0.46669  -0.46578  -0.46226  -0.46108  -0.45800
 Alpha  occ. eigenvalues --   -0.45708  -0.45314  -0.45288  -0.45027  -0.44774
 Alpha  occ. eigenvalues --   -0.44508  -0.44227  -0.44124  -0.43931  -0.43680
 Alpha  occ. eigenvalues --   -0.43612  -0.43463  -0.43165  -0.43051  -0.42709
 Alpha  occ. eigenvalues --   -0.42642  -0.42618  -0.42322  -0.42260  -0.41850
 Alpha  occ. eigenvalues --   -0.41714  -0.41522  -0.41374  -0.41333  -0.41111
 Alpha  occ. eigenvalues --   -0.40879  -0.40817  -0.40364  -0.40256  -0.40039
 Alpha  occ. eigenvalues --   -0.39995  -0.39724  -0.39629  -0.39088  -0.39071
 Alpha  occ. eigenvalues --   -0.38898  -0.38857  -0.38822  -0.38726  -0.38522
 Alpha  occ. eigenvalues --   -0.38225  -0.38169  -0.37952  -0.37400  -0.37337
 Alpha  occ. eigenvalues --   -0.37233  -0.36793  -0.36577  -0.35893  -0.35784
 Alpha  occ. eigenvalues --   -0.35307  -0.35087  -0.34997  -0.34881  -0.34721
 Alpha  occ. eigenvalues --   -0.34461  -0.34092  -0.33921  -0.33366  -0.33044
 Alpha  occ. eigenvalues --   -0.32679  -0.32222  -0.32076  -0.31855  -0.31645
 Alpha  occ. eigenvalues --   -0.31566  -0.31368  -0.30428  -0.30289  -0.30250
 Alpha  occ. eigenvalues --   -0.29697  -0.28498  -0.28453  -0.27713  -0.27670
 Alpha  occ. eigenvalues --   -0.27447  -0.27419  -0.23601  -0.21007
 Alpha virt. eigenvalues --   -0.07630  -0.06969  -0.03241  -0.01091  -0.00332
 Alpha virt. eigenvalues --    0.00955   0.01644   0.02355   0.03788   0.04324
 Alpha virt. eigenvalues --    0.04869   0.05433   0.07702   0.08154   0.08927

 Mulliken charges:
               1
     1  Mg   0.839564
     2  C    0.111462
     3  C   -0.178536
     4  C   -0.114908
     5  C   -0.173859
     6  N   -0.648781
     7  C    0.297882
     8  C   -0.148999
     9  C   -0.140908
    10  C    0.357813
    11  C   -0.290236
    12  C   -0.166809
    13  C   -0.249257
    14  C    0.599869
    15  O   -0.475238
    16  O   -0.516675
    17  N   -0.676829
    18  C    0.288407
    19  C    0.066352
    20  C    0.007828
    21  C    0.292321
    22  C   -0.398869
    23  C    0.218405
    24  O   -0.419615
    25  N   -0.644926
    26  C    0.255552
    27  C   -0.013155
    28  C    0.009606
    29  C    0.275118
    30  C    0.216642
    31  C   -0.238149
    32  C   -0.310011
    33  N   -0.694714
    34  C    0.283711
    35  C    0.001528
    36  C    0.054917
    37  C    0.218936
    38  C   -0.373944
    39  C    0.337989
    40  O   -0.461689
    41  C   -0.330695
    42  C    0.622610
    43  O   -0.484282
    44  O   -0.435800
    45  C   -0.089340
    46  C    0.009286
    47  C   -0.114847
    48  C    0.138715
    49  C   -0.375387
    50  C   -0.223196
    51  C   -0.171959
    52  C   -0.156155
    53  C   -0.063842
    54  C   -0.298695
    55  C   -0.139854
    56  C   -0.187043
    57  C   -0.161912
    58  C   -0.058344
    59  C   -0.311246
    60  C   -0.171967
    61  C   -0.159615
    62  C   -0.173481
    63  C   -0.049785
    64  C   -0.324581
    65  C   -0.307322
    66  H    0.076182
    67  H    0.106270
    68  H    0.095202
    69  H    0.106848
    70  H    0.111403
    71  H    0.095839
    72  H    0.120874
    73  H    0.132996
    74  H    0.124484
    75  H    0.115582
    76  H    0.146188
    77  H    0.134928
    78  H    0.122403
    79  H    0.161322
    80  H    0.128811
    81  H    0.054789
    82  H    0.104317
    83  H    0.099810
    84  H    0.092010
    85  H    0.129831
    86  H    0.119561
    87  H    0.124004
    88  H    0.149613
    89  H    0.146753
    90  H    0.181556
    91  H    0.125850
    92  H    0.112521
    93  H    0.065541
    94  H    0.148829
    95  H    0.110441
    96  H    0.115968
    97  H    0.060747
    98  H    0.113459
    99  H    0.112519
   100  H    0.102552
   101  H    0.095326
   102  H    0.042177
   103  H    0.068390
   104  H    0.086453
   105  H    0.104284
   106  H    0.104562
   107  H    0.095453
   108  H    0.058653
   109  H    0.071317
   110  H    0.094797
   111  H    0.083186
   112  H    0.103575
   113  H    0.074874
   114  H    0.098277
   115  H    0.091419
   116  H    0.101005
   117  H    0.089832
   118  H    0.065873
   119  H    0.098521
   120  H    0.095568
   121  H    0.085346
   122  H    0.084185
   123  H    0.074018
   124  H    0.113445
   125  H    0.094823
   126  H    0.097076
   127  H    0.080757
   128  H    0.106273
   129  H    0.100523
   130  H    0.128267
   131  H    0.124525
   132  H    0.115270
   133  O   -0.434531
   134  H    0.077421
 Sum of Mulliken charges =  -0.00000

 Dipole moment (field-independent basis, Debye):
    X=              1.8043    Y=             -6.2236    Z=              0.2405  Tot=              6.4843
 Quadrupole moment (field-independent basis, Debye-Ang):
   XX=           -369.6415   YY=           -448.8490   ZZ=           -391.4854
   XY=             26.9099   XZ=             12.7120   YZ=            -26.9020

 Normal termination of Gaussian 16 at Mon Oct  7 13:34:49 2019.
