 Gaussian 16, Revision A.03,
 Gaussian 16:  ES64L-G16RevA.03 25-Dec-2016

 ----------------------------------------------------------------------
 # td=(NStates=1) iop(3/107=0140000000,3/108=0140000000) iop(3/107=0140
 000000,3/108=0140000000) CAM-B3LYP/6-31G(d,p)
 ----------------------------------------------------------------------

 --
 TD
 --
 Symbolic Z-matrix:
 Charge =  0 Multiplicity = 1

                         Standard orientation:
 ---------------------------------------------------------------------
 Center     Atomic      Atomic             Coordinates (Angstroms)
 Number     Number       Type             X           Y           Z
 ---------------------------------------------------------------------
      1         12           0       -5.529767    1.350791    0.156535
      2          6           0       -5.087352   -2.098007   -0.310151
      3          6           0       -3.308365    1.157661    2.758850
      4          6           0       -6.191887    4.514696    0.684685
      5          6           0       -7.988025    1.201405   -2.427888
      6          7           0       -4.353286   -0.240259    1.018879
      7          6           0       -4.311576   -1.601622    0.645764
      8          6           0       -3.283786   -2.363107    1.467720
      9          6           0       -2.834444   -1.394752    2.613231
     10          6           0       -3.509692   -0.094674    2.178611
     11          6           0       -3.470775   -1.741676    3.993769
     12          6           0       -2.041061   -2.820588    0.575912
     13          6           0       -0.996722   -3.684886    1.355223
     14          6           0        0.281869   -3.919375    0.575607
     15          8           0        0.413397   -3.663612   -0.619103
     16          8           0        1.134478   -4.707080    1.337965
     17          7           0       -4.981442    2.577371    1.548973
     18          6           0       -4.031123    2.377237    2.518142
     19          6           0       -3.633832    3.610617    3.173954
     20          6           0       -4.465871    4.590516    2.708046
     21          6           0       -5.244941    3.908201    1.573682
     22          6           0       -2.669296    3.607963    4.315502
     23          6           0       -4.371030    6.101583    2.907318
     24          8           0       -3.894187    6.620247    3.919803
     25          7           0       -6.927420    2.620029   -0.550944
     26          6           0       -7.045077    3.935202   -0.261571
     27          6           0       -7.865192    4.724500   -1.174622
     28          6           0       -8.363340    3.740144   -2.108735
     29          6           0       -7.797809    2.468947   -1.549303
     30          6           0       -8.140997    6.124950   -1.167029
     31          6           0       -9.417723    3.959224   -3.157424
     32          6           0       -8.735093    4.118099   -4.539949
     33          7           0       -6.349445   -0.120226   -1.112422
     34          6           0       -7.382025   -0.003469   -2.164304
     35          6           0       -7.505673   -1.244723   -2.812097
     36          6           0       -6.710736   -2.180005   -2.130478
     37          6           0       -6.072948   -1.361901   -1.033579
     38          6           0       -8.593600   -1.613127   -3.762887
     39          6           0       -6.154595   -3.539003   -2.016284
     40          8           0       -6.582984   -4.436325   -2.680670
     41          6           0       -5.100211   -3.620334   -0.932957
     42          6           0       -5.444125   -4.645357    0.089914
     43          8           0       -5.853600   -4.481267    1.192364
     44          8           0       -5.053387   -5.816421   -0.337847
     45          6           0       -5.415074   -7.052945    0.483499
     46          6           0        2.408322   -5.144212    0.677057
     47          6           0        3.570855   -4.226690    1.036381
     48          6           0        4.078161   -3.384534    0.138646
     49          6           0        3.789096   -3.128840   -1.255854
     50          6           0        5.240319   -2.413233    0.574565
     51          6           0        6.571984   -2.775640    0.031635
     52          6           0        7.694893   -1.921161    0.465785
     53          6           0        9.094110   -2.088723   -0.093780
     54          6           0        9.635635   -3.508671    0.176865
     55          6           0        9.982268   -0.976853    0.372612
     56          6           0       11.296020   -0.884056   -0.351081
     57          6           0       12.174706    0.208328    0.157680
     58          6           0       13.508409    0.486338   -0.534975
     59          6           0       14.340004   -0.761704   -0.445771
     60          6           0       14.164244    1.823587   -0.079660
     61          6           0       15.357194    2.149120   -0.933759
     62          6           0       15.900774    3.588843   -0.584222
     63          6           0       17.180154    4.078573   -1.392584
     64          6           0       16.955918    4.208771   -2.819205
     65          6           0       17.661391    5.403770   -0.820326
     66          1           0       -2.655176    1.311524    3.564599
     67          1           0       -6.369654    5.661414    0.817522
     68          1           0       -8.668054    1.177624   -3.286985
     69          1           0       -3.591455   -3.115879    1.922510
     70          1           0       -1.819500   -1.207836    2.677555
     71          1           0       -2.805184   -2.672474    4.270485
     72          1           0       -3.346846   -1.097659    4.815444
     73          1           0       -4.393275   -2.085524    3.840524
     74          1           0       -2.458458   -3.166588   -0.325707
     75          1           0       -1.454565   -1.908588    0.584592
     76          1           0       -0.637864   -3.120296    2.169173
     77          1           0       -1.359632   -4.763855    1.601284
     78          1           0       -1.717668    3.323905    4.043107
     79          1           0       -2.658412    4.645136    4.728880
     80          1           0       -3.062162    2.896226    4.974482
     81          1           0       -4.863449    6.799323    2.176629
     82          1           0      -10.253108    3.192574   -3.332599
     83          1           0       -9.835300    4.917684   -2.804664
     84          1           0       -9.493244    4.349156   -5.276810
     85          1           0       -7.943251    4.924410   -4.547445
     86          1           0       -8.128275    3.271811   -4.950300
     87          1           0       -8.762296   -1.090058   -4.777403
     88          1           0       -8.651896   -2.728102   -3.939915
     89          1           0       -9.451558   -1.392381   -3.293257
     90          1           0       -4.183088   -3.855535   -1.564176
     91          1           0        2.467423   -6.126033    0.934098
     92          1           0        2.125508   -5.401383   -0.278377
     93          1           0        3.952141   -4.509339    2.017662
     94          1           0        2.649284   -3.550522   -1.600725
     95          1           0        3.660449   -2.037265   -1.459286
     96          1           0        4.503753   -3.457477   -2.178200
     97          1           0        5.145151   -1.329200    0.358375
     98          1           0        5.266192   -2.472586    1.741155
     99          1           0        6.750877   -3.920240    0.255719
    100          1           0        6.551704   -2.894112   -1.202132
    101          1           0        7.564801   -0.915719    0.241198
    102          1           0        7.839256   -1.967709    1.657408
    103          1           0        8.905799   -1.983850   -1.175376
    104          1           0        8.967115   -4.396619   -0.088388
    105          1           0       10.766759   -3.568369   -0.530140
    106          1           0        9.897419   -3.553731    1.159360
    107          1           0        9.395725    0.042455    0.213540
    108          1           0       10.142615   -1.091085    1.416695
    109          1           0       11.856810   -1.786536   -0.112947
    110          1           0       10.925720   -0.821963   -1.363751
    111          1           0       11.471774    1.237964    0.194661
    112          1           0       12.344510   -0.048068    1.190443
    113          1           0       13.058845    0.450590   -1.593970
    114          1           0       14.482096   -0.982796    0.741309
    115          1           0       13.798374   -1.631701   -0.690731
    116          1           0       15.432556   -0.575160   -0.940670
    117          1           0       13.364292    2.645374   -0.357267
    118          1           0       14.234899    1.676377    0.967312
    119          1           0       16.176355    1.410434   -0.526421
    120          1           0       15.238969    2.148891   -2.026002
    121          1           0       15.141740    4.377287   -0.993252
    122          1           0       16.184294    3.740432    0.557842
    123          1           0       18.089572    3.401972   -1.199826
    124          1           0       16.199201    5.218322   -2.767881
    125          1           0       17.948988    4.530781   -3.313161
    126          1           0       16.656716    3.344879   -3.501145
    127          1           0       17.932037    5.239894    0.093248
    128          1           0       18.562262    5.534543   -1.464051
    129          1           0       16.968296    6.266696   -1.036866
    130          1           0       -4.839778   -8.049176    0.059528
    131          1           0       -6.523799   -7.144790    0.648844
    132          1           0       -4.843693   -6.829714    1.426668
    133          8           0       -7.740229    6.938202   -0.344061
    134          1           0       -8.813155    6.447948   -1.860551
 ---------------------------------------------------------------------

 SCF Done:  E(RCAM-B3LYP) =  -3043.45994878     A.U. after   15 cycles

 Excitation energies and oscillator strengths:

 Excited State   1:      Singlet-A      2.0115 eV  616.37 nm  f=0.1698  <S**2>=0.000
     243 -> 246       -0.23962
     244 -> 245        0.65542
 This state for optimization and/or second-order correction.
 Total Energy, E(TD-HF/TD-DFT) =  -3043.38602722
 Copying the excited state density for this state as the 1-particle RhoCI density.

 The electronic state is 1-A.
 Alpha  occ. eigenvalues --  -46.81385 -19.22402 -19.21689 -19.17308 -19.17291
 Alpha  occ. eigenvalues --  -19.16658 -19.16612 -19.16395 -14.38184 -14.37737
 Alpha  occ. eigenvalues --  -14.36942 -14.36634 -10.34970 -10.34700 -10.31102
 Alpha  occ. eigenvalues --  -10.31064 -10.30270 -10.29004 -10.27474 -10.27433
 Alpha  occ. eigenvalues --  -10.26784 -10.26694 -10.26468 -10.26188 -10.25994
 Alpha  occ. eigenvalues --  -10.25986 -10.25916 -10.25711 -10.25691 -10.25452
 Alpha  occ. eigenvalues --  -10.25118 -10.24681 -10.24377 -10.24376 -10.24003
 Alpha  occ. eigenvalues --  -10.23936 -10.23894 -10.23572 -10.23352 -10.23263
 Alpha  occ. eigenvalues --  -10.23007 -10.22965 -10.22964 -10.22892 -10.22471
 Alpha  occ. eigenvalues --  -10.22454 -10.22439 -10.22357 -10.22295 -10.22289
 Alpha  occ. eigenvalues --  -10.22283 -10.22042 -10.22001 -10.21967 -10.21698
 Alpha  occ. eigenvalues --  -10.21672 -10.21500 -10.21470 -10.21446 -10.21429
 Alpha  occ. eigenvalues --  -10.21128 -10.21007 -10.20904 -10.20869 -10.20214
 Alpha  occ. eigenvalues --  -10.19155  -3.10094  -1.85005  -1.84565  -1.84525
 Alpha  occ. eigenvalues --   -1.14517  -1.10889  -1.08174  -1.06050  -1.05838
 Alpha  occ. eigenvalues --   -1.04886  -1.03533  -1.01049  -0.99622  -0.99457
 Alpha  occ. eigenvalues --   -0.96564  -0.87166  -0.87053  -0.86044  -0.85492
 Alpha  occ. eigenvalues --   -0.85011  -0.84921  -0.84558  -0.84359  -0.84047
 Alpha  occ. eigenvalues --   -0.82884  -0.82354  -0.81635  -0.80833  -0.79666
 Alpha  occ. eigenvalues --   -0.79087  -0.78628  -0.77424  -0.76890  -0.76619
 Alpha  occ. eigenvalues --   -0.75548  -0.74922  -0.74427  -0.72746  -0.72419
 Alpha  occ. eigenvalues --   -0.71085  -0.70771  -0.70368  -0.69708  -0.69689
 Alpha  occ. eigenvalues --   -0.69406  -0.69183  -0.67969  -0.66971  -0.66513
 Alpha  occ. eigenvalues --   -0.65741  -0.64575  -0.63328  -0.62468  -0.61741
 Alpha  occ. eigenvalues --   -0.61379  -0.60233  -0.59799  -0.58919  -0.58752
 Alpha  occ. eigenvalues --   -0.58432  -0.57848  -0.57407  -0.57108  -0.56718
 Alpha  occ. eigenvalues --   -0.56415  -0.56068  -0.55595  -0.55163  -0.54532
 Alpha  occ. eigenvalues --   -0.54219  -0.53252  -0.52841  -0.52463  -0.52160
 Alpha  occ. eigenvalues --   -0.51654  -0.51549  -0.51515  -0.51222  -0.51008
 Alpha  occ. eigenvalues --   -0.50409  -0.49837  -0.49635  -0.49333  -0.48908
 Alpha  occ. eigenvalues --   -0.48848  -0.48787  -0.48338  -0.48187  -0.48029
 Alpha  occ. eigenvalues --   -0.47587  -0.47532  -0.47175  -0.47136  -0.46953
 Alpha  occ. eigenvalues --   -0.46578  -0.46279  -0.46126  -0.46048  -0.45973
 Alpha  occ. eigenvalues --   -0.45561  -0.45425  -0.45197  -0.45006  -0.44859
 Alpha  occ. eigenvalues --   -0.44718  -0.44417  -0.44309  -0.43715  -0.43620
 Alpha  occ. eigenvalues --   -0.43498  -0.43323  -0.43043  -0.42820  -0.42547
 Alpha  occ. eigenvalues --   -0.42173  -0.42139  -0.42057  -0.41924  -0.41727
 Alpha  occ. eigenvalues --   -0.41684  -0.41353  -0.41236  -0.41172  -0.41108
 Alpha  occ. eigenvalues --   -0.40897  -0.40845  -0.40707  -0.40567  -0.40150
 Alpha  occ. eigenvalues --   -0.40079  -0.39857  -0.39741  -0.39202  -0.38930
 Alpha  occ. eigenvalues --   -0.38724  -0.38709  -0.38518  -0.38491  -0.37988
 Alpha  occ. eigenvalues --   -0.37910  -0.37577  -0.37423  -0.37405  -0.37114
 Alpha  occ. eigenvalues --   -0.36867  -0.36479  -0.36310  -0.36175  -0.35753
 Alpha  occ. eigenvalues --   -0.34928  -0.34854  -0.34691  -0.34388  -0.34326
 Alpha  occ. eigenvalues --   -0.34252  -0.33985  -0.33525  -0.33295  -0.32872
 Alpha  occ. eigenvalues --   -0.32546  -0.32489  -0.32206  -0.32017  -0.31538
 Alpha  occ. eigenvalues --   -0.30940  -0.30748  -0.30624  -0.30029  -0.29703
 Alpha  occ. eigenvalues --   -0.28978  -0.28586  -0.28177  -0.28000  -0.27843
 Alpha  occ. eigenvalues --   -0.27650  -0.27204  -0.23033  -0.20927
 Alpha virt. eigenvalues --   -0.07924  -0.06475  -0.01000  -0.00733   0.01004
 Alpha virt. eigenvalues --    0.01909   0.02339   0.03282   0.03787   0.04814
 Alpha virt. eigenvalues --    0.05661   0.06526   0.07781   0.08851   0.09081

 Mulliken charges:
               1
     1  Mg   0.852548
     2  C    0.016115
     3  C   -0.189446
     4  C   -0.222629
     5  C   -0.181575
     6  N   -0.635968
     7  C    0.302856
     8  C   -0.105048
     9  C   -0.165335
    10  C    0.322242
    11  C   -0.304828
    12  C   -0.163192
    13  C   -0.262032
    14  C    0.587890
    15  O   -0.460779
    16  O   -0.494242
    17  N   -0.711793
    18  C    0.300407
    19  C    0.037735
    20  C   -0.036255
    21  C    0.288625
    22  C   -0.386449
    23  C    0.235487
    24  O   -0.407244
    25  N   -0.634161
    26  C    0.303929
    27  C   -0.011432
    28  C    0.021891
    29  C    0.231124
    30  C    0.248945
    31  C   -0.240568
    32  C   -0.322185
    33  N   -0.686797
    34  C    0.266909
    35  C    0.022111
    36  C    0.011398
    37  C    0.335994
    38  C   -0.398529
    39  C    0.350313
    40  O   -0.440450
    41  C   -0.307228
    42  C    0.633984
    43  O   -0.465892
    44  O   -0.446638
    45  C   -0.093231
    46  C    0.006529
    47  C   -0.147631
    48  C    0.185451
    49  C   -0.386619
    50  C   -0.225921
    51  C   -0.150625
    52  C   -0.141759
    53  C   -0.062719
    54  C   -0.286457
    55  C   -0.170981
    56  C   -0.164786
    57  C   -0.166387
    58  C   -0.047761
    59  C   -0.300221
    60  C   -0.147095
    61  C   -0.166781
    62  C   -0.150954
    63  C   -0.073639
    64  C   -0.270948
    65  C   -0.283067
    66  H    0.064252
    67  H    0.132420
    68  H    0.098717
    69  H    0.108963
    70  H    0.107821
    71  H    0.084173
    72  H    0.125967
    73  H    0.143700
    74  H    0.117557
    75  H    0.116312
    76  H    0.137565
    77  H    0.131999
    78  H    0.131504
    79  H    0.150237
    80  H    0.136912
    81  H    0.099977
    82  H    0.116710
    83  H    0.117969
    84  H    0.110969
    85  H    0.109765
    86  H    0.113714
    87  H    0.109278
    88  H    0.145801
    89  H    0.149152
    90  H    0.172890
    91  H    0.111382
    92  H    0.126044
    93  H    0.105470
    94  H    0.118386
    95  H    0.124212
    96  H    0.114908
    97  H    0.102277
    98  H    0.083303
    99  H    0.077483
   100  H    0.061652
   101  H    0.094247
   102  H    0.058837
   103  H    0.078991
   104  H    0.103345
   105  H    0.046914
   106  H    0.115238
   107  H    0.071253
   108  H    0.090860
   109  H    0.097549
   110  H    0.092607
   111  H    0.044652
   112  H    0.081814
   113  H    0.073857
   114  H    0.058747
   115  H    0.119434
   116  H    0.090216
   117  H    0.080381
   118  H    0.104088
   119  H    0.082882
   120  H    0.105048
   121  H    0.069762
   122  H    0.072292
   123  H    0.069082
   124  H    0.064048
   125  H    0.089748
   126  H    0.100059
   127  H    0.110252
   128  H    0.091652
   129  H    0.093764
   130  H    0.124087
   131  H    0.153364
   132  H    0.138342
   133  O   -0.436895
   134  H    0.065833
 Sum of Mulliken charges =  -0.00000

 Dipole moment (field-independent basis, Debye):
    X=              2.6317    Y=             -5.7448    Z=             -1.5827  Tot=              6.5141
 Quadrupole moment (field-independent basis, Debye-Ang):
   XX=           -377.7772   YY=           -430.8079   ZZ=           -397.2058
   XY=             13.5980   XZ=             28.8552   YZ=            -39.5295

 Normal termination of Gaussian 16 at Tue Oct  8 22:08:59 2019.
