 Gaussian 16, Revision A.03,
 Gaussian 16:  ES64L-G16RevA.03 25-Dec-2016

 ----------------------------------------------------------------------
 # td=(NStates=1) iop(3/107=0140000000,3/108=0140000000) iop(3/107=0140
 000000,3/108=0140000000) CAM-B3LYP/6-31G(d,p)
 ----------------------------------------------------------------------

 --
 TD
 --
 Symbolic Z-matrix:
 Charge =  0 Multiplicity = 1

                         Standard orientation:
 ---------------------------------------------------------------------
 Center     Atomic      Atomic             Coordinates (Angstroms)
 Number     Number       Type             X           Y           Z
 ---------------------------------------------------------------------
      1         12           0       -5.668666    1.268469    0.209827
      2          6           0       -5.043314   -2.109054   -0.299010
      3          6           0       -3.570713    1.178612    2.757487
      4          6           0       -6.297601    4.601506    0.684178
      5          6           0       -7.902241    1.172304   -2.522203
      6          7           0       -4.384712   -0.255057    0.954351
      7          6           0       -4.244333   -1.566613    0.588181
      8          6           0       -3.245499   -2.380418    1.426215
      9          6           0       -2.991572   -1.309429    2.640027
     10          6           0       -3.548384   -0.081140    2.049949
     11          6           0       -3.393825   -1.850005    4.120781
     12          6           0       -2.065693   -2.702963    0.594723
     13          6           0       -1.005603   -3.596946    1.384573
     14          6           0        0.231583   -3.840665    0.505956
     15          8           0        0.487267   -3.339660   -0.537100
     16          8           0        1.021151   -4.753866    1.205846
     17          7           0       -4.986874    2.660312    1.469309
     18          6           0       -4.066269    2.410104    2.481006
     19          6           0       -3.788500    3.684365    3.229768
     20          6           0       -4.558865    4.648271    2.621706
     21          6           0       -5.295345    4.047901    1.470123
     22          6           0       -2.836246    3.891984    4.389727
     23          6           0       -4.567289    5.997093    2.920367
     24          8           0       -4.079596    6.517383    3.905562
     25          7           0       -6.830294    2.639648   -0.665347
     26          6           0       -7.018033    3.892125   -0.364878
     27          6           0       -8.020286    4.635022   -1.159201
     28          6           0       -8.354234    3.586151   -2.149711
     29          6           0       -7.711314    2.399034   -1.728077
     30          6           0       -8.366473    6.044521   -1.208829
     31          6           0       -9.314907    3.801821   -3.290832
     32          6           0       -8.744919    4.097979   -4.668261
     33          7           0       -6.273398   -0.113927   -1.130255
     34          6           0       -7.355657   -0.061474   -2.140683
     35          6           0       -7.630522   -1.427619   -2.684386
     36          6           0       -6.746307   -2.188260   -1.983631
     37          6           0       -6.043336   -1.442874   -1.035625
     38          6           0       -8.548221   -1.721352   -3.781846
     39          6           0       -6.185904   -3.555286   -1.925025
     40          8           0       -6.568800   -4.484847   -2.652575
     41          6           0       -5.077421   -3.629254   -0.848801
     42          6           0       -5.421874   -4.622457    0.280393
     43          8           0       -5.831134   -4.483068    1.415439
     44          8           0       -5.275616   -5.831537   -0.309957
     45          6           0       -5.548598   -6.977139    0.682773
     46          6           0        2.337231   -4.997463    0.603042
     47          6           0        3.458289   -4.087411    1.006062
     48          6           0        4.145183   -3.314750    0.210621
     49          6           0        3.877038   -3.112039   -1.328390
     50          6           0        5.293974   -2.464018    0.687676
     51          6           0        6.623927   -2.746259   -0.048568
     52          6           0        7.745747   -1.912803    0.556262
     53          6           0        9.136720   -2.084272   -0.153237
     54          6           0        9.623026   -3.446745    0.033768
     55          6           0       10.091474   -1.039313    0.357113
     56          6           0       11.418496   -0.856348   -0.458989
     57          6           0       12.304998    0.301900    0.080276
     58          6           0       13.620485    0.475882   -0.688642
     59          6           0       14.537548   -0.777282   -0.378163
     60          6           0       14.255268    1.835722   -0.281242
     61          6           0       15.543620    2.126840   -0.878740
     62          6           0       16.047992    3.512527   -0.467816
     63          6           0       17.413392    3.953544   -1.214514
     64          6           0       17.205903    4.067165   -2.665859
     65          6           0       17.773646    5.372862   -0.624708
     66          1           0       -2.846918    1.280521    3.505576
     67          1           0       -6.684704    5.613789    0.757104
     68          1           0       -8.410731    1.163010   -3.455314
     69          1           0       -3.442194   -3.304021    1.967611
     70          1           0       -1.805319   -1.165748    2.543360
     71          1           0       -2.837156   -2.726106    4.235674
     72          1           0       -3.544375   -1.081839    4.947487
     73          1           0       -4.345645   -2.396367    4.088489
     74          1           0       -2.297320   -3.237759   -0.310942
     75          1           0       -1.599639   -1.792156    0.541106
     76          1           0       -0.526412   -2.958785    2.325262
     77          1           0       -1.384182   -4.518618    2.004743
     78          1           0       -1.718876    3.633617    4.084112
     79          1           0       -2.869691    4.864466    4.601094
     80          1           0       -2.964067    3.215218    5.189227
     81          1           0       -5.212804    6.629887    2.317567
     82          1           0      -10.143255    3.022316   -3.238027
     83          1           0      -10.008205    4.694407   -2.965327
     84          1           0       -9.405888    4.202115   -5.447927
     85          1           0       -8.284147    5.173961   -4.770588
     86          1           0       -7.950484    3.327472   -4.822092
     87          1           0       -8.092835   -1.254206   -4.726826
     88          1           0       -8.401311   -2.779142   -4.192363
     89          1           0       -9.766942   -1.303559   -3.764061
     90          1           0       -4.166783   -3.718797   -1.452271
     91          1           0        2.623800   -5.969344    0.910244
     92          1           0        2.077671   -4.985191   -0.485271
     93          1           0        3.925174   -4.446540    1.945964
     94          1           0        2.794866   -3.252548   -1.671465
     95          1           0        4.302024   -2.090161   -1.335853
     96          1           0        4.622102   -3.965370   -1.633353
     97          1           0        5.036426   -1.348418    0.433434
     98          1           0        5.390232   -2.392280    1.796103
     99          1           0        6.969216   -3.881009    0.009174
    100          1           0        6.437746   -2.629148   -1.066886
    101          1           0        7.522984   -0.795118    0.470286
    102          1           0        7.602753   -2.094838    1.756954
    103          1           0        8.505594   -1.779479   -1.058349
    104          1           0        9.007319   -4.274501   -0.435187
    105          1           0       10.510079   -3.664221   -0.538863
    106          1           0        9.865521   -3.662624    1.075168
    107          1           0        9.536464   -0.111365    0.338003
    108          1           0       10.397243   -1.167975    1.404779
    109          1           0       11.941947   -1.953302   -0.234300
    110          1           0       11.067798   -0.762226   -1.447264
    111          1           0       11.659406    1.315925   -0.128429
    112          1           0       12.464483    0.024259    1.003749
    113          1           0       13.362175    0.398378   -1.817352
    114          1           0       14.775476   -0.553166    0.788110
    115          1           0       14.150868   -1.877161   -0.571698
    116          1           0       15.370318   -0.401906   -1.043199
    117          1           0       13.434393    2.691997   -0.522514
    118          1           0       14.358300    1.837771    0.594371
    119          1           0       16.228224    1.254683   -0.789893
    120          1           0       15.402197    2.231953   -1.927953
    121          1           0       15.310120    4.280392   -0.742050
    122          1           0       16.188287    3.466552    0.484280
    123          1           0       18.232396    3.360993   -1.012715
    124          1           0       16.596556    4.933567   -3.044929
    125          1           0       18.089347    4.326588   -3.336414
    126          1           0       16.801910    3.225825   -3.015368
    127          1           0       18.142640    5.145729    0.339807
    128          1           0       18.693030    5.788805   -1.010058
    129          1           0       16.985136    5.992314   -0.881405
    130          1           0       -5.271064   -7.892711    0.091320
    131          1           0       -6.702853   -7.069202    0.967968
    132          1           0       -4.821334   -6.821248    1.492546
    133          8           0       -7.929636    6.858631   -0.450093
    134          1           0       -9.172697    6.377402   -1.942804
 ---------------------------------------------------------------------

 SCF Done:  E(RCAM-B3LYP) =  -3043.43383166     A.U. after   15 cycles

 Excitation energies and oscillator strengths:

 Excited State   1:      Singlet-A      2.1013 eV  590.04 nm  f=0.0946  <S**2>=0.000
     243 -> 246        0.34020
     244 -> 245        0.61127
 This state for optimization and/or second-order correction.
 Total Energy, E(TD-HF/TD-DFT) =  -3043.35661045
 Copying the excited state density for this state as the 1-particle RhoCI density.

 The electronic state is 1-A.
 Alpha  occ. eigenvalues --  -46.80572 -19.22745 -19.21243 -19.18584 -19.18250
 Alpha  occ. eigenvalues --  -19.16894 -19.16312 -19.16045 -14.39120 -14.36992
 Alpha  occ. eigenvalues --  -14.36918 -14.36654 -10.35993 -10.35433 -10.31459
 Alpha  occ. eigenvalues --  -10.29876 -10.29268 -10.28679 -10.28474 -10.26959
 Alpha  occ. eigenvalues --  -10.26759 -10.26580 -10.26568 -10.26498 -10.26345
 Alpha  occ. eigenvalues --  -10.26283 -10.26241 -10.26225 -10.26102 -10.25826
 Alpha  occ. eigenvalues --  -10.25495 -10.25452 -10.25369 -10.25352 -10.24346
 Alpha  occ. eigenvalues --  -10.24255 -10.24162 -10.23701 -10.23025 -10.22973
 Alpha  occ. eigenvalues --  -10.22887 -10.22859 -10.22776 -10.22702 -10.22684
 Alpha  occ. eigenvalues --  -10.22548 -10.22498 -10.22491 -10.22211 -10.22171
 Alpha  occ. eigenvalues --  -10.22142 -10.22051 -10.21988 -10.21894 -10.21446
 Alpha  occ. eigenvalues --  -10.21360 -10.20740 -10.20552 -10.20534 -10.20354
 Alpha  occ. eigenvalues --  -10.20292 -10.19638 -10.19572 -10.19287 -10.18891
 Alpha  occ. eigenvalues --  -10.18558  -3.09374  -1.84291  -1.83872  -1.83783
 Alpha  occ. eigenvalues --   -1.12923  -1.12891  -1.07574  -1.06291  -1.05607
 Alpha  occ. eigenvalues --   -1.05339  -1.04323  -1.00368  -1.00012  -0.98175
 Alpha  occ. eigenvalues --   -0.97360  -0.87932  -0.86628  -0.86162  -0.86039
 Alpha  occ. eigenvalues --   -0.85065  -0.84782  -0.84261  -0.83613  -0.83416
 Alpha  occ. eigenvalues --   -0.83237  -0.82235  -0.80969  -0.80522  -0.79615
 Alpha  occ. eigenvalues --   -0.78740  -0.78253  -0.77485  -0.76707  -0.76510
 Alpha  occ. eigenvalues --   -0.75549  -0.75373  -0.73965  -0.72678  -0.72595
 Alpha  occ. eigenvalues --   -0.71741  -0.71211  -0.70741  -0.70454  -0.69922
 Alpha  occ. eigenvalues --   -0.69362  -0.68775  -0.67850  -0.66614  -0.66170
 Alpha  occ. eigenvalues --   -0.65893  -0.64775  -0.63026  -0.62852  -0.61748
 Alpha  occ. eigenvalues --   -0.61552  -0.60483  -0.60408  -0.59943  -0.58867
 Alpha  occ. eigenvalues --   -0.58740  -0.58412  -0.58057  -0.57042  -0.56988
 Alpha  occ. eigenvalues --   -0.56251  -0.55458  -0.54877  -0.54804  -0.54278
 Alpha  occ. eigenvalues --   -0.53897  -0.53182  -0.53116  -0.52316  -0.52073
 Alpha  occ. eigenvalues --   -0.51549  -0.51397  -0.51248  -0.50920  -0.50844
 Alpha  occ. eigenvalues --   -0.50214  -0.49824  -0.49606  -0.49251  -0.49078
 Alpha  occ. eigenvalues --   -0.48579  -0.48506  -0.48237  -0.48078  -0.47934
 Alpha  occ. eigenvalues --   -0.47728  -0.47454  -0.47381  -0.46981  -0.46880
 Alpha  occ. eigenvalues --   -0.46706  -0.46416  -0.46318  -0.46228  -0.45900
 Alpha  occ. eigenvalues --   -0.45718  -0.45414  -0.45124  -0.45014  -0.44841
 Alpha  occ. eigenvalues --   -0.44639  -0.44553  -0.44332  -0.44179  -0.43947
 Alpha  occ. eigenvalues --   -0.43899  -0.43557  -0.43244  -0.43041  -0.42783
 Alpha  occ. eigenvalues --   -0.42776  -0.42456  -0.42263  -0.42009  -0.41708
 Alpha  occ. eigenvalues --   -0.41582  -0.41514  -0.41425  -0.41242  -0.40968
 Alpha  occ. eigenvalues --   -0.40805  -0.40501  -0.40380  -0.40218  -0.40044
 Alpha  occ. eigenvalues --   -0.39907  -0.39880  -0.39621  -0.39451  -0.39287
 Alpha  occ. eigenvalues --   -0.39158  -0.38883  -0.38810  -0.38427  -0.38250
 Alpha  occ. eigenvalues --   -0.38147  -0.37805  -0.37575  -0.37265  -0.36977
 Alpha  occ. eigenvalues --   -0.36786  -0.36422  -0.36261  -0.35656  -0.35457
 Alpha  occ. eigenvalues --   -0.35348  -0.35150  -0.34960  -0.34820  -0.34454
 Alpha  occ. eigenvalues --   -0.34260  -0.34038  -0.33887  -0.33569  -0.33299
 Alpha  occ. eigenvalues --   -0.32825  -0.32381  -0.32356  -0.32010  -0.31832
 Alpha  occ. eigenvalues --   -0.31715  -0.31496  -0.31144  -0.30102  -0.29737
 Alpha  occ. eigenvalues --   -0.28670  -0.27983  -0.27755  -0.27568  -0.27541
 Alpha  occ. eigenvalues --   -0.27255  -0.27070  -0.22974  -0.21711
 Alpha virt. eigenvalues --   -0.07915  -0.07143  -0.01930  -0.00364   0.00284
 Alpha virt. eigenvalues --    0.02661   0.03158   0.03826   0.04220   0.04412
 Alpha virt. eigenvalues --    0.05003   0.06389   0.07657   0.08129   0.08963

 Mulliken charges:
               1
     1  Mg   0.825769
     2  C    0.020526
     3  C   -0.201980
     4  C   -0.174517
     5  C   -0.160696
     6  N   -0.608567
     7  C    0.300050
     8  C   -0.158098
     9  C   -0.145128
    10  C    0.324927
    11  C   -0.325756
    12  C   -0.143971
    13  C   -0.295666
    14  C    0.627334
    15  O   -0.444550
    16  O   -0.494778
    17  N   -0.714287
    18  C    0.323333
    19  C    0.048595
    20  C    0.005202
    21  C    0.298726
    22  C   -0.370243
    23  C    0.212085
    24  O   -0.426077
    25  N   -0.683058
    26  C    0.306619
    27  C   -0.035293
    28  C    0.026564
    29  C    0.261513
    30  C    0.239031
    31  C   -0.260081
    32  C   -0.304015
    33  N   -0.684535
    34  C    0.207356
    35  C    0.085965
    36  C    0.036097
    37  C    0.326552
    38  C   -0.413673
    39  C    0.350917
    40  O   -0.464904
    41  C   -0.297695
    42  C    0.637678
    43  O   -0.470674
    44  O   -0.448162
    45  C   -0.094520
    46  C    0.006852
    47  C   -0.149938
    48  C    0.128843
    49  C   -0.348984
    50  C   -0.239792
    51  C   -0.171460
    52  C   -0.179098
    53  C   -0.037292
    54  C   -0.311907
    55  C   -0.174209
    56  C   -0.182117
    57  C   -0.126251
    58  C   -0.081246
    59  C   -0.300270
    60  C   -0.115224
    61  C   -0.206666
    62  C   -0.159255
    63  C   -0.076176
    64  C   -0.305483
    65  C   -0.309881
    66  H    0.070079
    67  H    0.138228
    68  H    0.107486
    69  H    0.112412
    70  H    0.092619
    71  H    0.125581
    72  H    0.127457
    73  H    0.135436
    74  H    0.125757
    75  H    0.125725
    76  H    0.118543
    77  H    0.126234
    78  H    0.104924
    79  H    0.165715
    80  H    0.132837
    81  H    0.077271
    82  H    0.109307
    83  H    0.095707
    84  H    0.125254
    85  H    0.101054
    86  H    0.109639
    87  H    0.129243
    88  H    0.152958
    89  H    0.113477
    90  H    0.175533
    91  H    0.112818
    92  H    0.110116
    93  H    0.076549
    94  H    0.146520
    95  H    0.113654
    96  H    0.119675
    97  H    0.094090
    98  H    0.100064
    99  H    0.083531
   100  H    0.107456
   101  H    0.079344
   102  H    0.055851
   103  H    0.089483
   104  H    0.092026
   105  H    0.104108
   106  H    0.110400
   107  H    0.082734
   108  H    0.086709
   109  H    0.059093
   110  H    0.097115
   111  H    0.060511
   112  H    0.093408
   113  H    0.069158
   114  H    0.075409
   115  H    0.108039
   116  H    0.104724
   117  H    0.064083
   118  H    0.091815
   119  H    0.091253
   120  H    0.099324
   121  H    0.089820
   122  H    0.097588
   123  H    0.091415
   124  H    0.086202
   125  H    0.086183
   126  H    0.110500
   127  H    0.100747
   128  H    0.091459
   129  H    0.108277
   130  H    0.131730
   131  H    0.137789
   132  H    0.139550
   133  O   -0.411935
   134  H    0.058781
 Sum of Mulliken charges =  -0.00000

 Dipole moment (field-independent basis, Debye):
    X=              3.0150    Y=             -6.1363    Z=             -1.0082  Tot=              6.9110
 Quadrupole moment (field-independent basis, Debye-Ang):
   XX=           -376.4504   YY=           -437.9147   ZZ=           -391.6991
   XY=             16.5712   XZ=             24.6616   YZ=            -37.3295

 Normal termination of Gaussian 16 at Thu Oct 10 11:23:48 2019.
