 Gaussian 16, Revision A.03,
 Gaussian 16:  ES64L-G16RevA.03 25-Dec-2016

 ----------------------------------------------------------------------
 # td=(NStates=1) iop(3/107=0140000000,3/108=0140000000) iop(3/107=0140
 000000,3/108=0140000000) CAM-B3LYP/6-31G(d,p)
 ----------------------------------------------------------------------

 --
 TD
 --
 Symbolic Z-matrix:
 Charge =  0 Multiplicity = 1

                         Standard orientation:
 ---------------------------------------------------------------------
 Center     Atomic      Atomic             Coordinates (Angstroms)
 Number     Number       Type             X           Y           Z
 ---------------------------------------------------------------------
      1         12           0       -5.639314    1.252824    0.185252
      2          6           0       -5.068458   -2.227911   -0.273139
      3          6           0       -3.317816    1.221724    2.738168
      4          6           0       -6.144234    4.647337    0.543771
      5          6           0       -8.008416    1.232782   -2.274236
      6          7           0       -4.367276   -0.237498    1.082870
      7          6           0       -4.319826   -1.577677    0.720030
      8          6           0       -3.281552   -2.312276    1.590935
      9          6           0       -2.956983   -1.309722    2.647388
     10          6           0       -3.591673    0.024983    2.146870
     11          6           0       -3.556593   -1.633053    3.945692
     12          6           0       -1.986416   -2.623240    0.790035
     13          6           0       -0.971629   -3.540222    1.397976
     14          6           0        0.171173   -3.822609    0.443652
     15          8           0        0.425232   -3.297053   -0.624236
     16          8           0        1.014469   -4.666670    1.133570
     17          7           0       -4.887555    2.665564    1.412376
     18          6           0       -3.929841    2.446654    2.375110
     19          6           0       -3.640245    3.722849    3.101396
     20          6           0       -4.435827    4.614165    2.548778
     21          6           0       -5.242518    4.076729    1.507247
     22          6           0       -2.776775    3.814216    4.338873
     23          6           0       -4.460298    6.131058    2.745272
     24          8           0       -3.811304    6.635636    3.688356
     25          7           0       -6.802237    2.679589   -0.750387
     26          6           0       -6.895236    3.975460   -0.466434
     27          6           0       -7.884126    4.613292   -1.320858
     28          6           0       -8.454586    3.592954   -2.180254
     29          6           0       -7.792861    2.413528   -1.720802
     30          6           0       -8.287895    6.017955   -1.223831
     31          6           0       -9.448456    3.742474   -3.252102
     32          6           0       -8.760480    3.865156   -4.636178
     33          7           0       -6.398950   -0.161924   -1.054600
     34          6           0       -7.380010   -0.047884   -2.056916
     35          6           0       -7.700102   -1.382952   -2.609598
     36          6           0       -6.703111   -2.201531   -2.011272
     37          6           0       -6.018521   -1.487654   -1.055091
     38          6           0       -8.786049   -1.723328   -3.568403
     39          6           0       -6.197676   -3.576677   -1.874280
     40          8           0       -6.577552   -4.533674   -2.452542
     41          6           0       -5.115496   -3.519227   -0.747821
     42          6           0       -5.337680   -4.699892    0.254632
     43          8           0       -5.685871   -4.543499    1.403950
     44          8           0       -5.084742   -5.875538   -0.332128
     45          6           0       -5.375763   -6.924485    0.679873
     46          6           0        2.216166   -5.044213    0.416730
     47          6           0        3.405961   -4.169400    0.911374
     48          6           0        3.930554   -3.205221    0.054135
     49          6           0        3.790282   -3.033680   -1.417000
     50          6           0        5.081015   -2.379109    0.670476
     51          6           0        6.461662   -2.732697    0.084398
     52          6           0        7.632160   -1.856883    0.584070
     53          6           0        8.965134   -2.032511   -0.195031
     54          6           0        9.435313   -3.469785    0.078566
     55          6           0       10.028352   -0.920981    0.361223
     56          6           0       11.312118   -0.832593   -0.501335
     57          6           0       12.221578    0.239502    0.174542
     58          6           0       13.555910    0.438134   -0.603504
     59          6           0       14.496681   -0.712456   -0.550046
     60          6           0       14.252476    1.756172   -0.106327
     61          6           0       15.446396    2.150796   -0.927418
     62          6           0       16.103579    3.552158   -0.618993
     63          6           0       17.492881    3.685031   -1.205939
     64          6           0       17.410492    3.880771   -2.733910
     65          6           0       18.157096    4.961894   -0.574423
     66          1           0       -2.552707    1.282202    3.476706
     67          1           0       -6.347515    5.764528    0.812119
     68          1           0       -8.848026    1.228152   -2.898536
     69          1           0       -3.641776   -3.340473    1.833001
     70          1           0       -1.979738   -1.132236    2.525469
     71          1           0       -3.200379   -2.489072    4.568586
     72          1           0       -3.494140   -0.832359    4.797283
     73          1           0       -4.638518   -1.714505    3.684186
     74          1           0       -2.204504   -3.443251   -0.064015
     75          1           0       -1.409985   -1.827039    0.306949
     76          1           0       -0.640859   -3.057389    2.354241
     77          1           0       -1.500345   -4.451203    1.831935
     78          1           0       -1.711277    3.254773    4.422699
     79          1           0       -2.716064    5.017354    4.529412
     80          1           0       -3.387931    3.281425    5.146639
     81          1           0       -5.071940    6.556099    2.088404
     82          1           0       -9.982345    2.822073   -3.182025
     83          1           0      -10.226967    4.482315   -2.943180
     84          1           0       -9.392362    4.225910   -5.370010
     85          1           0       -7.974907    4.670680   -4.665816
     86          1           0       -8.159687    2.805707   -4.817750
     87          1           0       -8.533406   -0.846888   -4.318611
     88          1           0       -8.658271   -2.705165   -3.981262
     89          1           0       -9.870391   -1.939333   -2.995983
     90          1           0       -4.157015   -3.680927   -1.221010
     91          1           0        2.174354   -6.105996    0.783865
     92          1           0        2.069131   -4.781990   -0.652822
     93          1           0        3.671974   -4.031465    2.067672
     94          1           0        2.725944   -3.027480   -1.697067
     95          1           0        4.028211   -1.985083   -1.973852
     96          1           0        4.239778   -3.856987   -1.652884
     97          1           0        5.014458   -1.271539    0.632615
     98          1           0        4.906744   -2.464166    1.750484
     99          1           0        6.672375   -3.795550    0.486816
    100          1           0        6.487843   -2.590955   -1.069162
    101          1           0        7.271125   -0.880577    0.515110
    102          1           0        7.685898   -2.108923    1.653532
    103          1           0        8.861791   -2.002007   -1.347827
    104          1           0        8.659421   -3.949011   -0.563893
    105          1           0       10.514726   -3.699953   -0.065767
    106          1           0        9.208054   -3.597875    1.334621
    107          1           0        9.428450   -0.030571    0.251236
    108          1           0       10.252017   -1.044572    1.466723
    109          1           0       11.843591   -1.914323   -0.556517
    110          1           0       11.011357   -0.210087   -1.501993
    111          1           0       11.537108    1.149559    0.415834
    112          1           0       12.502625   -0.112730    1.245705
    113          1           0       13.241116    0.603111   -1.674115
    114          1           0       14.747907   -0.880694    0.494502
    115          1           0       13.990713   -1.634473   -0.878411
    116          1           0       15.343386   -0.623321   -1.060952
    117          1           0       13.346514    2.516652    0.117828
    118          1           0       14.479764    1.728221    1.017132
    119          1           0       16.034136    1.385764   -0.743225
    120          1           0       15.446314    2.280643   -2.009570
    121          1           0       15.447662    4.253164   -1.038203
    122          1           0       16.127706    3.692203    0.462175
    123          1           0       18.072263    2.948856   -0.777445
    124          1           0       16.816887    4.696416   -3.249337
    125          1           0       18.302911    4.039391   -3.243322
    126          1           0       17.145517    3.111084   -3.196975
    127          1           0       18.113486    4.869371    0.550324
    128          1           0       19.225056    5.232406   -0.674322
    129          1           0       17.542741    5.790603   -0.908070
    130          1           0       -5.531110   -7.978289    0.118339
    131          1           0       -6.358296   -6.537188    1.442334
    132          1           0       -4.328798   -6.952874    1.363149
    133          8           0       -7.780873    6.909511   -0.540529
    134          1           0       -9.241779    6.248732   -1.696479
 ---------------------------------------------------------------------

 SCF Done:  E(RCAM-B3LYP) =  -3043.42888390     A.U. after   15 cycles

 Excitation energies and oscillator strengths:

 Excited State   1:      Singlet-A      2.1036 eV  589.38 nm  f=0.1724  <S**2>=0.000
     243 -> 246       -0.27210
     244 -> 245        0.63936
 This state for optimization and/or second-order correction.
 Total Energy, E(TD-HF/TD-DFT) =  -3043.35157694
 Copying the excited state density for this state as the 1-particle RhoCI density.

 The electronic state is 1-A.
 Alpha  occ. eigenvalues --  -46.80771 -19.24062 -19.21728 -19.18536 -19.18329
 Alpha  occ. eigenvalues --  -19.17870 -19.16661 -19.16652 -14.38691 -14.36873
 Alpha  occ. eigenvalues --  -14.36840 -14.36003 -10.35672 -10.35628 -10.31239
 Alpha  occ. eigenvalues --  -10.30843 -10.30661 -10.29838 -10.27783 -10.27360
 Alpha  occ. eigenvalues --  -10.27266 -10.27190 -10.27152 -10.26964 -10.26311
 Alpha  occ. eigenvalues --  -10.25450 -10.25353 -10.25258 -10.24816 -10.24696
 Alpha  occ. eigenvalues --  -10.24635 -10.24577 -10.24333 -10.24247 -10.24061
 Alpha  occ. eigenvalues --  -10.23979 -10.23973 -10.23952 -10.23759 -10.23639
 Alpha  occ. eigenvalues --  -10.23187 -10.23178 -10.23124 -10.23119 -10.22976
 Alpha  occ. eigenvalues --  -10.22860 -10.22637 -10.22587 -10.22503 -10.22457
 Alpha  occ. eigenvalues --  -10.22326 -10.21800 -10.21792 -10.21602 -10.21575
 Alpha  occ. eigenvalues --  -10.21485 -10.21298 -10.21175 -10.21077 -10.21065
 Alpha  occ. eigenvalues --  -10.20365 -10.19713 -10.19442 -10.19143 -10.18807
 Alpha  occ. eigenvalues --  -10.18354  -3.09358  -1.84304  -1.83826  -1.83766
 Alpha  occ. eigenvalues --   -1.14545  -1.12749  -1.08674  -1.05881  -1.05582
 Alpha  occ. eigenvalues --   -1.05570  -1.05175  -1.00059  -0.99690  -0.98202
 Alpha  occ. eigenvalues --   -0.97671  -0.89999  -0.86626  -0.86552  -0.85568
 Alpha  occ. eigenvalues --   -0.85070  -0.84349  -0.83837  -0.83608  -0.83317
 Alpha  occ. eigenvalues --   -0.83036  -0.82403  -0.82227  -0.79856  -0.79398
 Alpha  occ. eigenvalues --   -0.78647  -0.77959  -0.77567  -0.76619  -0.76160
 Alpha  occ. eigenvalues --   -0.75473  -0.74814  -0.73593  -0.72712  -0.72319
 Alpha  occ. eigenvalues --   -0.71651  -0.71068  -0.70482  -0.69512  -0.69104
 Alpha  occ. eigenvalues --   -0.68718  -0.68516  -0.67819  -0.67370  -0.66436
 Alpha  occ. eigenvalues --   -0.65016  -0.64202  -0.63661  -0.62580  -0.61742
 Alpha  occ. eigenvalues --   -0.61256  -0.60428  -0.60103  -0.59107  -0.58487
 Alpha  occ. eigenvalues --   -0.58268  -0.58033  -0.57996  -0.57486  -0.57222
 Alpha  occ. eigenvalues --   -0.56278  -0.55856  -0.55127  -0.55073  -0.54697
 Alpha  occ. eigenvalues --   -0.54175  -0.53816  -0.52723  -0.52665  -0.52440
 Alpha  occ. eigenvalues --   -0.51502  -0.51393  -0.51152  -0.50706  -0.50635
 Alpha  occ. eigenvalues --   -0.50421  -0.50091  -0.49901  -0.49832  -0.49021
 Alpha  occ. eigenvalues --   -0.48880  -0.48608  -0.48486  -0.48311  -0.47862
 Alpha  occ. eigenvalues --   -0.47656  -0.47399  -0.47248  -0.46961  -0.46788
 Alpha  occ. eigenvalues --   -0.46727  -0.46510  -0.46410  -0.46169  -0.46018
 Alpha  occ. eigenvalues --   -0.45428  -0.45221  -0.45037  -0.44874  -0.44673
 Alpha  occ. eigenvalues --   -0.44261  -0.44001  -0.43711  -0.43414  -0.43302
 Alpha  occ. eigenvalues --   -0.43254  -0.43152  -0.42648  -0.42541  -0.42447
 Alpha  occ. eigenvalues --   -0.42331  -0.41998  -0.41825  -0.41619  -0.41570
 Alpha  occ. eigenvalues --   -0.41483  -0.41349  -0.41186  -0.41074  -0.40823
 Alpha  occ. eigenvalues --   -0.40765  -0.40676  -0.40517  -0.40389  -0.40173
 Alpha  occ. eigenvalues --   -0.40067  -0.39790  -0.39575  -0.39357  -0.39063
 Alpha  occ. eigenvalues --   -0.39045  -0.38778  -0.38547  -0.38489  -0.38177
 Alpha  occ. eigenvalues --   -0.37887  -0.37310  -0.37079  -0.36921  -0.36855
 Alpha  occ. eigenvalues --   -0.36636  -0.36470  -0.36034  -0.35967  -0.35445
 Alpha  occ. eigenvalues --   -0.35385  -0.35093  -0.34821  -0.34335  -0.34322
 Alpha  occ. eigenvalues --   -0.34206  -0.33999  -0.33722  -0.33389  -0.33281
 Alpha  occ. eigenvalues --   -0.32987  -0.32271  -0.32098  -0.31865  -0.31544
 Alpha  occ. eigenvalues --   -0.31501  -0.31375  -0.31141  -0.29633  -0.29480
 Alpha  occ. eigenvalues --   -0.28652  -0.28283  -0.27739  -0.27541  -0.27392
 Alpha  occ. eigenvalues --   -0.26900  -0.26783  -0.22904  -0.21675
 Alpha virt. eigenvalues --   -0.08403  -0.06524  -0.01583  -0.00911   0.01103
 Alpha virt. eigenvalues --    0.02068   0.03360   0.03486   0.04017   0.04414
 Alpha virt. eigenvalues --    0.04972   0.05462   0.07640   0.08002   0.08724

 Mulliken charges:
               1
     1  Mg   0.810547
     2  C    0.179009
     3  C   -0.164576
     4  C   -0.195250
     5  C   -0.184963
     6  N   -0.641707
     7  C    0.309266
     8  C   -0.156081
     9  C   -0.111737
    10  C    0.324526
    11  C   -0.298636
    12  C   -0.193425
    13  C   -0.268906
    14  C    0.618914
    15  O   -0.462505
    16  O   -0.468767
    17  N   -0.715832
    18  C    0.317759
    19  C    0.056005
    20  C   -0.043546
    21  C    0.278307
    22  C   -0.398250
    23  C    0.305041
    24  O   -0.432545
    25  N   -0.702709
    26  C    0.349857
    27  C   -0.061598
    28  C    0.064734
    29  C    0.314646
    30  C    0.235626
    31  C   -0.256393
    32  C   -0.300589
    33  N   -0.731898
    34  C    0.252591
    35  C    0.013296
    36  C    0.013042
    37  C    0.270330
    38  C   -0.367615
    39  C    0.356236
    40  O   -0.433515
    41  C   -0.390755
    42  C    0.627790
    43  O   -0.474897
    44  O   -0.421962
    45  C   -0.090210
    46  C   -0.008177
    47  C   -0.130140
    48  C    0.103037
    49  C   -0.375267
    50  C   -0.220110
    51  C   -0.183631
    52  C   -0.166394
    53  C   -0.075596
    54  C   -0.273697
    55  C   -0.169467
    56  C   -0.166447
    57  C   -0.174441
    58  C   -0.041168
    59  C   -0.309650
    60  C   -0.181130
    61  C   -0.171056
    62  C   -0.179831
    63  C   -0.052041
    64  C   -0.325002
    65  C   -0.315494
    66  H    0.084683
    67  H    0.136785
    68  H    0.079362
    69  H    0.117924
    70  H    0.107563
    71  H    0.110972
    72  H    0.091481
    73  H    0.125220
    74  H    0.079164
    75  H    0.126208
    76  H    0.130178
    77  H    0.124767
    78  H    0.108168
    79  H    0.159436
    80  H    0.132414
    81  H    0.102522
    82  H    0.123817
    83  H    0.119070
    84  H    0.127609
    85  H    0.119847
    86  H    0.097289
    87  H    0.119990
    88  H    0.155677
    89  H    0.116259
    90  H    0.172397
    91  H    0.114128
    92  H    0.132140
    93  H    0.085039
    94  H    0.147915
    95  H    0.104308
    96  H    0.150376
    97  H    0.087358
    98  H    0.087010
    99  H    0.098213
   100  H    0.088707
   101  H    0.089870
   102  H    0.095288
   103  H    0.076292
   104  H    0.110030
   105  H    0.099245
   106  H    0.055498
   107  H    0.094719
   108  H    0.086358
   109  H    0.085575
   110  H    0.082580
   111  H    0.085954
   112  H    0.070404
   113  H    0.077350
   114  H    0.099112
   115  H    0.092381
   116  H    0.117979
   117  H    0.056897
   118  H    0.079854
   119  H    0.105084
   120  H    0.091862
   121  H    0.101344
   122  H    0.079946
   123  H    0.098471
   124  H    0.094758
   125  H    0.102295
   126  H    0.114875
   127  H    0.082403
   128  H    0.095318
   129  H    0.101604
   130  H    0.125743
   131  H    0.144889
   132  H    0.104863
   133  O   -0.436608
   134  H    0.060820
 Sum of Mulliken charges =  -0.00000

 Dipole moment (field-independent basis, Debye):
    X=              0.7348    Y=             -3.9090    Z=             -1.0604  Tot=              4.1164
 Quadrupole moment (field-independent basis, Debye-Ang):
   XX=           -364.6985   YY=           -441.5265   ZZ=           -391.1695
   XY=              2.4352   XZ=             13.7658   YZ=            -31.5736

 Normal termination of Gaussian 16 at Sat Oct  5 09:07:34 2019.
