 Gaussian 16, Revision A.03,
 Gaussian 16:  ES64L-G16RevA.03 25-Dec-2016

 ----------------------------------------------------------------------
 # td=(NStates=1) iop(3/107=0140000000,3/108=0140000000) iop(3/107=0140
 000000,3/108=0140000000) CAM-B3LYP/6-31G(d,p)
 ----------------------------------------------------------------------

 --
 TD
 --
 Symbolic Z-matrix:
 Charge =  0 Multiplicity = 1

                         Standard orientation:
 ---------------------------------------------------------------------
 Center     Atomic      Atomic             Coordinates (Angstroms)
 Number     Number       Type             X           Y           Z
 ---------------------------------------------------------------------
      1         12           0       -5.671763    1.273293    0.234627
      2          6           0       -5.067083   -2.044045   -0.245580
      3          6           0       -3.353324    1.257242    2.660625
      4          6           0       -6.249608    4.565336    0.659921
      5          6           0       -7.963301    1.180096   -2.457112
      6          7           0       -4.420360   -0.202549    1.014658
      7          6           0       -4.225056   -1.520355    0.642889
      8          6           0       -3.237322   -2.195761    1.477869
      9          6           0       -2.875117   -1.159820    2.565858
     10          6           0       -3.565219    0.005447    2.094857
     11          6           0       -3.451785   -1.720372    3.990796
     12          6           0       -1.957442   -2.717944    0.679121
     13          6           0       -0.999583   -3.505665    1.580427
     14          6           0        0.263885   -3.906059    0.633142
     15          8           0        0.525009   -3.465057   -0.412248
     16          8           0        1.061029   -4.767583    1.242385
     17          7           0       -4.932405    2.627655    1.498312
     18          6           0       -3.931152    2.448409    2.467425
     19          6           0       -3.655273    3.680984    3.082204
     20          6           0       -4.487092    4.676173    2.518238
     21          6           0       -5.320821    3.959691    1.608325
     22          6           0       -2.648462    3.956285    4.194910
     23          6           0       -4.492449    6.043548    2.911808
     24          8           0       -3.859660    6.606116    3.762184
     25          7           0       -6.910570    2.588206   -0.694130
     26          6           0       -7.003894    3.976221   -0.356195
     27          6           0       -8.018728    4.577280   -1.252648
     28          6           0       -8.461161    3.600330   -2.087249
     29          6           0       -7.818724    2.359877   -1.715670
     30          6           0       -8.390032    5.986945   -1.193839
     31          6           0       -9.465488    3.764718   -3.233848
     32          6           0       -8.956147    3.873105   -4.716549
     33          7           0       -6.475496   -0.112975   -1.037191
     34          6           0       -7.359811   -0.015215   -2.045630
     35          6           0       -7.637780   -1.402382   -2.634421
     36          6           0       -6.638882   -2.199577   -1.996111
     37          6           0       -5.997950   -1.399126   -1.028759
     38          6           0       -8.539997   -1.752839   -3.812424
     39          6           0       -6.215679   -3.547762   -1.960548
     40          8           0       -6.701731   -4.569683   -2.467440
     41          6           0       -5.025749   -3.609090   -0.810678
     42          6           0       -5.370531   -4.631292    0.147770
     43          8           0       -5.749034   -4.469870    1.330197
     44          8           0       -5.069753   -5.872551   -0.311167
     45          6           0       -5.547433   -6.929302    0.496149
     46          6           0        2.424352   -5.106768    0.728988
     47          6           0        3.384103   -4.088503    1.105838
     48          6           0        4.016267   -3.270747    0.147940
     49          6           0        3.617851   -3.099552   -1.312838
     50          6           0        5.201288   -2.445656    0.643823
     51          6           0        6.593208   -2.778280    0.040275
     52          6           0        7.623091   -1.747270    0.595355
     53          6           0        9.027298   -2.025499   -0.133325
     54          6           0        9.521832   -3.424852    0.005007
     55          6           0       10.027746   -1.008700    0.334858
     56          6           0       11.414638   -0.873375   -0.364977
     57          6           0       12.264196    0.193256    0.219590
     58          6           0       13.635080    0.482053   -0.652720
     59          6           0       14.589521   -0.635266   -0.515308
     60          6           0       14.109886    1.853314   -0.274604
     61          6           0       15.480447    2.184667   -1.109959
     62          6           0       16.053567    3.452371   -0.689401
     63          6           0       17.474626    3.845715   -1.237841
     64          6           0       17.315792    3.904357   -2.840061
     65          6           0       17.900483    5.233943   -0.586058
     66          1           0       -2.789544    1.323083    3.617704
     67          1           0       -6.362770    5.631421    0.767942
     68          1           0       -8.679468    1.020867   -3.310651
     69          1           0       -3.747089   -3.123528    1.988297
     70          1           0       -1.709268   -1.168816    2.736263
     71          1           0       -3.094062   -2.624164    4.064570
     72          1           0       -3.349844   -1.192616    4.900976
     73          1           0       -4.602849   -1.749729    4.060240
     74          1           0       -1.983379   -3.217427   -0.307519
     75          1           0       -1.500515   -1.741126    0.443802
     76          1           0       -0.553068   -2.720398    2.510148
     77          1           0       -1.323277   -4.378697    2.190823
     78          1           0       -1.727284    3.417708    3.790527
     79          1           0       -2.544082    4.938862    4.553152
     80          1           0       -3.097376    3.195495    4.904201
     81          1           0       -5.225152    6.626104    2.306144
     82          1           0      -10.090578    2.678466   -3.241052
     83          1           0      -10.049648    4.595369   -2.722722
     84          1           0       -9.565607    3.897364   -5.645063
     85          1           0       -8.178120    4.691307   -4.926029
     86          1           0       -8.519277    2.964146   -4.918552
     87          1           0       -7.967940   -1.673152   -4.962503
     88          1           0       -8.817576   -2.937421   -3.524797
     89          1           0       -9.597098   -1.249539   -3.740116
     90          1           0       -4.066218   -3.752641   -1.408595
     91          1           0        2.655050   -6.108378    1.176703
     92          1           0        2.328956   -4.946213   -0.462651
     93          1           0        3.811166   -4.059006    2.266713
     94          1           0        2.510880   -3.528515   -1.483577
     95          1           0        3.643619   -2.115515   -1.665147
     96          1           0        4.358449   -3.797664   -1.847307
     97          1           0        4.948620   -1.594543    0.151175
     98          1           0        5.304961   -2.476525    1.723027
     99          1           0        6.900178   -3.804669    0.243477
    100          1           0        6.658570   -2.595823   -1.032876
    101          1           0        7.437985   -0.729470    0.584063
    102          1           0        7.885577   -1.679787    1.700848
    103          1           0        8.762160   -1.976828   -1.190238
    104          1           0        8.883294   -4.196879   -0.164893
    105          1           0       10.241699   -3.688423   -0.674259
    106          1           0        9.652845   -3.671855    1.057514
    107          1           0        9.605024    0.011195    0.275943
    108          1           0       10.104010   -0.966099    1.449097
    109          1           0       11.995565   -1.886927   -0.077779
    110          1           0       11.370808   -0.737695   -1.440134
    111          1           0       11.710195    1.180544    0.294898
    112          1           0       12.538454    0.007866    1.366369
    113          1           0       13.378504    0.668665   -1.724890
    114          1           0       14.929502   -0.784985    0.430884
    115          1           0       13.983292   -1.629009   -0.774518
    116          1           0       15.541630   -0.463100   -1.223590
    117          1           0       13.454953    2.577624   -0.605973
    118          1           0       14.340545    1.649467    0.833197
    119          1           0       16.227024    1.401551   -1.059663
    120          1           0       15.150851    2.375482   -2.096025
    121          1           0       15.386840    4.336274   -0.668963
    122          1           0       16.221173    3.365725    0.633408
    123          1           0       18.369070    3.012346   -0.966902
    124          1           0       16.535126    4.717555   -2.932484
    125          1           0       18.343194    4.300153   -3.202782
    126          1           0       17.240271    3.027372   -3.310888
    127          1           0       17.681436    5.020329    0.495219
    128          1           0       19.119301    5.414980   -0.847601
    129          1           0       17.334686    6.142621   -1.004993
    130          1           0       -5.158290   -8.020063    0.306591
    131          1           0       -6.589356   -6.983303    0.369112
    132          1           0       -5.113988   -6.796404    1.587041
    133          8           0       -7.986190    6.908094   -0.495829
    134          1           0       -9.133610    6.237688   -1.903986
 ---------------------------------------------------------------------

 SCF Done:  E(RCAM-B3LYP) =  -3043.43926735     A.U. after   16 cycles

 Excitation energies and oscillator strengths:

 Excited State   1:      Singlet-A      1.9213 eV  645.32 nm  f=0.2186  <S**2>=0.000
     243 -> 246       -0.22977
     244 -> 245        0.65430
 This state for optimization and/or second-order correction.
 Total Energy, E(TD-HF/TD-DFT) =  -3043.36866147
 Copying the excited state density for this state as the 1-particle RhoCI density.

 The electronic state is 1-A.
 Alpha  occ. eigenvalues --  -46.80678 -19.22468 -19.20639 -19.17753 -19.17360
 Alpha  occ. eigenvalues --  -19.17131 -19.16656 -19.16584 -14.39494 -14.37268
 Alpha  occ. eigenvalues --  -14.36949 -14.36549 -10.35215 -10.34675 -10.32040
 Alpha  occ. eigenvalues --  -10.29997 -10.29323 -10.28595 -10.27665 -10.27585
 Alpha  occ. eigenvalues --  -10.27021 -10.27009 -10.27008 -10.26876 -10.26835
 Alpha  occ. eigenvalues --  -10.26696 -10.26648 -10.26363 -10.26313 -10.26184
 Alpha  occ. eigenvalues --  -10.26130 -10.25644 -10.25587 -10.25044 -10.24851
 Alpha  occ. eigenvalues --  -10.24760 -10.24457 -10.24454 -10.24216 -10.23991
 Alpha  occ. eigenvalues --  -10.23879 -10.23838 -10.23484 -10.22998 -10.22793
 Alpha  occ. eigenvalues --  -10.22787 -10.22787 -10.22723 -10.22643 -10.22389
 Alpha  occ. eigenvalues --  -10.22234 -10.22217 -10.22160 -10.22020 -10.21816
 Alpha  occ. eigenvalues --  -10.21704 -10.21534 -10.21434 -10.21179 -10.21147
 Alpha  occ. eigenvalues --  -10.20986 -10.20873 -10.20724 -10.20494 -10.20249
 Alpha  occ. eigenvalues --  -10.18232  -3.09442  -1.84370  -1.83927  -1.83855
 Alpha  occ. eigenvalues --   -1.14282  -1.13236  -1.07246  -1.06518  -1.06174
 Alpha  occ. eigenvalues --   -1.05177  -1.02984  -1.01042  -0.99945  -0.98831
 Alpha  occ. eigenvalues --   -0.97860  -0.88543  -0.86142  -0.85427  -0.85383
 Alpha  occ. eigenvalues --   -0.85241  -0.84582  -0.84403  -0.83778  -0.83107
 Alpha  occ. eigenvalues --   -0.82694  -0.82333  -0.81117  -0.80495  -0.79646
 Alpha  occ. eigenvalues --   -0.78898  -0.78388  -0.77846  -0.77479  -0.76417
 Alpha  occ. eigenvalues --   -0.75781  -0.75231  -0.74135  -0.72659  -0.72424
 Alpha  occ. eigenvalues --   -0.72071  -0.70833  -0.70711  -0.70388  -0.70148
 Alpha  occ. eigenvalues --   -0.68908  -0.68869  -0.67676  -0.67350  -0.66641
 Alpha  occ. eigenvalues --   -0.65720  -0.65046  -0.64061  -0.62656  -0.62528
 Alpha  occ. eigenvalues --   -0.61782  -0.60667  -0.60588  -0.59666  -0.58529
 Alpha  occ. eigenvalues --   -0.58096  -0.57864  -0.57440  -0.57288  -0.56234
 Alpha  occ. eigenvalues --   -0.56002  -0.55847  -0.54986  -0.54590  -0.54346
 Alpha  occ. eigenvalues --   -0.53995  -0.53622  -0.52800  -0.52340  -0.52041
 Alpha  occ. eigenvalues --   -0.51864  -0.51359  -0.51314  -0.50952  -0.50712
 Alpha  occ. eigenvalues --   -0.50205  -0.50008  -0.49760  -0.49454  -0.48768
 Alpha  occ. eigenvalues --   -0.48376  -0.48151  -0.48070  -0.47825  -0.47461
 Alpha  occ. eigenvalues --   -0.47207  -0.47148  -0.47093  -0.46936  -0.46761
 Alpha  occ. eigenvalues --   -0.46545  -0.46315  -0.46181  -0.46097  -0.46002
 Alpha  occ. eigenvalues --   -0.45950  -0.45670  -0.45649  -0.45433  -0.44757
 Alpha  occ. eigenvalues --   -0.44460  -0.44386  -0.44294  -0.44134  -0.43829
 Alpha  occ. eigenvalues --   -0.43604  -0.43402  -0.43216  -0.43182  -0.42932
 Alpha  occ. eigenvalues --   -0.42595  -0.42368  -0.42297  -0.41985  -0.41818
 Alpha  occ. eigenvalues --   -0.41633  -0.41583  -0.41386  -0.41289  -0.41001
 Alpha  occ. eigenvalues --   -0.40873  -0.40736  -0.40450  -0.40044  -0.39974
 Alpha  occ. eigenvalues --   -0.39848  -0.39441  -0.39326  -0.39151  -0.39124
 Alpha  occ. eigenvalues --   -0.38993  -0.38705  -0.38629  -0.38284  -0.37993
 Alpha  occ. eigenvalues --   -0.37719  -0.37663  -0.37217  -0.37115  -0.36826
 Alpha  occ. eigenvalues --   -0.36708  -0.36180  -0.36013  -0.35910  -0.35843
 Alpha  occ. eigenvalues --   -0.35582  -0.35481  -0.35331  -0.35243  -0.34974
 Alpha  occ. eigenvalues --   -0.34854  -0.34623  -0.34103  -0.33216  -0.32868
 Alpha  occ. eigenvalues --   -0.32740  -0.32477  -0.32144  -0.31645  -0.31619
 Alpha  occ. eigenvalues --   -0.30813  -0.30757  -0.30439  -0.30139  -0.29272
 Alpha  occ. eigenvalues --   -0.28989  -0.28523  -0.28002  -0.27886  -0.27518
 Alpha  occ. eigenvalues --   -0.27243  -0.26358  -0.23414  -0.21503
 Alpha virt. eigenvalues --   -0.09204  -0.06870  -0.02487  -0.00815   0.00060
 Alpha virt. eigenvalues --    0.01736   0.02102   0.03602   0.04058   0.04225
 Alpha virt. eigenvalues --    0.04702   0.06028   0.07234   0.08338   0.09003

 Mulliken charges:
               1
     1  Mg   0.821862
     2  C    0.024865
     3  C   -0.202829
     4  C   -0.183259
     5  C   -0.160071
     6  N   -0.634739
     7  C    0.337787
     8  C   -0.187351
     9  C   -0.159913
    10  C    0.367983
    11  C   -0.323733
    12  C   -0.175984
    13  C   -0.254506
    14  C    0.586586
    15  O   -0.437427
    16  O   -0.470730
    17  N   -0.716700
    18  C    0.349362
    19  C    0.008344
    20  C    0.000925
    21  C    0.279488
    22  C   -0.356571
    23  C    0.242639
    24  O   -0.423179
    25  N   -0.694184
    26  C    0.290619
    27  C    0.011386
    28  C    0.008643
    29  C    0.307554
    30  C    0.254297
    31  C   -0.227891
    32  C   -0.314639
    33  N   -0.709610
    34  C    0.277539
    35  C    0.018567
    36  C    0.071035
    37  C    0.320032
    38  C   -0.367388
    39  C    0.318179
    40  O   -0.460419
    41  C   -0.330567
    42  C    0.657528
    43  O   -0.495548
    44  O   -0.435590
    45  C   -0.079208
    46  C   -0.010164
    47  C   -0.114318
    48  C    0.106731
    49  C   -0.380108
    50  C   -0.200578
    51  C   -0.188607
    52  C   -0.185873
    53  C   -0.052496
    54  C   -0.308654
    55  C   -0.184254
    56  C   -0.157300
    57  C   -0.181093
    58  C   -0.051436
    59  C   -0.293094
    60  C   -0.157857
    61  C   -0.186440
    62  C   -0.137275
    63  C   -0.050264
    64  C   -0.304469
    65  C   -0.291150
    66  H    0.074184
    67  H    0.125747
    68  H    0.098224
    69  H    0.139634
    70  H    0.110048
    71  H    0.127548
    72  H    0.116581
    73  H    0.115392
    74  H    0.127846
    75  H    0.123820
    76  H    0.088096
    77  H    0.136321
    78  H    0.118061
    79  H    0.166440
    80  H    0.121854
    81  H    0.057039
    82  H    0.082820
    83  H    0.110780
    84  H    0.118054
    85  H    0.109972
    86  H    0.123102
    87  H    0.120724
    88  H    0.134392
    89  H    0.119549
    90  H    0.164638
    91  H    0.126104
    92  H    0.107542
    93  H    0.065661
    94  H    0.146089
    95  H    0.128564
    96  H    0.119877
    97  H    0.107296
    98  H    0.105067
    99  H    0.108640
   100  H    0.100881
   101  H    0.101794
   102  H    0.072273
   103  H    0.078334
   104  H    0.099054
   105  H    0.109632
   106  H    0.094130
   107  H    0.080352
   108  H    0.085637
   109  H    0.079733
   110  H    0.099193
   111  H    0.077780
   112  H    0.071333
   113  H    0.070949
   114  H    0.114697
   115  H    0.086574
   116  H    0.083484
   117  H    0.100992
   118  H    0.083062
   119  H    0.099994
   120  H    0.100517
   121  H    0.091695
   122  H    0.011345
   123  H    0.056193
   124  H    0.098134
   125  H    0.083916
   126  H    0.120777
   127  H    0.112636
   128  H    0.072546
   129  H    0.098625
   130  H    0.107280
   131  H    0.139683
   132  H    0.115126
   133  O   -0.427263
   134  H    0.058722
 Sum of Mulliken charges =  -0.00000

 Dipole moment (field-independent basis, Debye):
    X=              2.6516    Y=             -5.2144    Z=             -2.2630  Tot=              6.2723
 Quadrupole moment (field-independent basis, Debye-Ang):
   XX=           -400.5517   YY=           -450.9369   ZZ=           -388.5769
   XY=              4.9725   XZ=             17.6642   YZ=            -32.5955

 Normal termination of Gaussian 16 at Wed Oct  9 05:23:01 2019.
