 Gaussian 16, Revision A.03,
 Gaussian 16:  ES64L-G16RevA.03 25-Dec-2016

 ----------------------------------------------------------------------
 # td=(NStates=1) iop(3/107=0140000000,3/108=0140000000) iop(3/107=0140
 000000,3/108=0140000000) CAM-B3LYP/6-31G(d,p)
 ----------------------------------------------------------------------

 --
 TD
 --
 Symbolic Z-matrix:
 Charge =  0 Multiplicity = 1

                         Standard orientation:
 ---------------------------------------------------------------------
 Center     Atomic      Atomic             Coordinates (Angstroms)
 Number     Number       Type             X           Y           Z
 ---------------------------------------------------------------------
      1         12           0       -5.549747    1.293857    0.196558
      2          6           0       -4.936129   -2.153243   -0.381431
      3          6           0       -3.366146    1.277849    2.776789
      4          6           0       -6.148675    4.533551    0.636019
      5          6           0       -8.051545    1.171151   -2.366666
      6          7           0       -4.330704   -0.248339    1.017406
      7          6           0       -4.220877   -1.693718    0.656506
      8          6           0       -3.082505   -2.452192    1.490523
      9          6           0       -2.831861   -1.329127    2.577515
     10          6           0       -3.513859   -0.067574    2.127632
     11          6           0       -3.395942   -1.838071    3.950506
     12          6           0       -1.941016   -2.720967    0.630021
     13          6           0       -0.959666   -3.534810    1.419436
     14          6           0        0.228186   -3.866106    0.599755
     15          8           0        0.496260   -3.408945   -0.465720
     16          8           0        0.994073   -4.761268    1.215741
     17          7           0       -4.810549    2.637375    1.475615
     18          6           0       -3.926737    2.444719    2.442365
     19          6           0       -3.729581    3.651636    3.211067
     20          6           0       -4.461681    4.647497    2.603464
     21          6           0       -5.246334    3.936653    1.500074
     22          6           0       -2.707359    3.743085    4.322373
     23          6           0       -4.693644    6.005675    3.008063
     24          8           0       -3.991365    6.485825    3.804760
     25          7           0       -6.921283    2.631843   -0.740346
     26          6           0       -6.956278    3.835177   -0.343301
     27          6           0       -7.964760    4.617364   -1.224026
     28          6           0       -8.370440    3.632259   -2.134242
     29          6           0       -7.716443    2.395089   -1.776512
     30          6           0       -8.277665    6.042758   -1.088377
     31          6           0       -9.533362    3.859713   -3.155244
     32          6           0       -8.917717    4.132765   -4.532712
     33          7           0       -6.234263   -0.092553   -1.196063
     34          6           0       -7.354647   -0.006001   -2.031346
     35          6           0       -7.587295   -1.391930   -2.579595
     36          6           0       -6.722299   -2.233102   -2.001704
     37          6           0       -5.881354   -1.320534   -1.190670
     38          6           0       -8.566795   -1.681737   -3.733548
     39          6           0       -6.214621   -3.545942   -2.004440
     40          8           0       -6.631776   -4.543991   -2.615452
     41          6           0       -5.120862   -3.621373   -0.944880
     42          6           0       -5.233708   -4.640677    0.144724
     43          8           0       -5.510293   -4.556149    1.297252
     44          8           0       -4.864916   -5.816895   -0.314924
     45          6           0       -5.138782   -6.901333    0.619411
     46          6           0        2.311063   -5.122519    0.647202
     47          6           0        3.331248   -4.087029    0.982451
     48          6           0        3.921488   -3.248066    0.133204
     49          6           0        3.536116   -3.120554   -1.301281
     50          6           0        5.038043   -2.289644    0.631715
     51          6           0        6.383907   -2.701732    0.012927
     52          6           0        7.482642   -1.772193    0.470197
     53          6           0        8.910892   -1.970643   -0.168990
     54          6           0        9.482174   -3.410920    0.073253
     55          6           0        9.910718   -0.895277    0.352911
     56          6           0       11.238926   -0.781811   -0.415594
     57          6           0       12.209196    0.304664    0.143014
     58          6           0       13.528262    0.445973   -0.629837
     59          6           0       14.425716   -0.740656   -0.394130
     60          6           0       14.115094    1.758365   -0.157284
     61          6           0       15.497662    2.163238   -0.886790
     62          6           0       16.003268    3.486415   -0.619708
     63          6           0       17.350271    3.897311   -1.305116
     64          6           0       17.124700    4.058365   -2.850284
     65          6           0       17.851840    5.180595   -0.687074
     66          1           0       -2.656993    1.262820    3.553289
     67          1           0       -6.218519    5.547565    0.757575
     68          1           0       -8.895344    1.161362   -3.192743
     69          1           0       -3.309518   -3.291138    2.008592
     70          1           0       -1.665263   -1.221764    2.568771
     71          1           0       -2.914228   -2.633570    4.422249
     72          1           0       -3.368276   -0.994516    4.842046
     73          1           0       -4.439066   -2.193472    3.766400
     74          1           0       -2.229864   -3.251742   -0.353214
     75          1           0       -1.372577   -1.833985    0.244402
     76          1           0       -0.522929   -3.055693    2.302692
     77          1           0       -1.262819   -4.448430    1.871733
     78          1           0       -1.662596    2.786366    4.307836
     79          1           0       -2.178208    4.798125    4.449141
     80          1           0       -3.507452    3.465801    5.344229
     81          1           0       -5.415413    6.762864    2.375262
     82          1           0      -10.158594    2.744923   -3.116246
     83          1           0      -10.134104    4.704049   -2.875983
     84          1           0       -9.605205    4.588335   -5.331589
     85          1           0       -8.133696    4.890423   -4.477449
     86          1           0       -8.469377    3.332201   -5.010093
     87          1           0       -8.681440   -1.003437   -4.565464
     88          1           0       -8.574133   -2.717071   -3.897574
     89          1           0       -9.755481   -1.572048   -3.266601
     90          1           0       -4.117518   -3.776543   -1.438641
     91          1           0        2.604538   -5.977723    1.400766
     92          1           0        2.095390   -5.338737   -0.509285
     93          1           0        3.750917   -4.131600    1.936867
     94          1           0        2.457185   -3.227339   -1.346296
     95          1           0        3.472909   -1.924014   -1.565270
     96          1           0        4.013197   -3.704063   -2.108933
     97          1           0        4.935954   -1.306822    0.461954
     98          1           0        5.170179   -2.473181    1.739823
     99          1           0        6.555776   -3.717881    0.471037
    100          1           0        6.329909   -2.943218   -1.146022
    101          1           0        7.295935   -0.687114    0.244282
    102          1           0        7.459113   -1.867877    1.608674
    103          1           0        8.935602   -1.756905   -1.174359
    104          1           0        8.823150   -4.138586   -0.331123
    105          1           0       10.416563   -3.661685   -0.306399
    106          1           0        9.410508   -3.482868    1.191729
    107          1           0        9.550639    0.098147    0.405905
    108          1           0       10.215154   -1.111995    1.287595
    109          1           0       11.897141   -1.740003   -0.317490
    110          1           0       10.998431   -1.050808   -1.451740
    111          1           0       11.794435    1.218342    0.111530
    112          1           0       12.456832    0.284570    1.124244
    113          1           0       13.185447    0.661096   -1.856757
    114          1           0       14.705782   -0.672693    0.685388
    115          1           0       13.948446   -1.567794   -0.752373
    116          1           0       15.423457   -0.663291   -0.938065
    117          1           0       13.414041    2.497979   -0.600694
    118          1           0       14.221932    1.685671    1.078806
    119          1           0       16.305976    1.442222   -0.812928
    120          1           0       15.314387    2.055804   -1.986537
    121          1           0       15.287324    4.160786   -0.931400
    122          1           0       16.111972    3.608698    0.641534
    123          1           0       18.229402    3.211679   -1.100318
    124          1           0       16.292796    4.707585   -2.976584
    125          1           0       18.058304    4.318119   -3.193100
    126          1           0       16.950539    3.007436   -3.252405
    127          1           0       18.142902    5.195321    0.437040
    128          1           0       18.653503    5.597952   -1.419630
    129          1           0       17.178011    6.171897   -0.635357
    130          1           0       -4.701047   -7.901677    0.131330
    131          1           0       -6.200200   -7.233469    0.882706
    132          1           0       -4.622385   -6.727571    1.543882
    133          8           0       -7.755957    6.885467   -0.430938
    134          1           0       -9.170047    6.242945   -1.691367
 ---------------------------------------------------------------------

 SCF Done:  E(RCAM-B3LYP) =  -3043.44400013     A.U. after   16 cycles

 Excitation energies and oscillator strengths:

 Excited State   1:      Singlet-A      2.0777 eV  596.74 nm  f=0.1886  <S**2>=0.000
     243 -> 246       -0.21904
     244 -> 245        0.66548
 This state for optimization and/or second-order correction.
 Total Energy, E(TD-HF/TD-DFT) =  -3043.36764673
 Copying the excited state density for this state as the 1-particle RhoCI density.

 The electronic state is 1-A.
 Alpha  occ. eigenvalues --  -46.82679 -19.22782 -19.21528 -19.17241 -19.17143
 Alpha  occ. eigenvalues --  -19.16946 -19.16859 -19.16570 -14.39836 -14.37888
 Alpha  occ. eigenvalues --  -14.37106 -14.36602 -10.35062 -10.34169 -10.31171
 Alpha  occ. eigenvalues --  -10.30591 -10.29664 -10.29631 -10.29552 -10.28314
 Alpha  occ. eigenvalues --  -10.27964 -10.27677 -10.26680 -10.26616 -10.26591
 Alpha  occ. eigenvalues --  -10.26429 -10.26296 -10.26128 -10.25941 -10.25742
 Alpha  occ. eigenvalues --  -10.25624 -10.25506 -10.25440 -10.25415 -10.24522
 Alpha  occ. eigenvalues --  -10.24470 -10.24029 -10.23711 -10.23640 -10.23607
 Alpha  occ. eigenvalues --  -10.23578 -10.23308 -10.23271 -10.22495 -10.22457
 Alpha  occ. eigenvalues --  -10.22438 -10.22367 -10.22311 -10.22203 -10.22059
 Alpha  occ. eigenvalues --  -10.21968 -10.21753 -10.21753 -10.21492 -10.21419
 Alpha  occ. eigenvalues --  -10.21217 -10.21129 -10.21127 -10.20913 -10.20789
 Alpha  occ. eigenvalues --  -10.20218 -10.20084 -10.19839 -10.19502 -10.19216
 Alpha  occ. eigenvalues --  -10.18882  -3.11134  -1.86081  -1.85611  -1.85532
 Alpha  occ. eigenvalues --   -1.15836  -1.13950  -1.10219  -1.08000  -1.05489
 Alpha  occ. eigenvalues --   -1.05244  -1.05180  -1.02542  -1.01296  -1.00761
 Alpha  occ. eigenvalues --   -0.96821  -0.88218  -0.87575  -0.86057  -0.85631
 Alpha  occ. eigenvalues --   -0.85385  -0.84182  -0.84026  -0.83821  -0.83407
 Alpha  occ. eigenvalues --   -0.83284  -0.82851  -0.82018  -0.80592  -0.79861
 Alpha  occ. eigenvalues --   -0.78445  -0.78072  -0.77717  -0.77362  -0.76689
 Alpha  occ. eigenvalues --   -0.75554  -0.74164  -0.73804  -0.72961  -0.71908
 Alpha  occ. eigenvalues --   -0.71801  -0.71038  -0.70661  -0.69935  -0.69470
 Alpha  occ. eigenvalues --   -0.69181  -0.68758  -0.67531  -0.66773  -0.66186
 Alpha  occ. eigenvalues --   -0.65833  -0.64796  -0.64700  -0.62663  -0.62050
 Alpha  occ. eigenvalues --   -0.61973  -0.61154  -0.60950  -0.59460  -0.59388
 Alpha  occ. eigenvalues --   -0.58588  -0.58253  -0.57168  -0.56817  -0.56562
 Alpha  occ. eigenvalues --   -0.56259  -0.56206  -0.55768  -0.55439  -0.54738
 Alpha  occ. eigenvalues --   -0.54594  -0.53554  -0.53052  -0.52429  -0.52227
 Alpha  occ. eigenvalues --   -0.51576  -0.51246  -0.51230  -0.50992  -0.50709
 Alpha  occ. eigenvalues --   -0.50626  -0.49926  -0.49892  -0.49582  -0.49366
 Alpha  occ. eigenvalues --   -0.49014  -0.48362  -0.48257  -0.48013  -0.47903
 Alpha  occ. eigenvalues --   -0.47683  -0.47497  -0.47288  -0.47084  -0.47006
 Alpha  occ. eigenvalues --   -0.46930  -0.46653  -0.46330  -0.46070  -0.45762
 Alpha  occ. eigenvalues --   -0.45642  -0.45502  -0.45370  -0.45216  -0.45080
 Alpha  occ. eigenvalues --   -0.44973  -0.44793  -0.44652  -0.44345  -0.43932
 Alpha  occ. eigenvalues --   -0.43632  -0.43547  -0.43344  -0.43167  -0.42779
 Alpha  occ. eigenvalues --   -0.42604  -0.42543  -0.42279  -0.42148  -0.42063
 Alpha  occ. eigenvalues --   -0.41959  -0.41768  -0.41388  -0.41247  -0.40844
 Alpha  occ. eigenvalues --   -0.40588  -0.40304  -0.40167  -0.40112  -0.39717
 Alpha  occ. eigenvalues --   -0.39651  -0.39584  -0.39443  -0.39183  -0.39084
 Alpha  occ. eigenvalues --   -0.38889  -0.38667  -0.38443  -0.38297  -0.38134
 Alpha  occ. eigenvalues --   -0.38001  -0.37841  -0.37519  -0.37400  -0.37220
 Alpha  occ. eigenvalues --   -0.36866  -0.36059  -0.35939  -0.35644  -0.35313
 Alpha  occ. eigenvalues --   -0.35176  -0.35107  -0.34851  -0.34673  -0.34434
 Alpha  occ. eigenvalues --   -0.34142  -0.34062  -0.33740  -0.33688  -0.33390
 Alpha  occ. eigenvalues --   -0.33275  -0.32595  -0.32285  -0.31933  -0.31866
 Alpha  occ. eigenvalues --   -0.31461  -0.31201  -0.30588  -0.30243  -0.29880
 Alpha  occ. eigenvalues --   -0.29185  -0.28611  -0.28252  -0.28044  -0.27881
 Alpha  occ. eigenvalues --   -0.27767  -0.27509  -0.23425  -0.21181
 Alpha virt. eigenvalues --   -0.07871  -0.06243  -0.01983  -0.00288   0.00156
 Alpha virt. eigenvalues --    0.03001   0.03290   0.03519   0.03756   0.04289
 Alpha virt. eigenvalues --    0.05206   0.06043   0.06671   0.07613   0.08708

 Mulliken charges:
               1
     1  Mg   0.833940
     2  C    0.034095
     3  C   -0.206171
     4  C   -0.140136
     5  C   -0.145299
     6  N   -0.619137
     7  C    0.234199
     8  C   -0.101551
     9  C   -0.162370
    10  C    0.366366
    11  C   -0.319831
    12  C   -0.170522
    13  C   -0.280287
    14  C    0.600602
    15  O   -0.464562
    16  O   -0.475382
    17  N   -0.752971
    18  C    0.397976
    19  C    0.057895
    20  C   -0.018913
    21  C    0.301764
    22  C   -0.323084
    23  C    0.214002
    24  O   -0.373556
    25  N   -0.672084
    26  C    0.302096
    27  C   -0.050908
    28  C   -0.005301
    29  C    0.293008
    30  C    0.261175
    31  C   -0.216900
    32  C   -0.320145
    33  N   -0.684048
    34  C    0.232302
    35  C    0.007338
    36  C    0.073718
    37  C    0.295457
    38  C   -0.373013
    39  C    0.353329
    40  O   -0.476381
    41  C   -0.308980
    42  C    0.626482
    43  O   -0.470118
    44  O   -0.421569
    45  C   -0.093475
    46  C   -0.000005
    47  C   -0.125848
    48  C    0.156011
    49  C   -0.402489
    50  C   -0.220071
    51  C   -0.175928
    52  C   -0.167345
    53  C   -0.073247
    54  C   -0.316340
    55  C   -0.167936
    56  C   -0.202348
    57  C   -0.155439
    58  C   -0.057559
    59  C   -0.289015
    60  C   -0.157811
    61  C   -0.187111
    62  C   -0.126571
    63  C   -0.064888
    64  C   -0.306113
    65  C   -0.296609
    66  H    0.067082
    67  H    0.106926
    68  H    0.110650
    69  H    0.125690
    70  H    0.100759
    71  H    0.126285
    72  H    0.090243
    73  H    0.135950
    74  H    0.112205
    75  H    0.128169
    76  H    0.141906
    77  H    0.141374
    78  H    0.067107
    79  H    0.156635
    80  H    0.100565
    81  H    0.066952
    82  H    0.074395
    83  H    0.124923
    84  H    0.096576
    85  H    0.120228
    86  H    0.122880
    87  H    0.137860
    88  H    0.156020
    89  H    0.078137
    90  H    0.170765
    91  H    0.111718
    92  H    0.125952
    93  H    0.081616
    94  H    0.164025
    95  H    0.081200
    96  H    0.122707
    97  H    0.112360
    98  H    0.084664
    99  H    0.093926
   100  H    0.083882
   101  H    0.087273
   102  H    0.083040
   103  H    0.091153
   104  H    0.104244
   105  H    0.109369
   106  H    0.094473
   107  H    0.087877
   108  H    0.098622
   109  H    0.069418
   110  H    0.090655
   111  H    0.094787
   112  H    0.095229
   113  H    0.037241
   114  H    0.095758
   115  H    0.113922
   116  H    0.092725
   117  H    0.098194
   118  H    0.060906
   119  H    0.089297
   120  H    0.081792
   121  H    0.094759
   122  H    0.041526
   123  H    0.085998
   124  H    0.115241
   125  H    0.112534
   126  H    0.097523
   127  H    0.098724
   128  H    0.080033
   129  H    0.073003
   130  H    0.104709
   131  H    0.132496
   132  H    0.136044
   133  O   -0.413958
   134  H    0.040679
 Sum of Mulliken charges =  -0.00000

 Dipole moment (field-independent basis, Debye):
    X=              2.5027    Y=             -4.4007    Z=              0.4353  Tot=              5.0812
 Quadrupole moment (field-independent basis, Debye-Ang):
   XX=           -393.2656   YY=           -440.1484   ZZ=           -392.1383
   XY=              3.1267   XZ=             10.2632   YZ=            -33.3441

 Normal termination of Gaussian 16 at Mon Oct  7 13:01:55 2019.
