 Gaussian 16, Revision A.03,
 Gaussian 16:  ES64L-G16RevA.03 25-Dec-2016

 ----------------------------------------------------------------------
 # td=(NStates=1) iop(3/107=0140000000,3/108=0140000000) iop(3/107=0140
 000000,3/108=0140000000) CAM-B3LYP/6-31G(d,p)
 ----------------------------------------------------------------------

 --
 TD
 --
 Symbolic Z-matrix:
 Charge =  0 Multiplicity = 1

                         Standard orientation:
 ---------------------------------------------------------------------
 Center     Atomic      Atomic             Coordinates (Angstroms)
 Number     Number       Type             X           Y           Z
 ---------------------------------------------------------------------
      1         12           0       -5.604435    1.182149    0.242938
      2          6           0       -4.966326   -2.152773   -0.360801
      3          6           0       -3.388579    1.067267    2.820714
      4          6           0       -6.134251    4.475043    0.707898
      5          6           0       -7.958174    1.197973   -2.371415
      6          7           0       -4.381936   -0.335462    1.105508
      7          6           0       -4.243301   -1.687066    0.679770
      8          6           0       -3.258496   -2.418675    1.432212
      9          6           0       -2.924301   -1.386530    2.582734
     10          6           0       -3.585189   -0.083567    2.161791
     11          6           0       -3.518724   -1.719993    3.955453
     12          6           0       -2.060830   -2.766448    0.624400
     13          6           0       -1.044113   -3.555535    1.401238
     14          6           0        0.174428   -3.968963    0.632983
     15          8           0        0.520437   -3.392172   -0.527249
     16          8           0        1.018158   -4.861430    1.196595
     17          7           0       -4.870495    2.538153    1.504014
     18          6           0       -3.977810    2.447380    2.450133
     19          6           0       -3.696681    3.675680    3.153014
     20          6           0       -4.469673    4.601225    2.613912
     21          6           0       -5.178430    3.973208    1.575364
     22          6           0       -2.614585    3.855561    4.382204
     23          6           0       -4.539206    6.075907    2.915929
     24          8           0       -3.885007    6.755529    3.769996
     25          7           0       -6.782068    2.591917   -0.676227
     26          6           0       -6.784157    3.879420   -0.371849
     27          6           0       -7.781483    4.636671   -1.215229
     28          6           0       -8.372891    3.693091   -2.092299
     29          6           0       -7.720106    2.384611   -1.617342
     30          6           0       -8.014496    5.983500   -1.295946
     31          6           0       -9.402805    3.930476   -3.073480
     32          6           0       -8.791757    4.265258   -4.403552
     33          7           0       -6.283555   -0.120131   -1.127420
     34          6           0       -7.300125    0.016504   -2.086133
     35          6           0       -7.519078   -1.247528   -2.666037
     36          6           0       -6.649543   -2.176656   -2.050506
     37          6           0       -5.929281   -1.380954   -1.141614
     38          6           0       -8.407948   -1.659791   -3.836135
     39          6           0       -6.222307   -3.526067   -1.990979
     40          8           0       -6.672161   -4.501297   -2.642198
     41          6           0       -5.045467   -3.555760   -0.980883
     42          6           0       -5.346211   -4.687677    0.085617
     43          8           0       -5.903755   -4.575247    1.162878
     44          8           0       -4.924425   -5.833908   -0.361359
     45          6           0       -5.287758   -6.978903    0.460902
     46          6           0        2.275841   -5.080863    0.530285
     47          6           0        3.316234   -4.103261    0.896761
     48          6           0        3.893866   -3.163789    0.027065
     49          6           0        3.609964   -2.909608   -1.401993
     50          6           0        5.140686   -2.445120    0.542943
     51          6           0        6.481722   -2.707179    0.021834
     52          6           0        7.501344   -1.865544    0.477246
     53          6           0        8.935466   -1.993953   -0.046554
     54          6           0        9.548424   -3.409638    0.467469
     55          6           0        9.926697   -0.942457    0.480257
     56          6           0       11.207803   -0.814422   -0.249349
     57          6           0       12.153021    0.374070    0.301439
     58          6           0       13.390132    0.539246   -0.492011
     59          6           0       14.317924   -0.698258   -0.250941
     60          6           0       14.039690    1.823816   -0.226662
     61          6           0       15.352852    2.055707   -0.899714
     62          6           0       16.028450    3.428396   -0.672917
     63          6           0       17.357040    3.739002   -1.435743
     64          6           0       17.031577    3.924392   -2.992436
     65          6           0       17.955482    5.189958   -0.931623
     66          1           0       -2.750272    1.081062    3.803339
     67          1           0       -6.396649    5.574342    0.994358
     68          1           0       -8.805966    1.222828   -3.084348
     69          1           0       -3.572963   -3.166866    2.183947
     70          1           0       -1.846752   -1.342469    2.747927
     71          1           0       -3.190423   -2.600901    4.229874
     72          1           0       -3.300474   -0.908445    4.854994
     73          1           0       -4.563659   -1.821612    3.756839
     74          1           0       -2.301017   -3.383862   -0.224891
     75          1           0       -1.601200   -1.844309    0.261530
     76          1           0       -0.766287   -2.965347    2.167430
     77          1           0       -1.402534   -4.500201    1.601936
     78          1           0       -1.558790    3.772715    4.049174
     79          1           0       -3.005918    4.623226    4.838724
     80          1           0       -2.784586    3.064290    5.203387
     81          1           0       -5.270944    6.781759    2.253446
     82          1           0      -10.131100    3.072182   -3.268098
     83          1           0       -9.978919    4.845937   -2.697348
     84          1           0       -9.454566    4.355961   -5.239010
     85          1           0       -8.345837    5.404184   -4.314013
     86          1           0       -8.186000    3.470861   -4.543778
     87          1           0       -8.348119   -1.174053   -4.712456
     88          1           0       -8.231234   -2.667142   -4.066162
     89          1           0       -9.539065   -1.298363   -3.618001
     90          1           0       -4.089928   -3.986129   -1.395388
     91          1           0        2.543669   -6.033508    0.829632
     92          1           0        2.094399   -4.997864   -0.375352
     93          1           0        3.848601   -4.198940    1.893197
     94          1           0        2.624536   -3.346710   -1.732783
     95          1           0        3.537369   -1.734597   -1.691761
     96          1           0        4.361213   -3.525727   -2.006733
     97          1           0        4.835229   -1.345584    0.369841
     98          1           0        5.082800   -2.687456    1.782982
     99          1           0        6.897048   -3.781767    0.294497
    100          1           0        6.374889   -2.834468   -1.063159
    101          1           0        7.206557   -0.636399    0.473064
    102          1           0        7.562349   -2.011222    1.740069
    103          1           0        8.848847   -1.955893   -1.221580
    104          1           0        8.968868   -4.159842   -0.010308
    105          1           0       10.643887   -3.561953   -0.004712
    106          1           0        9.722989   -3.499292    1.600351
    107          1           0        9.358806   -0.045147    0.551384
    108          1           0       10.311728   -1.244637    1.513804
    109          1           0       11.819706   -1.672414   -0.054403
    110          1           0       11.043443   -0.704494   -1.291220
    111          1           0       11.520922    1.313325    0.164529
    112          1           0       12.458517    0.038122    1.280314
    113          1           0       12.842319    0.517511   -1.544149
    114          1           0       14.637771   -0.851095    0.695898
    115          1           0       13.670902   -1.723314   -0.513900
    116          1           0       15.287964   -0.686946   -0.668684
    117          1           0       13.347864    2.664759   -0.605212
    118          1           0       14.186337    1.879191    0.847890
    119          1           0       16.164774    1.411449   -0.517301
    120          1           0       15.402090    1.736986   -1.918537
    121          1           0       15.438556    4.173910   -0.681866
    122          1           0       16.176802    3.361729    0.609817
    123          1           0       18.224651    3.174968   -1.132419
    124          1           0       16.217425    4.721017   -3.178607
    125          1           0       18.008111    4.140696   -3.433661
    126          1           0       16.416312    3.172094   -3.463020
    127          1           0       18.339438    5.055937    0.103964
    128          1           0       18.756792    5.486257   -1.453347
    129          1           0       17.215212    5.965249   -0.949573
    130          1           0       -5.155004   -7.841203   -0.155306
    131          1           0       -6.438024   -6.900680    0.842012
    132          1           0       -4.637612   -6.770702    1.516412
    133          8           0       -7.542545    6.924360   -0.490881
    134          1           0       -8.779243    6.416906   -2.008636
 ---------------------------------------------------------------------

 SCF Done:  E(RCAM-B3LYP) =  -3043.39508602     A.U. after   16 cycles

 Excitation energies and oscillator strengths:

 Excited State   1:      Singlet-A      2.0935 eV  592.25 nm  f=0.1629  <S**2>=0.000
     243 -> 245       -0.27498
     243 -> 246       -0.27803
     244 -> 245        0.56443
     244 -> 246       -0.11282
 This state for optimization and/or second-order correction.
 Total Energy, E(TD-HF/TD-DFT) =  -3043.31815308
 Copying the excited state density for this state as the 1-particle RhoCI density.

 The electronic state is 1-A.
 Alpha  occ. eigenvalues --  -46.81699 -19.23383 -19.23034 -19.18431 -19.16541
 Alpha  occ. eigenvalues --  -19.16396 -19.15932 -19.15844 -14.38795 -14.38060
 Alpha  occ. eigenvalues --  -14.37962 -14.36819 -10.35715 -10.34761 -10.32827
 Alpha  occ. eigenvalues --  -10.31070 -10.29893 -10.29771 -10.27858 -10.27707
 Alpha  occ. eigenvalues --  -10.27656 -10.27106 -10.27076 -10.26456 -10.26234
 Alpha  occ. eigenvalues --  -10.26184 -10.26014 -10.25950 -10.25578 -10.25503
 Alpha  occ. eigenvalues --  -10.25349 -10.25327 -10.24820 -10.24588 -10.24422
 Alpha  occ. eigenvalues --  -10.24045 -10.23722 -10.23714 -10.23616 -10.23580
 Alpha  occ. eigenvalues --  -10.23306 -10.23259 -10.23242 -10.23199 -10.23034
 Alpha  occ. eigenvalues --  -10.22948 -10.22894 -10.22687 -10.22641 -10.22536
 Alpha  occ. eigenvalues --  -10.22275 -10.22096 -10.21817 -10.21789 -10.21747
 Alpha  occ. eigenvalues --  -10.21668 -10.21596 -10.21077 -10.20859 -10.20615
 Alpha  occ. eigenvalues --  -10.20572 -10.20273 -10.20256 -10.19893 -10.19720
 Alpha  occ. eigenvalues --  -10.19158  -3.10410  -1.85340  -1.84872  -1.84846
 Alpha  occ. eigenvalues --   -1.15232  -1.12509  -1.04645  -1.04471  -1.04218
 Alpha  occ. eigenvalues --   -1.02279  -1.01134  -1.01031  -1.00312  -0.99085
 Alpha  occ. eigenvalues --   -0.98891  -0.88716  -0.87613  -0.87383  -0.86690
 Alpha  occ. eigenvalues --   -0.86094  -0.85524  -0.84824  -0.84319  -0.84011
 Alpha  occ. eigenvalues --   -0.83184  -0.82896  -0.82256  -0.81271  -0.80685
 Alpha  occ. eigenvalues --   -0.80438  -0.78834  -0.78089  -0.77446  -0.77026
 Alpha  occ. eigenvalues --   -0.75373  -0.75175  -0.74729  -0.73441  -0.72367
 Alpha  occ. eigenvalues --   -0.71328  -0.70779  -0.70647  -0.70417  -0.70165
 Alpha  occ. eigenvalues --   -0.69829  -0.69264  -0.67759  -0.67508  -0.67119
 Alpha  occ. eigenvalues --   -0.66877  -0.65443  -0.64401  -0.62880  -0.62459
 Alpha  occ. eigenvalues --   -0.61999  -0.60805  -0.60475  -0.59830  -0.59594
 Alpha  occ. eigenvalues --   -0.58718  -0.58228  -0.58181  -0.57928  -0.57170
 Alpha  occ. eigenvalues --   -0.56739  -0.56067  -0.55757  -0.55474  -0.55006
 Alpha  occ. eigenvalues --   -0.54694  -0.53657  -0.53399  -0.53075  -0.52935
 Alpha  occ. eigenvalues --   -0.52522  -0.51877  -0.51842  -0.51450  -0.51123
 Alpha  occ. eigenvalues --   -0.50399  -0.50051  -0.49851  -0.49536  -0.49233
 Alpha  occ. eigenvalues --   -0.49022  -0.48688  -0.48631  -0.48434  -0.48082
 Alpha  occ. eigenvalues --   -0.47913  -0.47792  -0.47640  -0.47097  -0.46747
 Alpha  occ. eigenvalues --   -0.46655  -0.46522  -0.46382  -0.46292  -0.45956
 Alpha  occ. eigenvalues --   -0.45779  -0.45628  -0.45454  -0.45355  -0.45261
 Alpha  occ. eigenvalues --   -0.45181  -0.44651  -0.44569  -0.44286  -0.44192
 Alpha  occ. eigenvalues --   -0.43560  -0.43085  -0.42955  -0.42775  -0.42658
 Alpha  occ. eigenvalues --   -0.42635  -0.42366  -0.42083  -0.41901  -0.41773
 Alpha  occ. eigenvalues --   -0.41363  -0.41308  -0.41213  -0.40799  -0.40652
 Alpha  occ. eigenvalues --   -0.40243  -0.40152  -0.40106  -0.40056  -0.39859
 Alpha  occ. eigenvalues --   -0.39786  -0.39526  -0.39501  -0.39362  -0.39081
 Alpha  occ. eigenvalues --   -0.38890  -0.38802  -0.38599  -0.38546  -0.38462
 Alpha  occ. eigenvalues --   -0.38270  -0.38174  -0.38029  -0.37991  -0.37556
 Alpha  occ. eigenvalues --   -0.36895  -0.36842  -0.36082  -0.36072  -0.35768
 Alpha  occ. eigenvalues --   -0.35629  -0.35332  -0.34872  -0.34600  -0.34245
 Alpha  occ. eigenvalues --   -0.34240  -0.33760  -0.33341  -0.33258  -0.32812
 Alpha  occ. eigenvalues --   -0.32516  -0.32337  -0.31924  -0.31622  -0.31449
 Alpha  occ. eigenvalues --   -0.31274  -0.31035  -0.30515  -0.30040  -0.29335
 Alpha  occ. eigenvalues --   -0.28956  -0.28818  -0.28402  -0.28139  -0.27733
 Alpha  occ. eigenvalues --   -0.26885  -0.26749  -0.22869  -0.22667
 Alpha virt. eigenvalues --   -0.09281  -0.07136  -0.02683  -0.01488   0.00131
 Alpha virt. eigenvalues --    0.01430   0.02473   0.03136   0.04079   0.04184
 Alpha virt. eigenvalues --    0.04976   0.05286   0.07474   0.08024   0.08901

 Mulliken charges:
               1
     1  Mg   0.828511
     2  C    0.094840
     3  C   -0.220692
     4  C   -0.185101
     5  C   -0.142172
     6  N   -0.667919
     7  C    0.313927
     8  C   -0.149234
     9  C   -0.195234
    10  C    0.424016
    11  C   -0.303621
    12  C   -0.171088
    13  C   -0.236936
    14  C    0.563672
    15  O   -0.525558
    16  O   -0.461346
    17  N   -0.669100
    18  C    0.317150
    19  C   -0.024843
    20  C    0.066181
    21  C    0.231020
    22  C   -0.338243
    23  C    0.233549
    24  O   -0.420327
    25  N   -0.662145
    26  C    0.313769
    27  C    0.046706
    28  C    0.071009
    29  C    0.246473
    30  C    0.156218
    31  C   -0.288160
    32  C   -0.289377
    33  N   -0.747444
    34  C    0.290450
    35  C   -0.003968
    36  C    0.073552
    37  C    0.297023
    38  C   -0.373334
    39  C    0.359686
    40  O   -0.496301
    41  C   -0.334321
    42  C    0.600643
    43  O   -0.486068
    44  O   -0.412168
    45  C   -0.082610
    46  C    0.065349
    47  C   -0.156312
    48  C    0.144877
    49  C   -0.376761
    50  C   -0.203287
    51  C   -0.142941
    52  C   -0.125776
    53  C   -0.052042
    54  C   -0.317201
    55  C   -0.147142
    56  C   -0.188998
    57  C   -0.170698
    58  C   -0.030267
    59  C   -0.328437
    60  C   -0.147244
    61  C   -0.188977
    62  C   -0.135777
    63  C   -0.068453
    64  C   -0.309930
    65  C   -0.330852
    66  H    0.078882
    67  H    0.141834
    68  H    0.102393
    69  H    0.124461
    70  H    0.099848
    71  H    0.117176
    72  H    0.095072
    73  H    0.129116
    74  H    0.116141
    75  H    0.132564
    76  H    0.147002
    77  H    0.138924
    78  H    0.141457
    79  H    0.155631
    80  H    0.103684
    81  H    0.098225
    82  H    0.112891
    83  H    0.116984
    84  H    0.117510
    85  H    0.095191
    86  H    0.123313
    87  H    0.139123
    88  H    0.156483
    89  H    0.094854
    90  H    0.158143
    91  H    0.116847
    92  H    0.114490
    93  H    0.078552
    94  H    0.150037
    95  H    0.103951
    96  H    0.117274
    97  H    0.092287
    98  H    0.059344
    99  H    0.088208
   100  H    0.095854
   101  H    0.047177
   102  H    0.052524
   103  H    0.070727
   104  H    0.107439
   105  H    0.080668
   106  H    0.107277
   107  H    0.083891
   108  H    0.078841
   109  H    0.097876
   110  H    0.088421
   111  H    0.081442
   112  H    0.087743
   113  H    0.063644
   114  H    0.113502
   115  H    0.076226
   116  H    0.107013
   117  H    0.078873
   118  H    0.090488
   119  H    0.090797
   120  H    0.093682
   121  H    0.099551
   122  H    0.023562
   123  H    0.097869
   124  H    0.091429
   125  H    0.108670
   126  H    0.106870
   127  H    0.093399
   128  H    0.108510
   129  H    0.105025
   130  H    0.140558
   131  H    0.134589
   132  H    0.108946
   133  O   -0.478413
   134  H    0.077220
 Sum of Mulliken charges =  -0.00000

 Dipole moment (field-independent basis, Debye):
    X=              1.5437    Y=             -4.7807    Z=             -1.0171  Tot=              5.1257
 Quadrupole moment (field-independent basis, Debye-Ang):
   XX=           -366.9735   YY=           -443.5509   ZZ=           -390.5533
   XY=             -0.3130   XZ=             20.8762   YZ=            -34.5498

 Normal termination of Gaussian 16 at Sat Oct  5 09:27:32 2019.
