 Gaussian 16, Revision A.03,
 Gaussian 16:  ES64L-G16RevA.03 25-Dec-2016

 ----------------------------------------------------------------------
 # td=(NStates=1) iop(3/107=0140000000,3/108=0140000000) iop(3/107=0140
 000000,3/108=0140000000) CAM-B3LYP/6-31G(d,p)
 ----------------------------------------------------------------------

 --
 TD
 --
 Symbolic Z-matrix:
 Charge =  0 Multiplicity = 1

                         Standard orientation:
 ---------------------------------------------------------------------
 Center     Atomic      Atomic             Coordinates (Angstroms)
 Number     Number       Type             X           Y           Z
 ---------------------------------------------------------------------
      1         12           0       -5.577277    1.169417    0.174483
      2          6           0       -5.102444   -2.187313   -0.316461
      3          6           0       -3.316254    1.135750    2.635516
      4          6           0       -6.191053    4.603609    0.692856
      5          6           0       -7.940497    1.163209   -2.244359
      6          7           0       -4.397777   -0.274963    0.960843
      7          6           0       -4.334862   -1.592865    0.671038
      8          6           0       -3.216035   -2.321969    1.471538
      9          6           0       -2.886063   -1.291825    2.605860
     10          6           0       -3.494432   -0.039180    1.965457
     11          6           0       -3.390094   -1.707938    3.942064
     12          6           0       -2.009917   -2.586323    0.617840
     13          6           0       -0.973666   -3.485030    1.310971
     14          6           0        0.260429   -3.884541    0.507337
     15          8           0        0.489522   -3.377475   -0.584774
     16          8           0        1.040960   -4.667559    1.158209
     17          7           0       -4.950970    2.639357    1.465186
     18          6           0       -3.993214    2.393084    2.435094
     19          6           0       -3.667180    3.691049    3.074059
     20          6           0       -4.432226    4.624291    2.496714
     21          6           0       -5.274207    3.927702    1.529902
     22          6           0       -2.648747    3.811385    4.270812
     23          6           0       -4.525308    6.154238    2.822969
     24          8           0       -3.894084    6.614325    3.758725
     25          7           0       -6.909112    2.709142   -0.674083
     26          6           0       -7.050948    3.949606   -0.282448
     27          6           0       -8.014821    4.621547   -1.194222
     28          6           0       -8.399050    3.600500   -2.113374
     29          6           0       -7.839661    2.450901   -1.716630
     30          6           0       -8.265724    6.050510   -1.171130
     31          6           0       -9.497759    3.908012   -3.070542
     32          6           0       -8.700751    4.027163   -4.486831
     33          7           0       -6.505815   -0.158667   -1.050963
     34          6           0       -7.355457   -0.057811   -1.997151
     35          6           0       -7.619922   -1.285365   -2.696789
     36          6           0       -6.622219   -2.234083   -2.102192
     37          6           0       -6.029652   -1.482437   -1.060145
     38          6           0       -8.487762   -1.581507   -3.833760
     39          6           0       -6.120813   -3.612703   -1.958869
     40          8           0       -6.538667   -4.647709   -2.516545
     41          6           0       -5.066564   -3.582262   -0.824170
     42          6           0       -5.401368   -4.724713    0.215845
     43          8           0       -5.725601   -4.541970    1.301922
     44          8           0       -4.982712   -5.884800   -0.331454
     45          6           0       -5.227142   -7.033179    0.445132
     46          6           0        2.329937   -5.034952    0.499935
     47          6           0        3.270518   -4.096459    0.992382
     48          6           0        4.007501   -3.156957    0.242879
     49          6           0        3.603622   -3.042632   -1.152183
     50          6           0        5.112847   -2.380004    0.828564
     51          6           0        6.515800   -2.768465    0.203022
     52          6           0        7.633534   -1.867547    0.746254
     53          6           0        8.963815   -2.032421    0.052768
     54          6           0        9.573861   -3.493294    0.126984
     55          6           0        9.911368   -0.968065    0.527188
     56          6           0       11.212746   -0.820818   -0.321684
     57          6           0       12.134430    0.393718    0.006119
     58          6           0       13.520428    0.441387   -0.633598
     59          6           0       14.483861   -0.766455   -0.518200
     60          6           0       14.220200    1.721193   -0.184532
     61          6           0       15.476981    2.103989   -1.027318
     62          6           0       15.962421    3.505209   -0.678172
     63          6           0       17.330118    3.838695   -1.299143
     64          6           0       17.159893    4.118641   -2.863764
     65          6           0       17.910837    5.139761   -0.706159
     66          1           0       -2.691982    1.237134    3.565910
     67          1           0       -6.433596    5.561473    0.907629
     68          1           0       -8.566365    1.153954   -3.210661
     69          1           0       -3.576882   -3.176082    1.696433
     70          1           0       -1.712446   -1.283681    2.610593
     71          1           0       -3.037859   -2.782306    4.364606
     72          1           0       -3.199917   -0.959765    4.724269
     73          1           0       -4.566536   -1.749144    3.959790
     74          1           0       -2.063092   -2.973159   -0.416457
     75          1           0       -1.467781   -1.567691    0.505302
     76          1           0       -0.749393   -3.238849    2.348563
     77          1           0       -1.634177   -4.542658    1.487460
     78          1           0       -1.823605    3.118564    3.912252
     79          1           0       -2.437744    4.834375    4.622173
     80          1           0       -2.995881    3.362472    5.037052
     81          1           0       -4.947367    6.747337    1.994738
     82          1           0      -10.212421    2.967146   -3.149151
     83          1           0      -10.232492    4.740940   -3.081203
     84          1           0       -9.304225    4.002434   -5.284822
     85          1           0       -8.170410    4.975631   -4.387713
     86          1           0       -8.147180    3.136831   -4.568802
     87          1           0       -8.423868   -1.061540   -4.745091
     88          1           0       -8.351134   -2.647094   -4.124157
     89          1           0       -9.534135   -1.434281   -3.358000
     90          1           0       -4.033329   -3.742344   -1.210121
     91          1           0        2.415415   -6.091343    0.997474
     92          1           0        2.021400   -5.063379   -0.608977
     93          1           0        3.551309   -3.984768    2.092885
     94          1           0        2.553227   -3.063782   -1.381550
     95          1           0        4.027954   -2.068744   -1.566990
     96          1           0        4.126464   -3.773426   -1.730278
     97          1           0        4.908148   -1.322727    0.404472
     98          1           0        5.263307   -2.454496    1.949671
     99          1           0        6.727597   -3.894031    0.270774
    100          1           0        6.571900   -2.524865   -0.757531
    101          1           0        7.449677   -0.752005    0.846651
    102          1           0        7.880106   -2.213913    1.669234
    103          1           0        8.754463   -2.023258   -1.030986
    104          1           0        8.632653   -4.312032   -0.085956
    105          1           0       10.407508   -3.394269   -0.636842
    106          1           0        9.872941   -3.290234    1.180546
    107          1           0        9.541000   -0.108946    0.584902
    108          1           0       10.217741   -1.251002    1.533726
    109          1           0       11.761372   -1.854240   -0.285450
    110          1           0       10.936935   -0.716472   -1.361414
    111          1           0       11.612056    1.395710   -0.507354
    112          1           0       12.304292    0.254835    1.236465
    113          1           0       13.291933    0.634823   -1.613669
    114          1           0       14.778765   -0.742695    0.566991
    115          1           0       13.890833   -1.589487   -0.833073
    116          1           0       15.369893   -0.641005   -1.173753
    117          1           0       13.472016    2.640666   -0.070560
    118          1           0       14.462045    1.654526    0.800657
    119          1           0       16.288019    1.488876   -0.929102
    120          1           0       15.154372    2.143803   -2.068506
    121          1           0       15.317656    4.337911   -0.948421
    122          1           0       16.194530    3.408188    0.443987
    123          1           0       18.117756    2.996283   -1.038005
    124          1           0       16.571746    4.978985   -3.007259
    125          1           0       18.217563    4.401877   -3.302325
    126          1           0       16.838357    3.109226   -3.372240
    127          1           0       18.232605    4.809549    0.440474
    128          1           0       18.717796    5.375147   -1.170814
    129          1           0       17.037788    5.923110   -0.826485
    130          1           0       -5.158789   -7.934280   -0.254723
    131          1           0       -6.291233   -7.104120    0.947014
    132          1           0       -4.457732   -6.895912    1.229441
    133          8           0       -7.780281    6.810238   -0.386022
    134          1           0       -8.865663    6.418506   -1.934519
 ---------------------------------------------------------------------

 SCF Done:  E(RCAM-B3LYP) =  -3043.45973992     A.U. after   16 cycles

 Excitation energies and oscillator strengths:

 Excited State   1:      Singlet-A      2.0921 eV  592.64 nm  f=0.1449  <S**2>=0.000
     243 -> 245        0.12366
     243 -> 246        0.28546
     244 -> 245        0.61988
     244 -> 246       -0.10629
 This state for optimization and/or second-order correction.
 Total Energy, E(TD-HF/TD-DFT) =  -3043.38285843
 Copying the excited state density for this state as the 1-particle RhoCI density.

 The electronic state is 1-A.
 Alpha  occ. eigenvalues --  -46.81777 -19.22408 -19.22299 -19.18493 -19.18308
 Alpha  occ. eigenvalues --  -19.16223 -19.16174 -19.16008 -14.39255 -14.36980
 Alpha  occ. eigenvalues --  -14.35968 -14.35768 -10.35334 -10.34573 -10.31599
 Alpha  occ. eigenvalues --  -10.31151 -10.29063 -10.28585 -10.28386 -10.27903
 Alpha  occ. eigenvalues --  -10.27404 -10.27131 -10.26002 -10.25658 -10.25624
 Alpha  occ. eigenvalues --  -10.25232 -10.25230 -10.25201 -10.25185 -10.24710
 Alpha  occ. eigenvalues --  -10.24673 -10.24559 -10.24346 -10.24280 -10.23902
 Alpha  occ. eigenvalues --  -10.23886 -10.23862 -10.23580 -10.23520 -10.23368
 Alpha  occ. eigenvalues --  -10.23245 -10.22842 -10.22824 -10.22794 -10.22607
 Alpha  occ. eigenvalues --  -10.22598 -10.22509 -10.22477 -10.22261 -10.21837
 Alpha  occ. eigenvalues --  -10.21652 -10.21626 -10.21583 -10.21504 -10.21310
 Alpha  occ. eigenvalues --  -10.21114 -10.20692 -10.20651 -10.20528 -10.20481
 Alpha  occ. eigenvalues --  -10.20461 -10.20348 -10.20198 -10.20130 -10.19870
 Alpha  occ. eigenvalues --  -10.19563  -3.10300  -1.85241  -1.84761  -1.84717
 Alpha  occ. eigenvalues --   -1.15977  -1.14710  -1.08233  -1.07367  -1.07312
 Alpha  occ. eigenvalues --   -1.04566  -1.04109  -1.01322  -1.00486  -1.00113
 Alpha  occ. eigenvalues --   -0.99066  -0.89586  -0.87009  -0.86444  -0.85820
 Alpha  occ. eigenvalues --   -0.85339  -0.85024  -0.84238  -0.83099  -0.82878
 Alpha  occ. eigenvalues --   -0.82684  -0.82425  -0.81741  -0.80622  -0.79551
 Alpha  occ. eigenvalues --   -0.78661  -0.77891  -0.77307  -0.77177  -0.76876
 Alpha  occ. eigenvalues --   -0.75448  -0.74906  -0.74065  -0.73580  -0.72191
 Alpha  occ. eigenvalues --   -0.71706  -0.70954  -0.70175  -0.69663  -0.69644
 Alpha  occ. eigenvalues --   -0.69284  -0.68666  -0.67138  -0.66611  -0.66188
 Alpha  occ. eigenvalues --   -0.65616  -0.64854  -0.64226  -0.63479  -0.62555
 Alpha  occ. eigenvalues --   -0.61464  -0.61219  -0.60757  -0.59018  -0.58849
 Alpha  occ. eigenvalues --   -0.58245  -0.58199  -0.57799  -0.57375  -0.57020
 Alpha  occ. eigenvalues --   -0.56463  -0.55832  -0.55511  -0.55247  -0.54980
 Alpha  occ. eigenvalues --   -0.54482  -0.53699  -0.53208  -0.52695  -0.52324
 Alpha  occ. eigenvalues --   -0.52112  -0.51754  -0.51503  -0.51338  -0.51035
 Alpha  occ. eigenvalues --   -0.50458  -0.50032  -0.49779  -0.49542  -0.49332
 Alpha  occ. eigenvalues --   -0.48935  -0.48779  -0.48309  -0.47960  -0.47783
 Alpha  occ. eigenvalues --   -0.47633  -0.47486  -0.47355  -0.47236  -0.47040
 Alpha  occ. eigenvalues --   -0.46726  -0.46567  -0.46282  -0.46124  -0.46086
 Alpha  occ. eigenvalues --   -0.45911  -0.45612  -0.45351  -0.45185  -0.45094
 Alpha  occ. eigenvalues --   -0.44718  -0.44370  -0.44309  -0.44073  -0.43955
 Alpha  occ. eigenvalues --   -0.43848  -0.43700  -0.43193  -0.43116  -0.42897
 Alpha  occ. eigenvalues --   -0.42794  -0.42426  -0.42371  -0.42249  -0.42049
 Alpha  occ. eigenvalues --   -0.41733  -0.41640  -0.41474  -0.41334  -0.40766
 Alpha  occ. eigenvalues --   -0.40683  -0.40573  -0.40415  -0.40375  -0.40108
 Alpha  occ. eigenvalues --   -0.39780  -0.39626  -0.39545  -0.39395  -0.39203
 Alpha  occ. eigenvalues --   -0.38959  -0.38755  -0.38639  -0.38385  -0.38323
 Alpha  occ. eigenvalues --   -0.38108  -0.37931  -0.37539  -0.37503  -0.37028
 Alpha  occ. eigenvalues --   -0.36500  -0.36359  -0.36068  -0.35996  -0.35671
 Alpha  occ. eigenvalues --   -0.35457  -0.35381  -0.35046  -0.34988  -0.34693
 Alpha  occ. eigenvalues --   -0.34518  -0.34356  -0.34010  -0.33519  -0.33405
 Alpha  occ. eigenvalues --   -0.33086  -0.32528  -0.32114  -0.31757  -0.31696
 Alpha  occ. eigenvalues --   -0.31692  -0.31324  -0.31096  -0.30304  -0.29981
 Alpha  occ. eigenvalues --   -0.28829  -0.28370  -0.27469  -0.27293  -0.26960
 Alpha  occ. eigenvalues --   -0.26550  -0.25836  -0.22824  -0.21537
 Alpha virt. eigenvalues --   -0.08133  -0.06781  -0.01732  -0.00484   0.00969
 Alpha virt. eigenvalues --    0.01635   0.03261   0.04139   0.04254   0.04849
 Alpha virt. eigenvalues --    0.05100   0.05807   0.08078   0.08777   0.08811

 Mulliken charges:
               1
     1  Mg   0.830979
     2  C    0.062521
     3  C   -0.201186
     4  C   -0.136421
     5  C   -0.207822
     6  N   -0.659721
     7  C    0.310723
     8  C   -0.095869
     9  C   -0.130178
    10  C    0.352070
    11  C   -0.305274
    12  C   -0.175684
    13  C   -0.259169
    14  C    0.606172
    15  O   -0.494383
    16  O   -0.433452
    17  N   -0.698411
    18  C    0.291245
    19  C    0.006432
    20  C   -0.052478
    21  C    0.315799
    22  C   -0.361901
    23  C    0.264835
    24  O   -0.398197
    25  N   -0.657667
    26  C    0.299493
    27  C   -0.085413
    28  C    0.078967
    29  C    0.296494
    30  C    0.258369
    31  C   -0.266848
    32  C   -0.318700
    33  N   -0.731889
    34  C    0.369806
    35  C    0.005370
    36  C    0.012532
    37  C    0.259960
    38  C   -0.389590
    39  C    0.353868
    40  O   -0.478325
    41  C   -0.338247
    42  C    0.611376
    43  O   -0.411543
    44  O   -0.425522
    45  C   -0.090739
    46  C   -0.038588
    47  C   -0.103423
    48  C    0.149185
    49  C   -0.396787
    50  C   -0.235927
    51  C   -0.184042
    52  C   -0.160182
    53  C   -0.103168
    54  C   -0.293816
    55  C   -0.149435
    56  C   -0.193994
    57  C   -0.158764
    58  C   -0.054348
    59  C   -0.310292
    60  C   -0.172205
    61  C   -0.171278
    62  C   -0.147236
    63  C   -0.076829
    64  C   -0.305888
    65  C   -0.265984
    66  H    0.085044
    67  H    0.110639
    68  H    0.076827
    69  H    0.093488
    70  H    0.102569
    71  H    0.104161
    72  H    0.113935
    73  H    0.113351
    74  H    0.123636
    75  H    0.100330
    76  H    0.133085
    77  H    0.082929
    78  H    0.105575
    79  H    0.153308
    80  H    0.144446
    81  H    0.107484
    82  H    0.091868
    83  H    0.125216
    84  H    0.111202
    85  H    0.119629
    86  H    0.117188
    87  H    0.137220
    88  H    0.150057
    89  H    0.121637
    90  H    0.162552
    91  H    0.120148
    92  H    0.142949
    93  H    0.075551
    94  H    0.172417
    95  H    0.085630
    96  H    0.125664
    97  H    0.098072
    98  H    0.102602
    99  H    0.092855
   100  H    0.114368
   101  H    0.087466
   102  H    0.095384
   103  H    0.072834
   104  H    0.081230
   105  H    0.112238
   106  H    0.102047
   107  H    0.098870
   108  H    0.086881
   109  H    0.077685
   110  H    0.092917
   111  H    0.075574
   112  H    0.055328
   113  H    0.089644
   114  H    0.098257
   115  H    0.108946
   116  H    0.108961
   117  H    0.061466
   118  H    0.095889
   119  H    0.101106
   120  H    0.090297
   121  H    0.086985
   122  H    0.075946
   123  H    0.063629
   124  H    0.111974
   125  H    0.082591
   126  H    0.094873
   127  H    0.067984
   128  H    0.114463
   129  H    0.082078
   130  H    0.130354
   131  H    0.120349
   132  H    0.121719
   133  O   -0.426767
   134  H    0.053786
 Sum of Mulliken charges =  -0.00000

 Dipole moment (field-independent basis, Debye):
    X=              3.3039    Y=             -4.0527    Z=             -0.8159  Tot=              5.2921
 Quadrupole moment (field-independent basis, Debye-Ang):
   XX=           -381.5933   YY=           -434.2122   ZZ=           -392.1354
   XY=              4.4806   XZ=             13.8833   YZ=            -32.4945

 Normal termination of Gaussian 16 at Sat Oct  5 02:44:22 2019.
