 Gaussian 16, Revision A.03,
 Gaussian 16:  ES64L-G16RevA.03 25-Dec-2016

 ----------------------------------------------------------------------
 # td=(NStates=1) iop(3/107=0140000000,3/108=0140000000) iop(3/107=0140
 000000,3/108=0140000000) CAM-B3LYP/6-31G(d,p)
 ----------------------------------------------------------------------

 --
 TD
 --
 Symbolic Z-matrix:
 Charge =  0 Multiplicity = 1

                         Standard orientation:
 ---------------------------------------------------------------------
 Center     Atomic      Atomic             Coordinates (Angstroms)
 Number     Number       Type             X           Y           Z
 ---------------------------------------------------------------------
      1         12           0       -5.685417    1.288187    0.312922
      2          6           0       -4.935012   -2.111871   -0.504721
      3          6           0       -3.419495    1.108358    2.735415
      4          6           0       -6.055712    4.654767    0.603187
      5          6           0       -7.959530    1.232620   -2.379223
      6          7           0       -4.426554   -0.319135    1.140563
      7          6           0       -4.273777   -1.627562    0.666724
      8          6           0       -3.268724   -2.376057    1.478813
      9          6           0       -2.991474   -1.363708    2.601611
     10          6           0       -3.575583   -0.111362    2.093650
     11          6           0       -3.549434   -1.803056    3.982592
     12          6           0       -1.980035   -2.623122    0.605427
     13          6           0       -1.011862   -3.476846    1.405906
     14          6           0        0.162193   -3.836007    0.527002
     15          8           0        0.418686   -3.351772   -0.534560
     16          8           0        0.991043   -4.746350    1.166391
     17          7           0       -4.817704    2.609140    1.513911
     18          6           0       -3.940229    2.398936    2.483146
     19          6           0       -3.640571    3.642532    3.191743
     20          6           0       -4.400281    4.619556    2.602459
     21          6           0       -5.167174    4.036261    1.526883
     22          6           0       -2.824660    3.804273    4.359903
     23          6           0       -4.466331    5.941064    2.941887
     24          8           0       -3.904913    6.524776    3.861533
     25          7           0       -6.804659    2.599874   -0.730757
     26          6           0       -6.873504    3.926710   -0.281525
     27          6           0       -7.760247    4.662623   -1.223863
     28          6           0       -8.263258    3.695135   -2.086164
     29          6           0       -7.719868    2.416048   -1.717567
     30          6           0       -8.224291    6.088542   -1.104144
     31          6           0       -9.370269    3.858238   -3.086768
     32          6           0       -8.776061    4.056686   -4.562992
     33          7           0       -6.241850   -0.063327   -1.174323
     34          6           0       -7.354763    0.041011   -2.114217
     35          6           0       -7.527203   -1.326055   -2.781741
     36          6           0       -6.696544   -2.137071   -2.136080
     37          6           0       -5.901765   -1.349628   -1.171975
     38          6           0       -8.446543   -1.665508   -3.931364
     39          6           0       -6.278340   -3.532259   -1.992416
     40          8           0       -6.570057   -4.574482   -2.585870
     41          6           0       -5.076350   -3.549180   -0.925367
     42          6           0       -5.423191   -4.615589    0.178573
     43          8           0       -5.827571   -4.316582    1.305475
     44          8           0       -5.097336   -5.740129   -0.280345
     45          6           0       -5.421795   -6.859481    0.521582
     46          6           0        2.133159   -5.116259    0.476607
     47          6           0        3.326183   -4.205857    0.898587
     48          6           0        4.023953   -3.386339    0.078549
     49          6           0        3.853156   -3.179197   -1.449749
     50          6           0        5.171399   -2.606719    0.663112
     51          6           0        6.622022   -2.950814    0.162988
     52          6           0        7.626713   -1.957177    0.696899
     53          6           0        9.083680   -2.096484    0.020201
     54          6           0        9.565088   -3.595610    0.257296
     55          6           0       10.019177   -1.090543    0.521517
     56          6           0       11.309152   -0.974792   -0.198223
     57          6           0       12.149741    0.271750    0.188354
     58          6           0       13.467037    0.442805   -0.467402
     59          6           0       14.461166   -0.744111   -0.260004
     60          6           0       14.201771    1.800019   -0.141361
     61          6           0       15.381639    2.235181   -1.015828
     62          6           0       15.947784    3.551421   -0.686354
     63          6           0       17.246699    4.062461   -1.453786
     64          6           0       17.058642    4.180947   -2.925409
     65          6           0       17.720083    5.351187   -0.789397
     66          1           0       -2.782099    1.294208    3.516169
     67          1           0       -6.023802    5.640243    0.624016
     68          1           0       -8.747847    1.235860   -3.204759
     69          1           0       -3.761040   -3.269297    1.625888
     70          1           0       -1.976067   -0.984132    2.756809
     71          1           0       -3.050465   -2.722385    4.283799
     72          1           0       -3.381867   -0.913904    4.754701
     73          1           0       -4.526448   -1.810285    3.923089
     74          1           0       -2.213123   -3.157580   -0.308135
     75          1           0       -1.457654   -1.527435    0.377917
     76          1           0       -0.624112   -2.999550    2.143003
     77          1           0       -1.404820   -4.489801    1.673931
     78          1           0       -1.674548    3.594940    4.161210
     79          1           0       -2.706978    4.818054    4.673512
     80          1           0       -3.243789    3.029983    5.091879
     81          1           0       -5.002171    6.620964    2.318041
     82          1           0      -10.055874    2.953621   -3.220498
     83          1           0      -10.220311    4.586629   -2.803098
     84          1           0       -9.658327    4.364868   -5.204745
     85          1           0       -8.073866    4.779787   -4.506463
     86          1           0       -8.337569    3.131550   -4.926534
     87          1           0       -8.308487   -1.027081   -4.878082
     88          1           0       -8.495737   -2.673733   -4.067166
     89          1           0       -9.393380   -1.449970   -3.575141
     90          1           0       -4.354440   -4.018549   -1.511191
     91          1           0        2.516285   -6.267222    0.799392
     92          1           0        1.952539   -5.025691   -0.646913
     93          1           0        3.610405   -4.372641    2.019109
     94          1           0        2.777201   -3.581313   -1.729481
     95          1           0        4.154428   -2.218790   -1.820704
     96          1           0        4.543933   -3.769939   -2.089959
     97          1           0        4.812742   -1.469533    0.670846
     98          1           0        5.226433   -2.821746    1.735939
     99          1           0        6.889811   -3.968575    0.596443
    100          1           0        6.941926   -2.987043   -1.020920
    101          1           0        7.313060   -0.969973    0.591922
    102          1           0        7.714784   -2.154582    1.754033
    103          1           0        8.897531   -1.836825   -0.894004
    104          1           0        8.794406   -4.185197   -0.352573
    105          1           0       10.427948   -3.806357   -0.101862
    106          1           0        9.495125   -3.972692    1.259700
    107          1           0        9.624760   -0.059935    0.300811
    108          1           0       10.256298   -1.314253    1.467076
    109          1           0       11.946610   -1.774011    0.010561
    110          1           0       11.245578   -1.006187   -1.266530
    111          1           0       11.434155    1.165315   -0.038352
    112          1           0       12.219247    0.421901    1.170662
    113          1           0       13.209621    0.342048   -1.497292
    114          1           0       14.472462   -1.208607    0.760444
    115          1           0       14.224617   -1.524117   -0.880456
    116          1           0       15.357132   -0.442731   -0.762375
    117          1           0       13.371125    2.480473   -0.367283
    118          1           0       14.244485    1.679421    0.785756
    119          1           0       16.148426    1.518563   -1.045917
    120          1           0       15.042879    2.124660   -1.917622
    121          1           0       15.094993    4.241772   -0.832714
    122          1           0       16.313281    3.465040    0.307398
    123          1           0       17.932120    3.278610   -1.403996
    124          1           0       16.439166    5.114669   -3.421405
    125          1           0       17.985055    4.482878   -3.381853
    126          1           0       16.554326    3.352448   -3.312734
    127          1           0       18.073188    5.500814    0.235376
    128          1           0       18.418000    5.777809   -1.311782
    129          1           0       16.984444    6.228048   -0.807427
    130          1           0       -4.812398   -7.842702    0.219021
    131          1           0       -6.405987   -6.914310    0.603209
    132          1           0       -5.062511   -6.401280    1.458684
    133          8           0       -7.690661    6.848563   -0.339806
    134          1           0       -8.937347    6.453305   -1.801589
 ---------------------------------------------------------------------

 SCF Done:  E(RCAM-B3LYP) =  -3043.46566248     A.U. after   15 cycles

 Excitation energies and oscillator strengths:

 Excited State   1:      Singlet-A      2.0219 eV  613.22 nm  f=0.1785  <S**2>=0.000
     243 -> 246        0.26095
     244 -> 245        0.64541
 This state for optimization and/or second-order correction.
 Total Energy, E(TD-HF/TD-DFT) =  -3043.39136079
 Copying the excited state density for this state as the 1-particle RhoCI density.

 The electronic state is 1-A.
 Alpha  occ. eigenvalues --  -46.81193 -19.24921 -19.22158 -19.17979 -19.17507
 Alpha  occ. eigenvalues --  -19.17425 -19.16929 -19.15474 -14.38315 -14.36926
 Alpha  occ. eigenvalues --  -14.36878 -14.36488 -10.35795 -10.35066 -10.31901
 Alpha  occ. eigenvalues --  -10.30023 -10.28779 -10.28389 -10.27945 -10.27816
 Alpha  occ. eigenvalues --  -10.26823 -10.26658 -10.26332 -10.26304 -10.26173
 Alpha  occ. eigenvalues --  -10.26137 -10.25959 -10.25418 -10.24573 -10.24245
 Alpha  occ. eigenvalues --  -10.24169 -10.24160 -10.24039 -10.23803 -10.23732
 Alpha  occ. eigenvalues --  -10.23522 -10.23394 -10.23115 -10.22990 -10.22983
 Alpha  occ. eigenvalues --  -10.22859 -10.22545 -10.22450 -10.22445 -10.22363
 Alpha  occ. eigenvalues --  -10.22085 -10.22071 -10.21953 -10.21853 -10.21671
 Alpha  occ. eigenvalues --  -10.21486 -10.21427 -10.21289 -10.20386 -10.20201
 Alpha  occ. eigenvalues --  -10.20150 -10.19623 -10.19532 -10.19457 -10.19245
 Alpha  occ. eigenvalues --  -10.19178 -10.18935 -10.18830 -10.18826 -10.18608
 Alpha  occ. eigenvalues --  -10.18291  -3.09797  -1.84728  -1.84279  -1.84196
 Alpha  occ. eigenvalues --   -1.18604  -1.14034  -1.07613  -1.06367  -1.06267
 Alpha  occ. eigenvalues --   -1.05440  -1.05369  -1.01481  -0.99161  -0.98641
 Alpha  occ. eigenvalues --   -0.97931  -0.88071  -0.86475  -0.86321  -0.85235
 Alpha  occ. eigenvalues --   -0.85004  -0.84462  -0.84309  -0.84218  -0.83441
 Alpha  occ. eigenvalues --   -0.83318  -0.83189  -0.82493  -0.81489  -0.80395
 Alpha  occ. eigenvalues --   -0.79729  -0.78565  -0.78300  -0.77047  -0.76496
 Alpha  occ. eigenvalues --   -0.75887  -0.75456  -0.74181  -0.73215  -0.72342
 Alpha  occ. eigenvalues --   -0.71977  -0.71689  -0.71220  -0.70864  -0.69657
 Alpha  occ. eigenvalues --   -0.69355  -0.68800  -0.67802  -0.66696  -0.66662
 Alpha  occ. eigenvalues --   -0.65964  -0.65486  -0.64081  -0.63858  -0.62826
 Alpha  occ. eigenvalues --   -0.62419  -0.61846  -0.60941  -0.60385  -0.60199
 Alpha  occ. eigenvalues --   -0.59668  -0.58785  -0.58218  -0.57841  -0.57206
 Alpha  occ. eigenvalues --   -0.56519  -0.55921  -0.55526  -0.55280  -0.55183
 Alpha  occ. eigenvalues --   -0.54774  -0.54399  -0.53923  -0.53084  -0.52556
 Alpha  occ. eigenvalues --   -0.52337  -0.52118  -0.52064  -0.51416  -0.51094
 Alpha  occ. eigenvalues --   -0.50797  -0.49921  -0.49659  -0.49425  -0.49139
 Alpha  occ. eigenvalues --   -0.48956  -0.48472  -0.48301  -0.48134  -0.48067
 Alpha  occ. eigenvalues --   -0.47964  -0.47815  -0.47570  -0.47401  -0.47037
 Alpha  occ. eigenvalues --   -0.46857  -0.46622  -0.46351  -0.46121  -0.45949
 Alpha  occ. eigenvalues --   -0.45727  -0.45630  -0.45407  -0.45226  -0.44896
 Alpha  occ. eigenvalues --   -0.44676  -0.44460  -0.44374  -0.44264  -0.44217
 Alpha  occ. eigenvalues --   -0.43567  -0.43449  -0.43180  -0.43054  -0.42959
 Alpha  occ. eigenvalues --   -0.42843  -0.42647  -0.42228  -0.41941  -0.41774
 Alpha  occ. eigenvalues --   -0.41694  -0.41656  -0.41461  -0.41416  -0.41119
 Alpha  occ. eigenvalues --   -0.40959  -0.40759  -0.40562  -0.40480  -0.40457
 Alpha  occ. eigenvalues --   -0.40254  -0.40074  -0.40034  -0.39854  -0.39470
 Alpha  occ. eigenvalues --   -0.39151  -0.38779  -0.38468  -0.38300  -0.38238
 Alpha  occ. eigenvalues --   -0.37946  -0.37747  -0.37676  -0.37570  -0.37247
 Alpha  occ. eigenvalues --   -0.36920  -0.36757  -0.36604  -0.36441  -0.36161
 Alpha  occ. eigenvalues --   -0.35559  -0.35358  -0.35116  -0.34802  -0.34787
 Alpha  occ. eigenvalues --   -0.34472  -0.34205  -0.33973  -0.33656  -0.33620
 Alpha  occ. eigenvalues --   -0.32764  -0.32112  -0.31969  -0.31703  -0.31527
 Alpha  occ. eigenvalues --   -0.31264  -0.31101  -0.30903  -0.30689  -0.29864
 Alpha  occ. eigenvalues --   -0.28988  -0.27990  -0.27863  -0.27710  -0.27277
 Alpha  occ. eigenvalues --   -0.26790  -0.26531  -0.22829  -0.21071
 Alpha virt. eigenvalues --   -0.08055  -0.06114  -0.01884  -0.00663   0.00967
 Alpha virt. eigenvalues --    0.02915   0.03584   0.03832   0.04704   0.04828
 Alpha virt. eigenvalues --    0.04986   0.06349   0.08173   0.08685   0.09343

 Mulliken charges:
               1
     1  Mg   0.842412
     2  C    0.050798
     3  C   -0.171641
     4  C   -0.097829
     5  C   -0.174807
     6  N   -0.609333
     7  C    0.285562
     8  C   -0.146064
     9  C   -0.149899
    10  C    0.369045
    11  C   -0.288722
    12  C   -0.169162
    13  C   -0.234036
    14  C    0.581042
    15  O   -0.441726
    16  O   -0.453005
    17  N   -0.742267
    18  C    0.320312
    19  C    0.068982
    20  C    0.049672
    21  C    0.226681
    22  C   -0.401952
    23  C    0.194647
    24  O   -0.439871
    25  N   -0.695888
    26  C    0.258842
    27  C   -0.060409
    28  C    0.033096
    29  C    0.320434
    30  C    0.259847
    31  C   -0.276079
    32  C   -0.311818
    33  N   -0.707234
    34  C    0.231368
    35  C    0.012365
    36  C    0.056257
    37  C    0.328032
    38  C   -0.373611
    39  C    0.341719
    40  O   -0.466755
    41  C   -0.304418
    42  C    0.593698
    43  O   -0.506373
    44  O   -0.370670
    45  C   -0.097623
    46  C   -0.000030
    47  C   -0.149778
    48  C    0.159649
    49  C   -0.371805
    50  C   -0.236837
    51  C   -0.173902
    52  C   -0.168123
    53  C   -0.055697
    54  C   -0.324119
    55  C   -0.146646
    56  C   -0.192921
    57  C   -0.176291
    58  C   -0.083516
    59  C   -0.324938
    60  C   -0.157148
    61  C   -0.185222
    62  C   -0.157829
    63  C   -0.050093
    64  C   -0.310003
    65  C   -0.321118
    66  H    0.052877
    67  H    0.116334
    68  H    0.095971
    69  H    0.118902
    70  H    0.108071
    71  H    0.117545
    72  H    0.088576
    73  H    0.139200
    74  H    0.120910
    75  H    0.102882
    76  H    0.148180
    77  H    0.130838
    78  H    0.105534
    79  H    0.169210
    80  H    0.121724
    81  H    0.072453
    82  H    0.100707
    83  H    0.103759
    84  H    0.101542
    85  H    0.130692
    86  H    0.114493
    87  H    0.127481
    88  H    0.151103
    89  H    0.138465
    90  H    0.157068
    91  H    0.086199
    92  H    0.114122
    93  H    0.081818
    94  H    0.122139
    95  H    0.119277
    96  H    0.117712
    97  H    0.088095
    98  H    0.099996
    99  H    0.102337
   100  H    0.066633
   101  H    0.093032
   102  H    0.086455
   103  H    0.085660
   104  H    0.091765
   105  H    0.111640
   106  H    0.105493
   107  H    0.075819
   108  H    0.093357
   109  H    0.095364
   110  H    0.084744
   111  H    0.059419
   112  H    0.093938
   113  H    0.077182
   114  H    0.094419
   115  H    0.107143
   116  H    0.100082
   117  H    0.083038
   118  H    0.095231
   119  H    0.085335
   120  H    0.099546
   121  H    0.085113
   122  H    0.095895
   123  H    0.098385
   124  H    0.063471
   125  H    0.106053
   126  H    0.111802
   127  H    0.101196
   128  H    0.107104
   129  H    0.088953
   130  H    0.128299
   131  H    0.152283
   132  H    0.131954
   133  O   -0.405230
   134  H    0.075961
 Sum of Mulliken charges =  -0.00000

 Dipole moment (field-independent basis, Debye):
    X=              0.6272    Y=             -6.4994    Z=             -1.4529  Tot=              6.6893
 Quadrupole moment (field-independent basis, Debye-Ang):
   XX=           -356.6149   YY=           -428.4981   ZZ=           -395.0403
   XY=             15.2082   XZ=             20.7725   YZ=            -35.3886

 Normal termination of Gaussian 16 at Fri Oct 11 03:42:25 2019.
