 Gaussian 16, Revision A.03,
 Gaussian 16:  ES64L-G16RevA.03 25-Dec-2016

 ----------------------------------------------------------------------
 # td=(NStates=1) iop(3/107=0140000000,3/108=0140000000) iop(3/107=0140
 000000,3/108=0140000000) CAM-B3LYP/6-31G(d,p)
 ----------------------------------------------------------------------

 --
 TD
 --
 Symbolic Z-matrix:
 Charge =  0 Multiplicity = 1

                         Standard orientation:
 ---------------------------------------------------------------------
 Center     Atomic      Atomic             Coordinates (Angstroms)
 Number     Number       Type             X           Y           Z
 ---------------------------------------------------------------------
      1         12           0       -5.667629    1.265312    0.103698
      2          6           0       -4.986303   -2.054111   -0.385676
      3          6           0       -3.508179    1.158428    2.861352
      4          6           0       -6.222822    4.507097    0.654016
      5          6           0       -8.059653    1.180591   -2.416780
      6          7           0       -4.301405   -0.176728    1.009793
      7          6           0       -4.197928   -1.512546    0.642691
      8          6           0       -3.240046   -2.301878    1.402116
      9          6           0       -2.955596   -1.306717    2.644977
     10          6           0       -3.543245   -0.014190    2.070321
     11          6           0       -3.613992   -1.805850    3.942981
     12          6           0       -1.883015   -2.524323    0.729669
     13          6           0       -1.062052   -3.512546    1.451398
     14          6           0        0.277693   -3.838277    0.603497
     15          8           0        0.492694   -3.367562   -0.449117
     16          8           0        0.987188   -4.793928    1.314931
     17          7           0       -4.961574    2.623304    1.464391
     18          6           0       -4.005185    2.364667    2.540017
     19          6           0       -3.639309    3.675450    3.207350
     20          6           0       -4.404633    4.627223    2.481770
     21          6           0       -5.302500    3.961001    1.494395
     22          6           0       -2.643189    3.870283    4.212076
     23          6           0       -4.580799    6.009605    2.913346
     24          8           0       -3.930500    6.635445    3.737376
     25          7           0       -6.908255    2.621940   -0.745377
     26          6           0       -6.968095    3.946941   -0.467074
     27          6           0       -7.960894    4.551841   -1.158789
     28          6           0       -8.498335    3.522039   -2.016653
     29          6           0       -7.775349    2.333864   -1.684177
     30          6           0       -8.302495    5.949917   -1.105329
     31          6           0       -9.535996    3.769793   -3.141560
     32          6           0       -8.827987    4.105784   -4.555436
     33          7           0       -6.399804   -0.102522   -1.132650
     34          6           0       -7.390905   -0.037909   -2.059537
     35          6           0       -7.618088   -1.455793   -2.591078
     36          6           0       -6.629641   -2.169051   -2.002410
     37          6           0       -5.936261   -1.369405   -1.101099
     38          6           0       -8.460168   -1.830724   -3.805394
     39          6           0       -6.154035   -3.550444   -1.986694
     40          8           0       -6.522129   -4.562533   -2.625836
     41          6           0       -5.043232   -3.585619   -0.878450
     42          6           0       -5.226596   -4.694954    0.171157
     43          8           0       -5.698587   -4.455116    1.231280
     44          8           0       -4.979929   -5.878982   -0.340327
     45          6           0       -5.377650   -7.016090    0.369361
     46          6           0        2.309041   -5.077190    0.665972
     47          6           0        3.399010   -4.088251    0.946368
     48          6           0        4.083672   -3.234236    0.139022
     49          6           0        3.745340   -3.016750   -1.305225
     50          6           0        5.082268   -2.363940    0.709888
     51          6           0        6.493730   -2.654860    0.165058
     52          6           0        7.715449   -1.770113    0.735141
     53          6           0        8.992790   -1.992393   -0.042219
     54          6           0        9.553516   -3.383515    0.349962
     55          6           0       10.020239   -0.853154    0.395966
     56          6           0       11.376646   -0.916111   -0.287471
     57          6           0       12.269514    0.202433    0.261812
     58          6           0       13.559570    0.461786   -0.626102
     59          6           0       14.547263   -0.671551   -0.477403
     60          6           0       14.198474    1.807548   -0.363639
     61          6           0       15.434259    2.137787   -1.026749
     62          6           0       16.004638    3.570323   -0.680669
     63          6           0       17.375833    3.878185   -1.342059
     64          6           0       17.180517    3.977655   -2.892066
     65          6           0       17.967705    5.149074   -0.808151
     66          1           0       -2.801680    1.081430    3.579843
     67          1           0       -6.449775    5.567824    0.827007
     68          1           0       -8.805478    1.261522   -3.110340
     69          1           0       -3.643321   -3.198261    1.770780
     70          1           0       -1.825126   -1.133041    2.681647
     71          1           0       -3.049912   -2.699945    4.432085
     72          1           0       -3.809073   -1.021466    4.777737
     73          1           0       -4.734528   -2.129849    3.547262
     74          1           0       -2.149676   -2.884963   -0.276998
     75          1           0       -1.500747   -1.640101    0.476418
     76          1           0       -0.707148   -3.202636    2.175146
     77          1           0       -1.509380   -4.393365    1.784458
     78          1           0       -1.817123    3.148765    3.754844
     79          1           0       -2.322599    4.882488    4.313891
     80          1           0       -2.967465    3.376342    5.294118
     81          1           0       -5.393641    6.686056    2.236938
     82          1           0      -10.076225    2.800008   -3.184168
     83          1           0      -10.276323    4.682483   -2.687117
     84          1           0       -9.679578    4.228751   -5.397586
     85          1           0       -8.306693    4.934936   -4.441681
     86          1           0       -8.258245    3.276060   -4.772465
     87          1           0       -8.074233   -1.246336   -4.646914
     88          1           0       -8.369989   -2.961012   -3.870701
     89          1           0       -9.443996   -1.385740   -3.635286
     90          1           0       -4.031761   -3.872984   -1.564869
     91          1           0        2.527661   -6.179858    0.917347
     92          1           0        2.222009   -5.027953   -0.325248
     93          1           0        3.851823   -4.060321    1.934493
     94          1           0        2.595818   -3.342126   -1.442657
     95          1           0        3.817572   -1.830077   -1.502892
     96          1           0        4.570807   -3.643462   -1.913375
     97          1           0        4.771282   -1.256166    0.679644
     98          1           0        5.022665   -2.372153    1.799437
     99          1           0        6.662983   -3.831000    0.251458
    100          1           0        6.375790   -2.484761   -0.860594
    101          1           0        7.373764   -0.614727    0.399952
    102          1           0        7.835584   -1.821603    1.710413
    103          1           0        8.696260   -1.745017   -1.118842
    104          1           0        8.669051   -4.072248    0.227474
    105          1           0       10.358251   -3.738111   -0.424558
    106          1           0        9.863233   -3.173054    1.305217
    107          1           0        9.601534    0.062074    0.080708
    108          1           0       10.014908   -0.933416    1.508858
    109          1           0       11.809979   -1.931015    0.114190
    110          1           0       11.161780   -1.081160   -1.380622
    111          1           0       11.725754    1.109622    0.364602
    112          1           0       12.288673   -0.114784    1.395815
    113          1           0       13.313672    0.356135   -1.611069
    114          1           0       14.862205   -0.944493    0.619475
    115          1           0       14.179533   -1.625958   -0.763846
    116          1           0       15.564902   -0.815507   -1.026648
    117          1           0       13.496503    2.564855   -0.460091
    118          1           0       14.423445    1.947123    0.677934
    119          1           0       16.050857    1.346611   -0.636589
    120          1           0       15.262842    1.917716   -2.012188
    121          1           0       15.251047    4.214773   -1.035939
    122          1           0       16.182014    3.671395    0.405815
    123          1           0       17.842200    2.969686   -0.873656
    124          1           0       16.540977    4.702564   -3.149695
    125          1           0       18.012778    4.200798   -3.247291
    126          1           0       16.756594    2.960203   -3.347001
    127          1           0       17.984471    5.086724    0.152204
    128          1           0       18.796922    5.555992   -1.251949
    129          1           0       17.303290    5.959924   -0.954682
    130          1           0       -5.215424   -7.894403   -0.205328
    131          1           0       -6.327037   -6.927111    0.702100
    132          1           0       -4.907166   -7.163748    1.242126
    133          8           0       -7.911448    6.757943   -0.326894
    134          1           0       -8.875545    6.512297   -2.080079
 ---------------------------------------------------------------------

 SCF Done:  E(RCAM-B3LYP) =  -3043.40238852     A.U. after   16 cycles

 Excitation energies and oscillator strengths:

 Excited State   1:      Singlet-A      2.1072 eV  588.38 nm  f=0.1238  <S**2>=0.000
     243 -> 246        0.31931
     244 -> 245        0.60986
     244 -> 246        0.11745
 This state for optimization and/or second-order correction.
 Total Energy, E(TD-HF/TD-DFT) =  -3043.32494966
 Copying the excited state density for this state as the 1-particle RhoCI density.

 The electronic state is 1-A.
 Alpha  occ. eigenvalues --  -46.81065 -19.23769 -19.22871 -19.19139 -19.17808
 Alpha  occ. eigenvalues --  -19.17444 -19.16870 -19.16613 -14.39547 -14.37113
 Alpha  occ. eigenvalues --  -14.36578 -14.35786 -10.35904 -10.35694 -10.31973
 Alpha  occ. eigenvalues --  -10.30625 -10.30436 -10.27655 -10.27634 -10.27476
 Alpha  occ. eigenvalues --  -10.27191 -10.26978 -10.26947 -10.26208 -10.25829
 Alpha  occ. eigenvalues --  -10.25755 -10.25625 -10.25616 -10.25312 -10.25171
 Alpha  occ. eigenvalues --  -10.25110 -10.25081 -10.25066 -10.24579 -10.24472
 Alpha  occ. eigenvalues --  -10.24092 -10.24023 -10.23793 -10.23607 -10.23222
 Alpha  occ. eigenvalues --  -10.23155 -10.23155 -10.22625 -10.22603 -10.22064
 Alpha  occ. eigenvalues --  -10.21978 -10.21888 -10.21858 -10.21816 -10.21786
 Alpha  occ. eigenvalues --  -10.21767 -10.21736 -10.21668 -10.21609 -10.21517
 Alpha  occ. eigenvalues --  -10.21477 -10.21273 -10.21246 -10.21001 -10.20466
 Alpha  occ. eigenvalues --  -10.20447 -10.20083 -10.18514 -10.18234 -10.18206
 Alpha  occ. eigenvalues --  -10.17278  -3.09743  -1.84678  -1.84229  -1.84140
 Alpha  occ. eigenvalues --   -1.16399  -1.13773  -1.08341  -1.07529  -1.06383
 Alpha  occ. eigenvalues --   -1.05783  -1.05325  -1.01799  -1.01318  -1.00452
 Alpha  occ. eigenvalues --   -0.96574  -0.88698  -0.87274  -0.86810  -0.86024
 Alpha  occ. eigenvalues --   -0.85353  -0.84870  -0.84103  -0.83713  -0.83441
 Alpha  occ. eigenvalues --   -0.83189  -0.82821  -0.81952  -0.80890  -0.80561
 Alpha  occ. eigenvalues --   -0.79439  -0.78817  -0.78405  -0.77150  -0.76857
 Alpha  occ. eigenvalues --   -0.75352  -0.75220  -0.74311  -0.74183  -0.73018
 Alpha  occ. eigenvalues --   -0.72320  -0.71055  -0.70927  -0.70297  -0.70072
 Alpha  occ. eigenvalues --   -0.69101  -0.68561  -0.67545  -0.67098  -0.66115
 Alpha  occ. eigenvalues --   -0.65382  -0.65108  -0.64555  -0.63423  -0.63047
 Alpha  occ. eigenvalues --   -0.61991  -0.61699  -0.60660  -0.60565  -0.60195
 Alpha  occ. eigenvalues --   -0.60075  -0.58981  -0.58479  -0.57449  -0.57137
 Alpha  occ. eigenvalues --   -0.56292  -0.55644  -0.55063  -0.54845  -0.54561
 Alpha  occ. eigenvalues --   -0.54101  -0.53778  -0.53350  -0.52449  -0.52294
 Alpha  occ. eigenvalues --   -0.51907  -0.51873  -0.51364  -0.51165  -0.50800
 Alpha  occ. eigenvalues --   -0.50686  -0.50469  -0.49899  -0.49371  -0.49077
 Alpha  occ. eigenvalues --   -0.48703  -0.48599  -0.48366  -0.48251  -0.47914
 Alpha  occ. eigenvalues --   -0.47630  -0.47565  -0.47543  -0.47064  -0.46954
 Alpha  occ. eigenvalues --   -0.46631  -0.46606  -0.46435  -0.46163  -0.46060
 Alpha  occ. eigenvalues --   -0.45970  -0.45827  -0.45721  -0.45463  -0.45267
 Alpha  occ. eigenvalues --   -0.44959  -0.44866  -0.44757  -0.44579  -0.44116
 Alpha  occ. eigenvalues --   -0.43978  -0.43619  -0.43531  -0.43230  -0.43090
 Alpha  occ. eigenvalues --   -0.42941  -0.42812  -0.42317  -0.42209  -0.42118
 Alpha  occ. eigenvalues --   -0.41941  -0.41776  -0.41609  -0.41513  -0.41453
 Alpha  occ. eigenvalues --   -0.41224  -0.40888  -0.40690  -0.40604  -0.40396
 Alpha  occ. eigenvalues --   -0.40189  -0.39988  -0.39769  -0.39717  -0.39570
 Alpha  occ. eigenvalues --   -0.39353  -0.39223  -0.39030  -0.38794  -0.38781
 Alpha  occ. eigenvalues --   -0.38450  -0.38364  -0.37871  -0.37482  -0.37187
 Alpha  occ. eigenvalues --   -0.37156  -0.37089  -0.36583  -0.36087  -0.35694
 Alpha  occ. eigenvalues --   -0.35636  -0.35361  -0.35199  -0.34685  -0.34559
 Alpha  occ. eigenvalues --   -0.34513  -0.34435  -0.34272  -0.33937  -0.33560
 Alpha  occ. eigenvalues --   -0.33245  -0.33111  -0.32721  -0.32008  -0.31764
 Alpha  occ. eigenvalues --   -0.31644  -0.31596  -0.31466  -0.30863  -0.30009
 Alpha  occ. eigenvalues --   -0.28971  -0.28136  -0.27923  -0.27398  -0.27240
 Alpha  occ. eigenvalues --   -0.26863  -0.26603  -0.22949  -0.21457
 Alpha virt. eigenvalues --   -0.07849  -0.06992  -0.02420  -0.00238   0.00167
 Alpha virt. eigenvalues --    0.02398   0.03071   0.03797   0.04151   0.04390
 Alpha virt. eigenvalues --    0.04576   0.05807   0.07984   0.08307   0.09438

 Mulliken charges:
               1
     1  Mg   0.823338
     2  C    0.048844
     3  C   -0.175513
     4  C   -0.200380
     5  C   -0.128100
     6  N   -0.591196
     7  C    0.295750
     8  C   -0.172807
     9  C   -0.143319
    10  C    0.310715
    11  C   -0.298467
    12  C   -0.166802
    13  C   -0.222903
    14  C    0.583042
    15  O   -0.419322
    16  O   -0.483631
    17  N   -0.710579
    18  C    0.299426
    19  C    0.096528
    20  C   -0.046234
    21  C    0.364524
    22  C   -0.378595
    23  C    0.236907
    24  O   -0.423304
    25  N   -0.727061
    26  C    0.294709
    27  C    0.008683
    28  C   -0.030644
    29  C    0.355064
    30  C    0.220543
    31  C   -0.243686
    32  C   -0.292892
    33  N   -0.750158
    34  C    0.254613
    35  C   -0.030284
    36  C    0.050872
    37  C    0.346137
    38  C   -0.370189
    39  C    0.370987
    40  O   -0.480829
    41  C   -0.300910
    42  C    0.617990
    43  O   -0.457084
    44  O   -0.413949
    45  C   -0.092745
    46  C   -0.006384
    47  C   -0.138926
    48  C    0.157028
    49  C   -0.366782
    50  C   -0.237838
    51  C   -0.178457
    52  C   -0.152585
    53  C   -0.076680
    54  C   -0.292272
    55  C   -0.177766
    56  C   -0.177589
    57  C   -0.170002
    58  C   -0.041881
    59  C   -0.330266
    60  C   -0.178018
    61  C   -0.181908
    62  C   -0.180998
    63  C   -0.061725
    64  C   -0.297960
    65  C   -0.306537
    66  H    0.070180
    67  H    0.126043
    68  H    0.081389
    69  H    0.123721
    70  H    0.099092
    71  H    0.110586
    72  H    0.111308
    73  H    0.112138
    74  H    0.104227
    75  H    0.116893
    76  H    0.126292
    77  H    0.131342
    78  H    0.109492
    79  H    0.167998
    80  H    0.117852
    81  H    0.048857
    82  H    0.104719
    83  H    0.092961
    84  H    0.093114
    85  H    0.136394
    86  H    0.120271
    87  H    0.139059
    88  H    0.152804
    89  H    0.123605
    90  H    0.135689
    91  H    0.115812
    92  H    0.127819
    93  H    0.072295
    94  H    0.139799
    95  H    0.099313
    96  H    0.108466
    97  H    0.092873
    98  H    0.093848
    99  H    0.081273
   100  H    0.110977
   101  H    0.057320
   102  H    0.099184
   103  H    0.072065
   104  H    0.097239
   105  H    0.097008
   106  H    0.112534
   107  H    0.094706
   108  H    0.076726
   109  H    0.084506
   110  H    0.087987
   111  H    0.096148
   112  H    0.083502
   113  H    0.100996
   114  H    0.081242
   115  H    0.105345
   116  H    0.091580
   117  H    0.081655
   118  H    0.083608
   119  H    0.096975
   120  H    0.091410
   121  H    0.089743
   122  H    0.079878
   123  H    0.082485
   124  H    0.110529
   125  H    0.108438
   126  H    0.080091
   127  H    0.103867
   128  H    0.104409
   129  H    0.096360
   130  H    0.131596
   131  H    0.135817
   132  H    0.126927
   133  O   -0.388978
   134  H    0.019057
 Sum of Mulliken charges =  -0.00000

 Dipole moment (field-independent basis, Debye):
    X=              3.2461    Y=             -6.4143    Z=             -0.8199  Tot=              7.2355
 Quadrupole moment (field-independent basis, Debye-Ang):
   XX=           -401.1570   YY=           -438.4890   ZZ=           -393.0445
   XY=             27.0248   XZ=             18.8522   YZ=            -34.0503

 Normal termination of Gaussian 16 at Wed Oct  9 23:25:05 2019.
