 Gaussian 16, Revision A.03,
 Gaussian 16:  ES64L-G16RevA.03 25-Dec-2016

 ----------------------------------------------------------------------
 # td=(NStates=1) iop(3/107=0140000000,3/108=0140000000) iop(3/107=0140
 000000,3/108=0140000000) CAM-B3LYP/6-31G(d,p)
 ----------------------------------------------------------------------

 --
 TD
 --
 Symbolic Z-matrix:
 Charge =  0 Multiplicity = 1

                         Standard orientation:
 ---------------------------------------------------------------------
 Center     Atomic      Atomic             Coordinates (Angstroms)
 Number     Number       Type             X           Y           Z
 ---------------------------------------------------------------------
      1         12           0       -5.564232    1.246760    0.238376
      2          6           0       -4.986142   -2.143348   -0.228271
      3          6           0       -3.269073    1.198334    2.759518
      4          6           0       -6.139973    4.512204    0.684074
      5          6           0       -8.008084    1.134785   -2.268889
      6          7           0       -4.399682   -0.209254    1.044536
      7          6           0       -4.305577   -1.660642    0.695526
      8          6           0       -3.132778   -2.295177    1.480485
      9          6           0       -2.918594   -1.248457    2.587384
     10          6           0       -3.556281    0.051131    2.112670
     11          6           0       -3.533805   -1.597512    3.938490
     12          6           0       -1.965728   -2.661761    0.509456
     13          6           0       -1.023331   -3.650000    1.309611
     14          6           0        0.154991   -3.896665    0.577817
     15          8           0        0.399772   -3.363759   -0.495485
     16          8           0        1.007534   -4.727349    1.279201
     17          7           0       -4.874384    2.658413    1.416200
     18          6           0       -3.869994    2.488169    2.473590
     19          6           0       -3.698772    3.732266    3.140998
     20          6           0       -4.464949    4.626472    2.491310
     21          6           0       -5.267179    3.919292    1.477818
     22          6           0       -2.698210    3.785980    4.297861
     23          6           0       -4.576371    5.986614    2.974551
     24          8           0       -3.769959    6.587834    3.732101
     25          7           0       -6.936852    2.572764   -0.655384
     26          6           0       -7.014667    3.923655   -0.310496
     27          6           0       -7.855541    4.574986   -1.187084
     28          6           0       -8.433449    3.620358   -2.048400
     29          6           0       -7.791216    2.350401   -1.711811
     30          6           0       -8.228630    6.028943   -1.194252
     31          6           0       -9.467270    3.820613   -3.143661
     32          6           0       -8.824566    4.162956   -4.546585
     33          7           0       -6.288463   -0.049232   -1.112309
     34          6           0       -7.397756   -0.088702   -2.035198
     35          6           0       -7.568022   -1.328822   -2.778122
     36          6           0       -6.593837   -2.190098   -2.079973
     37          6           0       -5.921387   -1.380707   -1.059101
     38          6           0       -8.479588   -1.645122   -3.873384
     39          6           0       -6.151687   -3.572254   -1.920975
     40          8           0       -6.452990   -4.609141   -2.611071
     41          6           0       -4.990154   -3.527154   -0.870005
     42          6           0       -5.372823   -4.723188    0.158319
     43          8           0       -5.752915   -4.454339    1.288611
     44          8           0       -4.947048   -5.933668   -0.319255
     45          6           0       -5.259628   -7.000027    0.580821
     46          6           0        2.249657   -5.116923    0.656760
     47          6           0        3.393655   -4.102726    0.939794
     48          6           0        3.984125   -3.272157    0.009079
     49          6           0        3.649028   -3.206717   -1.369699
     50          6           0        5.205666   -2.518747    0.660663
     51          6           0        6.538668   -2.706272   -0.013977
     52          6           0        7.634550   -1.864595    0.562752
     53          6           0        9.039083   -2.075676   -0.053764
     54          6           0        9.516647   -3.415456    0.205109
     55          6           0        9.946723   -1.008554    0.436496
     56          6           0       11.276684   -0.913762   -0.198240
     57          6           0       12.161878    0.298797    0.158962
     58          6           0       13.523315    0.560944   -0.577769
     59          6           0       14.435691   -0.742171   -0.365239
     60          6           0       14.201123    1.815207   -0.111346
     61          6           0       15.413362    2.180948   -1.030637
     62          6           0       15.949820    3.509389   -0.722742
     63          6           0       17.317250    3.886185   -1.328306
     64          6           0       17.169462    4.091559   -2.837898
     65          6           0       17.805731    5.323067   -0.813867
     66          1           0       -2.700473    1.286712    3.449266
     67          1           0       -6.417275    5.800001    0.697253
     68          1           0       -8.642591    1.198297   -3.222861
     69          1           0       -3.554759   -3.280033    2.010247
     70          1           0       -1.771502   -0.883119    2.671915
     71          1           0       -3.210611   -2.621109    4.282549
     72          1           0       -3.124132   -0.916962    4.805285
     73          1           0       -4.619469   -1.660081    3.810867
     74          1           0       -2.309683   -3.268862   -0.457478
     75          1           0       -1.481746   -1.715274    0.105568
     76          1           0       -0.686736   -3.355779    2.354751
     77          1           0       -1.694343   -4.451434    1.536986
     78          1           0       -1.874160    3.240271    3.947984
     79          1           0       -2.560803    4.845346    4.475106
     80          1           0       -3.328498    3.171703    4.982207
     81          1           0       -5.707252    6.409231    2.611550
     82          1           0       -9.981017    3.026902   -3.451081
     83          1           0      -10.284625    4.699065   -2.991965
     84          1           0       -9.928791    4.746135   -5.205164
     85          1           0       -8.191924    5.078700   -4.310670
     86          1           0       -8.250921    3.200729   -4.956461
     87          1           0       -8.255254   -1.274611   -4.805852
     88          1           0       -8.442278   -2.862590   -3.894067
     89          1           0       -9.489861   -1.219669   -3.765560
     90          1           0       -4.172528   -3.964434   -1.430302
     91          1           0        2.468285   -6.044591    1.306739
     92          1           0        2.028185   -5.278164   -0.435167
     93          1           0        3.701112   -3.911979    2.003079
     94          1           0        2.569058   -3.284318   -1.365935
     95          1           0        3.629440   -2.259975   -1.902214
     96          1           0        4.289408   -3.810481   -2.049974
     97          1           0        4.891731   -1.384205    0.758998
     98          1           0        5.474589   -2.763432    1.895605
     99          1           0        6.751196   -3.765912    0.184513
    100          1           0        6.428889   -2.750476   -1.211094
    101          1           0        7.269890   -0.786028    0.580658
    102          1           0        7.645933   -2.140557    1.538069
    103          1           0        8.728215   -2.079122   -1.217476
    104          1           0        8.733416   -4.213407   -0.161842
    105          1           0       10.474881   -3.611604   -0.294957
    106          1           0        9.669520   -3.530331    1.347209
    107          1           0        9.425962   -0.008134    0.400088
    108          1           0       10.111358   -1.196242    1.663479
    109          1           0       11.980699   -1.886691   -0.113987
    110          1           0       11.120270   -1.202596   -1.355678
    111          1           0       11.475066    1.229125    0.010326
    112          1           0       12.095663    0.278416    1.335949
    113          1           0       13.333797    0.648391   -1.563082
    114          1           0       14.684656   -0.808582    0.699527
    115          1           0       13.834381   -1.641277   -0.527057
    116          1           0       15.483735   -0.680494   -0.849215
    117          1           0       13.614122    2.575980   -0.254654
    118          1           0       14.792524    1.742871    0.820223
    119          1           0       16.070595    1.493017   -0.895761
    120          1           0       15.018405    1.976821   -1.965876
    121          1           0       15.167712    4.221988   -0.900104
    122          1           0       16.151269    3.367739    0.432259
    123          1           0       18.062898    3.303243   -1.001454
    124          1           0       16.515870    4.822647   -3.132404
    125          1           0       18.203834    4.615680   -3.211897
    126          1           0       16.821101    3.136823   -3.239057
    127          1           0       17.800368    5.257661    0.303493
    128          1           0       18.762722    5.543417   -1.232440
    129          1           0       17.163433    6.141736   -1.192596
    130          1           0       -5.038918   -7.834209    0.060609
    131          1           0       -6.466443   -7.124388    0.881685
    132          1           0       -4.662925   -6.808680    1.428108
    133          8           0       -7.904894    6.853952   -0.329659
    134          1           0       -8.776516    6.443808   -2.095450
 ---------------------------------------------------------------------

 SCF Done:  E(RCAM-B3LYP) =  -3043.36409656     A.U. after   15 cycles

 Excitation energies and oscillator strengths:

 Excited State   1:      Singlet-A      2.0825 eV  595.37 nm  f=0.1861  <S**2>=0.000
     243 -> 246        0.21652
     244 -> 245        0.66456
 This state for optimization and/or second-order correction.
 Total Energy, E(TD-HF/TD-DFT) =  -3043.28756707
 Copying the excited state density for this state as the 1-particle RhoCI density.

 The electronic state is 1-A.
 Alpha  occ. eigenvalues --  -46.79970 -19.23727 -19.21805 -19.18195 -19.18150
 Alpha  occ. eigenvalues --  -19.18125 -19.17649 -19.16119 -14.38423 -14.37435
 Alpha  occ. eigenvalues --  -14.36981 -14.36737 -10.36086 -10.34842 -10.31839
 Alpha  occ. eigenvalues --  -10.31708 -10.31137 -10.28526 -10.27935 -10.27785
 Alpha  occ. eigenvalues --  -10.27611 -10.27160 -10.26699 -10.26695 -10.26637
 Alpha  occ. eigenvalues --  -10.26533 -10.26492 -10.26220 -10.25963 -10.25649
 Alpha  occ. eigenvalues --  -10.25550 -10.25543 -10.25467 -10.25191 -10.25187
 Alpha  occ. eigenvalues --  -10.24683 -10.24655 -10.24214 -10.23849 -10.23821
 Alpha  occ. eigenvalues --  -10.23590 -10.23563 -10.23458 -10.23432 -10.23423
 Alpha  occ. eigenvalues --  -10.23403 -10.23324 -10.22590 -10.22531 -10.22442
 Alpha  occ. eigenvalues --  -10.22420 -10.22047 -10.21931 -10.21651 -10.21624
 Alpha  occ. eigenvalues --  -10.21438 -10.21094 -10.20768 -10.20755 -10.20689
 Alpha  occ. eigenvalues --  -10.20378 -10.20166 -10.20143 -10.19839 -10.19051
 Alpha  occ. eigenvalues --  -10.17733  -3.08854  -1.83770  -1.83340  -1.83281
 Alpha  occ. eigenvalues --   -1.13577  -1.12377  -1.06589  -1.05578  -1.05100
 Alpha  occ. eigenvalues --   -1.04851  -1.02767  -1.00193  -0.99171  -0.98110
 Alpha  occ. eigenvalues --   -0.96732  -0.88768  -0.86749  -0.86216  -0.85977
 Alpha  occ. eigenvalues --   -0.85554  -0.84714  -0.84462  -0.84278  -0.83998
 Alpha  occ. eigenvalues --   -0.83377  -0.83023  -0.82192  -0.80764  -0.80394
 Alpha  occ. eigenvalues --   -0.79093  -0.78637  -0.78355  -0.77642  -0.76767
 Alpha  occ. eigenvalues --   -0.76413  -0.75910  -0.74210  -0.73488  -0.72887
 Alpha  occ. eigenvalues --   -0.71419  -0.70493  -0.70315  -0.69998  -0.69891
 Alpha  occ. eigenvalues --   -0.68983  -0.68717  -0.67284  -0.66788  -0.65859
 Alpha  occ. eigenvalues --   -0.64832  -0.64497  -0.63869  -0.62771  -0.62206
 Alpha  occ. eigenvalues --   -0.61039  -0.60722  -0.60454  -0.60071  -0.59193
 Alpha  occ. eigenvalues --   -0.59049  -0.58972  -0.58324  -0.57633  -0.56743
 Alpha  occ. eigenvalues --   -0.56465  -0.55796  -0.55323  -0.54843  -0.54418
 Alpha  occ. eigenvalues --   -0.54216  -0.53825  -0.53427  -0.52360  -0.52057
 Alpha  occ. eigenvalues --   -0.51997  -0.51811  -0.51484  -0.50814  -0.50623
 Alpha  occ. eigenvalues --   -0.50421  -0.49924  -0.49533  -0.49437  -0.49205
 Alpha  occ. eigenvalues --   -0.48948  -0.48849  -0.48663  -0.48235  -0.47716
 Alpha  occ. eigenvalues --   -0.47324  -0.47184  -0.47136  -0.46975  -0.46583
 Alpha  occ. eigenvalues --   -0.46539  -0.46470  -0.46192  -0.46052  -0.46039
 Alpha  occ. eigenvalues --   -0.45762  -0.45659  -0.45537  -0.45343  -0.45039
 Alpha  occ. eigenvalues --   -0.44763  -0.44494  -0.44420  -0.44194  -0.44109
 Alpha  occ. eigenvalues --   -0.43848  -0.43531  -0.43414  -0.43121  -0.43005
 Alpha  occ. eigenvalues --   -0.42672  -0.42375  -0.42302  -0.42088  -0.41635
 Alpha  occ. eigenvalues --   -0.41391  -0.41004  -0.40812  -0.40568  -0.40429
 Alpha  occ. eigenvalues --   -0.40321  -0.40149  -0.39815  -0.39711  -0.39549
 Alpha  occ. eigenvalues --   -0.39483  -0.39419  -0.39175  -0.39082  -0.39005
 Alpha  occ. eigenvalues --   -0.38960  -0.38414  -0.38394  -0.38251  -0.38001
 Alpha  occ. eigenvalues --   -0.37984  -0.37828  -0.37803  -0.37703  -0.37404
 Alpha  occ. eigenvalues --   -0.36920  -0.36825  -0.36652  -0.36330  -0.36033
 Alpha  occ. eigenvalues --   -0.35711  -0.35664  -0.35499  -0.35104  -0.34614
 Alpha  occ. eigenvalues --   -0.34557  -0.33971  -0.33965  -0.33830  -0.33190
 Alpha  occ. eigenvalues --   -0.32812  -0.32149  -0.31890  -0.31585  -0.31468
 Alpha  occ. eigenvalues --   -0.31208  -0.31007  -0.30698  -0.30431  -0.30397
 Alpha  occ. eigenvalues --   -0.29157  -0.28597  -0.28111  -0.27839  -0.27501
 Alpha  occ. eigenvalues --   -0.27100  -0.26500  -0.24014  -0.22563
 Alpha virt. eigenvalues --   -0.09213  -0.07079  -0.01771  -0.01505   0.00048
 Alpha virt. eigenvalues --    0.02353   0.02443   0.03257   0.03793   0.04222
 Alpha virt. eigenvalues --    0.04868   0.05231   0.05498   0.07623   0.08407

 Mulliken charges:
               1
     1  Mg   0.806119
     2  C    0.126124
     3  C   -0.093909
     4  C   -0.207393
     5  C   -0.176039
     6  N   -0.675556
     7  C    0.260320
     8  C   -0.138567
     9  C   -0.147052
    10  C    0.394484
    11  C   -0.305571
    12  C   -0.168273
    13  C   -0.272530
    14  C    0.625306
    15  O   -0.470127
    16  O   -0.481655
    17  N   -0.740787
    18  C    0.255532
    19  C    0.039424
    20  C   -0.041594
    21  C    0.406361
    22  C   -0.349155
    23  C    0.240672
    24  O   -0.437775
    25  N   -0.688371
    26  C    0.296985
    27  C   -0.043107
    28  C    0.040565
    29  C    0.312526
    30  C    0.252325
    31  C   -0.252997
    32  C   -0.274625
    33  N   -0.691991
    34  C    0.233417
    35  C    0.098497
    36  C   -0.014328
    37  C    0.300067
    38  C   -0.398913
    39  C    0.346606
    40  O   -0.506325
    41  C   -0.331144
    42  C    0.611274
    43  O   -0.459720
    44  O   -0.437472
    45  C   -0.076708
    46  C    0.000463
    47  C   -0.122787
    48  C    0.143726
    49  C   -0.412814
    50  C   -0.208630
    51  C   -0.176399
    52  C   -0.154787
    53  C   -0.045637
    54  C   -0.290087
    55  C   -0.142381
    56  C   -0.166846
    57  C   -0.177168
    58  C   -0.049801
    59  C   -0.331382
    60  C   -0.157296
    61  C   -0.194767
    62  C   -0.153346
    63  C   -0.049045
    64  C   -0.298554
    65  C   -0.322179
    66  H    0.009877
    67  H    0.146242
    68  H    0.082955
    69  H    0.107658
    70  H    0.087531
    71  H    0.106723
    72  H    0.106195
    73  H    0.136897
    74  H    0.112619
    75  H    0.127887
    76  H    0.142349
    77  H    0.147851
    78  H    0.136008
    79  H    0.165850
    80  H    0.133396
    81  H    0.059494
    82  H    0.127408
    83  H    0.103080
    84  H    0.052943
    85  H    0.119450
    86  H    0.110909
    87  H    0.148855
    88  H    0.146270
    89  H    0.128259
    90  H    0.169360
    91  H    0.111923
    92  H    0.124213
    93  H    0.088211
    94  H    0.156783
    95  H    0.120448
    96  H    0.122953
    97  H    0.080011
    98  H    0.054278
    99  H    0.104402
   100  H    0.067682
   101  H    0.081100
   102  H    0.098904
   103  H    0.067949
   104  H    0.089305
   105  H    0.106116
   106  H    0.085757
   107  H    0.093967
   108  H    0.055820
   109  H    0.071212
   110  H    0.067971
   111  H    0.071068
   112  H    0.082688
   113  H    0.100571
   114  H    0.105792
   115  H    0.104126
   116  H    0.093198
   117  H    0.095512
   118  H    0.089929
   119  H    0.099946
   120  H    0.086436
   121  H    0.089666
   122  H    0.060569
   123  H    0.096201
   124  H    0.116502
   125  H    0.068184
   126  H    0.100118
   127  H    0.090737
   128  H    0.102721
   129  H    0.097079
   130  H    0.136259
   131  H    0.107263
   132  H    0.131633
   133  O   -0.421843
   134  H    0.075368
 Sum of Mulliken charges =  -0.00000

 Dipole moment (field-independent basis, Debye):
    X=              1.0592    Y=             -4.3335    Z=             -0.7056  Tot=              4.5165
 Quadrupole moment (field-independent basis, Debye-Ang):
   XX=           -384.7728   YY=           -440.0192   ZZ=           -394.2603
   XY=              4.3184   XZ=             20.1853   YZ=            -36.5225

 Normal termination of Gaussian 16 at Wed Oct  9 03:34:26 2019.
