 Gaussian 16, Revision A.03,
 Gaussian 16:  ES64L-G16RevA.03 25-Dec-2016

 ----------------------------------------------------------------------
 # td=(NStates=1) iop(3/107=0140000000,3/108=0140000000) iop(3/107=0140
 000000,3/108=0140000000) CAM-B3LYP/6-31G(d,p)
 ----------------------------------------------------------------------

 --
 TD
 --
 Symbolic Z-matrix:
 Charge =  0 Multiplicity = 1

                         Standard orientation:
 ---------------------------------------------------------------------
 Center     Atomic      Atomic             Coordinates (Angstroms)
 Number     Number       Type             X           Y           Z
 ---------------------------------------------------------------------
      1         12           0       -5.513789    1.268695    0.235853
      2          6           0       -4.970440   -2.162126   -0.328498
      3          6           0       -3.393888    1.155131    2.649014
      4          6           0       -6.098120    4.642945    0.663950
      5          6           0       -7.972599    1.206922   -2.289521
      6          7           0       -4.392830   -0.340071    1.066638
      7          6           0       -4.275258   -1.586502    0.754526
      8          6           0       -3.290057   -2.321037    1.521273
      9          6           0       -2.929078   -1.304857    2.637424
     10          6           0       -3.511884   -0.045313    2.111478
     11          6           0       -3.505171   -1.796177    3.993693
     12          6           0       -2.089166   -2.707947    0.623127
     13          6           0       -1.071966   -3.528284    1.291928
     14          6           0        0.252702   -3.856914    0.440869
     15          8           0        0.448377   -3.457287   -0.701361
     16          8           0        0.984867   -4.632458    1.184045
     17          7           0       -4.987394    2.612153    1.419379
     18          6           0       -4.015470    2.423535    2.338987
     19          6           0       -3.689200    3.641986    2.992166
     20          6           0       -4.513845    4.584921    2.483809
     21          6           0       -5.214853    3.950159    1.465900
     22          6           0       -2.730154    3.803561    4.206228
     23          6           0       -4.446778    6.131375    2.749652
     24          8           0       -3.878918    6.639036    3.668250
     25          7           0       -6.955309    2.621195   -0.633896
     26          6           0       -6.868430    3.939139   -0.427546
     27          6           0       -7.871507    4.617354   -1.229038
     28          6           0       -8.429433    3.654088   -2.062318
     29          6           0       -7.732313    2.384946   -1.722451
     30          6           0       -8.287775    6.040949   -1.092453
     31          6           0       -9.426556    3.861138   -3.177604
     32          6           0       -8.761235    4.051295   -4.581631
     33          7           0       -6.327180   -0.125628   -1.063048
     34          6           0       -7.192589    0.021925   -2.031328
     35          6           0       -7.589297   -1.288776   -2.693426
     36          6           0       -6.676973   -2.184036   -2.063745
     37          6           0       -5.936938   -1.384369   -1.080719
     38          6           0       -8.429325   -1.566474   -3.764990
     39          6           0       -6.362116   -3.622623   -1.872024
     40          8           0       -6.787388   -4.634835   -2.432728
     41          6           0       -5.124831   -3.680776   -0.836295
     42          6           0       -5.432046   -4.622998    0.233775
     43          8           0       -5.983491   -4.454332    1.318188
     44          8           0       -5.180985   -5.885255   -0.181070
     45          6           0       -5.454027   -6.995924    0.780355
     46          6           0        2.280234   -5.028827    0.549201
     47          6           0        3.297704   -4.035731    0.931642
     48          6           0        4.054784   -3.193204    0.071363
     49          6           0        3.689277   -2.976252   -1.396971
     50          6           0        5.088590   -2.203044    0.492464
     51          6           0        6.471792   -2.593951   -0.079409
     52          6           0        7.573253   -1.722121    0.513770
     53          6           0        9.009287   -1.923459   -0.127988
     54          6           0        9.507174   -3.421285    0.005819
     55          6           0        9.952230   -0.993086    0.383655
     56          6           0       11.293428   -0.861487   -0.365455
     57          6           0       12.238291    0.330049    0.053299
     58          6           0       13.597611    0.305737   -0.599949
     59          6           0       14.529701   -0.861343   -0.242454
     60          6           0       14.339603    1.640660   -0.138744
     61          6           0       15.586998    2.104580   -0.958286
     62          6           0       16.125220    3.428451   -0.514709
     63          6           0       17.464002    3.798606   -1.157685
     64          6           0       17.344930    3.844848   -2.748474
     65          6           0       17.982262    5.163181   -0.607334
     66          1           0       -2.839364    1.204826    3.596693
     67          1           0       -6.181919    5.714822    0.605248
     68          1           0       -8.597433    1.001260   -3.042289
     69          1           0       -3.744814   -3.121933    1.977786
     70          1           0       -1.929793   -1.041108    2.927403
     71          1           0       -3.013353   -2.681150    4.211893
     72          1           0       -3.416690   -1.002351    4.761410
     73          1           0       -4.635903   -2.016914    4.001787
     74          1           0       -2.393673   -3.083098   -0.330699
     75          1           0       -1.490018   -1.814698    0.340492
     76          1           0       -0.488464   -3.211999    2.378642
     77          1           0       -1.454742   -4.610900    1.599994
     78          1           0       -1.735619    3.406034    3.872819
     79          1           0       -2.715692    4.949144    4.573767
     80          1           0       -3.149660    3.198400    4.935547
     81          1           0       -5.162421    6.724722    2.265013
     82          1           0      -10.372794    3.218516   -3.023880
     83          1           0       -9.926763    4.726766   -2.775687
     84          1           0       -9.554011    4.086212   -5.328109
     85          1           0       -8.114705    5.031416   -4.450146
     86          1           0       -8.111298    3.201885   -4.912627
     87          1           0       -8.222737   -0.989667   -4.637849
     88          1           0       -8.558515   -2.731811   -4.032604
     89          1           0       -9.447760   -1.333460   -3.468231
     90          1           0       -4.310853   -4.044632   -1.273189
     91          1           0        2.517272   -6.012271    1.183538
     92          1           0        2.142318   -5.096682   -0.437876
     93          1           0        3.778484   -4.121730    1.936455
     94          1           0        2.572866   -3.564503   -1.750288
     95          1           0        3.616578   -1.859625   -1.433706
     96          1           0        4.738350   -3.444859   -1.995866
     97          1           0        4.866610   -1.061194    0.515099
     98          1           0        5.225103   -2.352903    1.720530
     99          1           0        6.693187   -3.533876    0.221543
    100          1           0        6.427038   -2.729190   -1.288597
    101          1           0        7.289911   -0.658567    0.510119
    102          1           0        7.520479   -1.807286    1.586332
    103          1           0        8.913977   -1.789335   -1.114177
    104          1           0        8.934519   -3.998911   -0.286944
    105          1           0       10.651461   -3.645811   -0.374272
    106          1           0        9.552315   -3.639864    1.056923
    107          1           0        9.469993    0.085591    0.288935
    108          1           0       10.199026   -0.904069    1.406903
    109          1           0       11.868190   -1.867763   -0.228215
    110          1           0       10.829029   -0.781592   -1.398982
    111          1           0       11.645558    1.254800   -0.108897
    112          1           0       12.318502    0.316403    1.257662
    113          1           0       13.292415    0.255606   -1.631269
    114          1           0       14.678570   -0.735158    0.722195
    115          1           0       13.866602   -1.793645   -0.457567
    116          1           0       15.477688   -0.925537   -0.867094
    117          1           0       13.610116    2.546380   -0.121637
    118          1           0       14.734223    1.566627    0.883212
    119          1           0       16.433540    1.288094   -0.787832
    120          1           0       15.323957    1.944320   -1.883983
    121          1           0       15.399192    4.032359   -0.918553
    122          1           0       16.166366    3.324241    0.691339
    123          1           0       18.211037    3.106545   -0.761637
    124          1           0       16.619143    4.693025   -2.978951
    125          1           0       18.349822    3.997288   -3.088067
    126          1           0       16.915287    2.892081   -3.252825
    127          1           0       18.004573    5.014368    0.522241
    128          1           0       18.844743    5.432938   -0.961318
    129          1           0       17.328783    5.960668   -1.040805
    130          1           0       -4.984381   -7.988205    0.379862
    131          1           0       -6.510712   -7.212132    0.692242
    132          1           0       -5.228664   -6.575752    1.895720
    133          8           0       -7.735648    6.827374   -0.387484
    134          1           0       -9.178667    6.241657   -1.661061
 ---------------------------------------------------------------------

 SCF Done:  E(RCAM-B3LYP) =  -3043.41491368     A.U. after   16 cycles

 Excitation energies and oscillator strengths:

 Excited State   1:      Singlet-A      1.9882 eV  623.61 nm  f=0.2498  <S**2>=0.000
     243 -> 246        0.21066
     244 -> 245        0.66553
 This state for optimization and/or second-order correction.
 Total Energy, E(TD-HF/TD-DFT) =  -3043.34184991
 Copying the excited state density for this state as the 1-particle RhoCI density.

 The electronic state is 1-A.
 Alpha  occ. eigenvalues --  -46.81130 -19.23120 -19.21393 -19.18166 -19.17614
 Alpha  occ. eigenvalues --  -19.17139 -19.17032 -19.15897 -14.37877 -14.36666
 Alpha  occ. eigenvalues --  -14.36431 -14.36307 -10.34983 -10.34009 -10.31940
 Alpha  occ. eigenvalues --  -10.30851 -10.30309 -10.28563 -10.28489 -10.26502
 Alpha  occ. eigenvalues --  -10.26325 -10.26040 -10.26016 -10.25917 -10.25646
 Alpha  occ. eigenvalues --  -10.25380 -10.25300 -10.24997 -10.24831 -10.24800
 Alpha  occ. eigenvalues --  -10.24606 -10.24448 -10.24218 -10.23931 -10.23869
 Alpha  occ. eigenvalues --  -10.23721 -10.23715 -10.23654 -10.23390 -10.23190
 Alpha  occ. eigenvalues --  -10.22779 -10.22729 -10.22711 -10.22635 -10.22380
 Alpha  occ. eigenvalues --  -10.22374 -10.22332 -10.22255 -10.22160 -10.22129
 Alpha  occ. eigenvalues --  -10.22095 -10.22077 -10.21959 -10.21726 -10.21670
 Alpha  occ. eigenvalues --  -10.21618 -10.21427 -10.21404 -10.21157 -10.21073
 Alpha  occ. eigenvalues --  -10.20520 -10.20204 -10.20066 -10.19395 -10.19352
 Alpha  occ. eigenvalues --  -10.19156  -3.09943  -1.84852  -1.84440  -1.84359
 Alpha  occ. eigenvalues --   -1.14318  -1.11844  -1.08920  -1.08730  -1.05836
 Alpha  occ. eigenvalues --   -1.04553  -1.02332  -1.02043  -1.01457  -1.00978
 Alpha  occ. eigenvalues --   -0.99389  -0.87197  -0.86570  -0.85948  -0.85277
 Alpha  occ. eigenvalues --   -0.85117  -0.84613  -0.84330  -0.84178  -0.83428
 Alpha  occ. eigenvalues --   -0.83365  -0.83046  -0.81866  -0.81143  -0.79619
 Alpha  occ. eigenvalues --   -0.78504  -0.78090  -0.77382  -0.77306  -0.76263
 Alpha  occ. eigenvalues --   -0.75525  -0.74510  -0.73795  -0.72212  -0.72083
 Alpha  occ. eigenvalues --   -0.71732  -0.70726  -0.70048  -0.69357  -0.69277
 Alpha  occ. eigenvalues --   -0.69199  -0.68512  -0.67367  -0.66756  -0.66256
 Alpha  occ. eigenvalues --   -0.66110  -0.64781  -0.64454  -0.63164  -0.62497
 Alpha  occ. eigenvalues --   -0.61466  -0.61277  -0.61164  -0.59812  -0.59637
 Alpha  occ. eigenvalues --   -0.58805  -0.58188  -0.58119  -0.57644  -0.57170
 Alpha  occ. eigenvalues --   -0.56640  -0.56031  -0.55603  -0.55274  -0.54294
 Alpha  occ. eigenvalues --   -0.53851  -0.53292  -0.52123  -0.51971  -0.51889
 Alpha  occ. eigenvalues --   -0.51402  -0.51152  -0.50960  -0.50435  -0.50402
 Alpha  occ. eigenvalues --   -0.49699  -0.49388  -0.49021  -0.48956  -0.48912
 Alpha  occ. eigenvalues --   -0.48479  -0.48416  -0.48254  -0.48150  -0.48010
 Alpha  occ. eigenvalues --   -0.47904  -0.47710  -0.47588  -0.46885  -0.46736
 Alpha  occ. eigenvalues --   -0.46584  -0.46267  -0.46138  -0.45946  -0.45767
 Alpha  occ. eigenvalues --   -0.45733  -0.45469  -0.45218  -0.45101  -0.44997
 Alpha  occ. eigenvalues --   -0.44535  -0.44343  -0.44114  -0.44073  -0.44052
 Alpha  occ. eigenvalues --   -0.43902  -0.43732  -0.43458  -0.43114  -0.42799
 Alpha  occ. eigenvalues --   -0.42703  -0.42581  -0.42434  -0.42248  -0.42193
 Alpha  occ. eigenvalues --   -0.41886  -0.41703  -0.41377  -0.41180  -0.41008
 Alpha  occ. eigenvalues --   -0.40920  -0.40706  -0.40674  -0.40595  -0.40215
 Alpha  occ. eigenvalues --   -0.39935  -0.39669  -0.39487  -0.39450  -0.39182
 Alpha  occ. eigenvalues --   -0.38756  -0.38540  -0.38454  -0.38183  -0.37800
 Alpha  occ. eigenvalues --   -0.37719  -0.37673  -0.37381  -0.37276  -0.37126
 Alpha  occ. eigenvalues --   -0.36967  -0.36908  -0.36851  -0.36015  -0.35554
 Alpha  occ. eigenvalues --   -0.35143  -0.35076  -0.35016  -0.34469  -0.34433
 Alpha  occ. eigenvalues --   -0.33878  -0.33677  -0.33645  -0.33529  -0.33367
 Alpha  occ. eigenvalues --   -0.33034  -0.32321  -0.32106  -0.32091  -0.31424
 Alpha  occ. eigenvalues --   -0.30999  -0.30794  -0.29899  -0.29749  -0.29367
 Alpha  occ. eigenvalues --   -0.29061  -0.28346  -0.28210  -0.27877  -0.27788
 Alpha  occ. eigenvalues --   -0.27575  -0.26772  -0.22997  -0.20469
 Alpha virt. eigenvalues --   -0.07973  -0.05570  -0.00973  -0.00302   0.00668
 Alpha virt. eigenvalues --    0.01118   0.03006   0.03537   0.04636   0.05009
 Alpha virt. eigenvalues --    0.05509   0.06112   0.08511   0.08630   0.08954

 Mulliken charges:
               1
     1  Mg   0.852201
     2  C    0.013724
     3  C   -0.230974
     4  C   -0.172430
     5  C   -0.119960
     6  N   -0.646741
     7  C    0.348002
     8  C   -0.153504
     9  C   -0.150434
    10  C    0.376406
    11  C   -0.319604
    12  C   -0.164689
    13  C   -0.256585
    14  C    0.600348
    15  O   -0.490071
    16  O   -0.434064
    17  N   -0.761578
    18  C    0.332574
    19  C    0.001349
    20  C   -0.048351
    21  C    0.321828
    22  C   -0.379094
    23  C    0.271235
    24  O   -0.384125
    25  N   -0.651827
    26  C    0.262878
    27  C   -0.047689
    28  C    0.001720
    29  C    0.303084
    30  C    0.270476
    31  C   -0.252800
    32  C   -0.298480
    33  N   -0.665661
    34  C    0.223037
    35  C    0.063285
    36  C   -0.010150
    37  C    0.283710
    38  C   -0.424560
    39  C    0.378299
    40  O   -0.459292
    41  C   -0.268048
    42  C    0.611128
    43  O   -0.500132
    44  O   -0.457714
    45  C   -0.092043
    46  C    0.001021
    47  C   -0.124726
    48  C    0.120756
    49  C   -0.324823
    50  C   -0.235973
    51  C   -0.159560
    52  C   -0.197703
    53  C   -0.035801
    54  C   -0.288866
    55  C   -0.172448
    56  C   -0.182796
    57  C   -0.166774
    58  C   -0.058206
    59  C   -0.294093
    60  C   -0.185091
    61  C   -0.171693
    62  C   -0.135910
    63  C   -0.069650
    64  C   -0.317952
    65  C   -0.296266
    66  H    0.076937
    67  H    0.138154
    68  H    0.067285
    69  H    0.128544
    70  H    0.109952
    71  H    0.125729
    72  H    0.104702
    73  H    0.116657
    74  H    0.128790
    75  H    0.121174
    76  H    0.102127
    77  H    0.111626
    78  H    0.114745
    79  H    0.148780
    80  H    0.135301
    81  H    0.093124
    82  H    0.103318
    83  H    0.110291
    84  H    0.119508
    85  H    0.109986
    86  H    0.117791
    87  H    0.141207
    88  H    0.141743
    89  H    0.133757
    90  H    0.154181
    91  H    0.115703
    92  H    0.133965
    93  H    0.080324
    94  H    0.118599
    95  H    0.125682
    96  H    0.081450
    97  H    0.114323
    98  H    0.065334
    99  H    0.122776
   100  H    0.072981
   101  H    0.087449
   102  H    0.097258
   103  H    0.097967
   104  H    0.096240
   105  H    0.078302
   106  H    0.098719
   107  H    0.056131
   108  H    0.093225
   109  H    0.082645
   110  H    0.081407
   111  H    0.098118
   112  H    0.059695
   113  H    0.088688
   114  H    0.117402
   115  H    0.083129
   116  H    0.105572
   117  H    0.067946
   118  H    0.089008
   119  H    0.054445
   120  H    0.103062
   121  H    0.097119
   122  H    0.065505
   123  H    0.084067
   124  H    0.098124
   125  H    0.111858
   126  H    0.098872
   127  H    0.093486
   128  H    0.109828
   129  H    0.088084
   130  H    0.122261
   131  H    0.144327
   132  H    0.132303
   133  O   -0.414922
   134  H    0.068001
 Sum of Mulliken charges =  -0.00000

 Dipole moment (field-independent basis, Debye):
    X=              2.7709    Y=             -2.8233    Z=             -1.0759  Tot=              4.0996
 Quadrupole moment (field-independent basis, Debye-Ang):
   XX=           -376.6771   YY=           -428.2510   ZZ=           -392.6966
   XY=             -6.9701   XZ=             21.8712   YZ=            -34.1320

 Normal termination of Gaussian 16 at Tue Oct  8 08:31:18 2019.
