 Gaussian 16, Revision A.03,
 Gaussian 16:  ES64L-G16RevA.03 25-Dec-2016

 ----------------------------------------------------------------------
 # td=(NStates=1) iop(3/107=0140000000,3/108=0140000000) iop(3/107=0140
 000000,3/108=0140000000) CAM-B3LYP/6-31G(d,p)
 ----------------------------------------------------------------------

 --
 TD
 --
 Symbolic Z-matrix:
 Charge =  0 Multiplicity = 1

                         Standard orientation:
 ---------------------------------------------------------------------
 Center     Atomic      Atomic             Coordinates (Angstroms)
 Number     Number       Type             X           Y           Z
 ---------------------------------------------------------------------
      1         12           0       -5.551677    1.210399    0.224587
      2          6           0       -4.953341   -2.130298   -0.383440
      3          6           0       -3.301214    1.151733    2.684471
      4          6           0       -6.169554    4.524349    0.648106
      5          6           0       -8.034319    1.205033   -2.246681
      6          7           0       -4.312034   -0.284819    1.053783
      7          6           0       -4.192574   -1.569986    0.646235
      8          6           0       -3.214150   -2.369603    1.497105
      9          6           0       -2.843445   -1.353491    2.551120
     10          6           0       -3.481339   -0.038887    2.094445
     11          6           0       -3.319197   -1.715105    3.965522
     12          6           0       -2.009953   -2.785190    0.561852
     13          6           0       -1.019339   -3.623342    1.252599
     14          6           0        0.262798   -3.931370    0.458324
     15          8           0        0.444379   -3.476567   -0.660041
     16          8           0        1.070435   -4.770743    1.047317
     17          7           0       -4.895038    2.541382    1.464490
     18          6           0       -3.852122    2.451736    2.405429
     19          6           0       -3.581862    3.602249    3.149593
     20          6           0       -4.313288    4.614574    2.532407
     21          6           0       -5.197365    3.940198    1.496955
     22          6           0       -2.530104    3.913141    4.123891
     23          6           0       -4.404762    5.964541    2.860584
     24          8           0       -3.834593    6.700819    3.708412
     25          7           0       -6.980864    2.616081   -0.701462
     26          6           0       -6.963066    3.888818   -0.320377
     27          6           0       -7.931643    4.651597   -1.200219
     28          6           0       -8.491077    3.660221   -1.967753
     29          6           0       -7.872491    2.425548   -1.689872
     30          6           0       -8.261864    6.003213   -1.058280
     31          6           0       -9.506687    3.867051   -3.114628
     32          6           0       -8.905906    4.335439   -4.412057
     33          7           0       -6.348611   -0.095379   -0.993748
     34          6           0       -7.347932    0.038878   -2.049530
     35          6           0       -7.614727   -1.282591   -2.637792
     36          6           0       -6.659022   -2.133370   -2.050481
     37          6           0       -6.009261   -1.410425   -1.047017
     38          6           0       -8.633099   -1.673890   -3.631854
     39          6           0       -6.321817   -3.560957   -1.979833
     40          8           0       -6.673046   -4.550544   -2.577174
     41          6           0       -5.132236   -3.612657   -0.915984
     42          6           0       -5.424252   -4.627125    0.212338
     43          8           0       -5.828795   -4.409281    1.333894
     44          8           0       -5.210972   -5.926979   -0.345190
     45          6           0       -5.495172   -6.877479    0.709783
     46          6           0        2.322385   -5.114974    0.353251
     47          6           0        3.364544   -4.277646    0.935325
     48          6           0        3.986458   -3.346257    0.196779
     49          6           0        3.731403   -3.055615   -1.301920
     50          6           0        5.017045   -2.435276    0.683080
     51          6           0        6.459972   -2.736022    0.056877
     52          6           0        7.564295   -1.870522    0.627121
     53          6           0        8.929516   -2.128741   -0.040153
     54          6           0        9.550261   -3.472060    0.096712
     55          6           0        9.896729   -1.012068    0.348839
     56          6           0       11.323399   -0.931759   -0.432441
     57          6           0       12.202704    0.269306    0.189721
     58          6           0       13.652824    0.361521   -0.438155
     59          6           0       14.550830   -0.790793   -0.201606
     60          6           0       14.277387    1.720403   -0.083240
     61          6           0       15.490846    2.160933   -0.976832
     62          6           0       16.030320    3.557366   -0.626665
     63          6           0       17.279732    4.022662   -1.419069
     64          6           0       17.114022    4.056911   -2.817165
     65          6           0       17.766930    5.301603   -0.728816
     66          1           0       -2.510536    1.227405    3.513918
     67          1           0       -6.303580    5.723255    0.595040
     68          1           0       -8.760804    1.369586   -3.110376
     69          1           0       -3.743354   -3.338784    1.999905
     70          1           0       -1.754735   -1.051897    2.727156
     71          1           0       -2.885734   -2.546244    4.322909
     72          1           0       -3.032607   -0.980339    4.715577
     73          1           0       -4.448464   -1.869734    4.143618
     74          1           0       -2.512229   -3.104521   -0.352065
     75          1           0       -1.266686   -1.851048    0.392350
     76          1           0       -0.578333   -3.141314    2.152419
     77          1           0       -1.436740   -4.624683    1.757979
     78          1           0       -1.515878    3.546218    3.953638
     79          1           0       -2.711831    4.887480    4.287775
     80          1           0       -2.713703    3.357967    5.095752
     81          1           0       -5.208026    6.504275    2.022913
     82          1           0      -10.123849    2.992622   -3.086773
     83          1           0      -10.127295    4.687269   -2.717913
     84          1           0       -9.734244    4.437497   -5.146330
     85          1           0       -8.408324    5.278516   -4.166849
     86          1           0       -8.239446    3.492002   -4.777374
     87          1           0       -8.424376   -1.121820   -4.455373
     88          1           0       -8.838188   -2.639498   -3.685543
     89          1           0       -9.650032   -0.954582   -3.330845
     90          1           0       -4.470431   -4.165083   -1.554689
     91          1           0        2.447063   -6.042869    0.796367
     92          1           0        2.305009   -5.142312   -0.792545
     93          1           0        3.570203   -4.220079    1.988179
     94          1           0        2.850971   -3.563727   -1.626213
     95          1           0        3.738688   -2.011384   -1.544344
     96          1           0        4.520925   -3.561832   -2.007130
     97          1           0        4.806162   -1.284524    0.613940
     98          1           0        5.060780   -2.641620    1.822325
     99          1           0        6.486290   -3.616296    0.217403
    100          1           0        6.306484   -2.669061   -0.971987
    101          1           0        7.508397   -0.722379    0.504510
    102          1           0        7.596240   -1.980273    1.683023
    103          1           0        8.824382   -2.018900   -1.253302
    104          1           0        8.756724   -4.315202   -0.161024
    105          1           0       10.426485   -3.695688   -0.499894
    106          1           0        9.882077   -3.759835    1.236572
    107          1           0        9.343444   -0.082508    0.079669
    108          1           0       10.314115   -0.859850    1.343456
    109          1           0       12.007075   -1.910317   -0.166228
    110          1           0       11.111565   -0.855129   -1.558879
    111          1           0       11.690564    1.164170   -0.067971
    112          1           0       12.158382    0.242186    1.258644
    113          1           0       13.416820    0.493940   -1.708583
    114          1           0       14.592837   -0.799015    0.876612
    115          1           0       14.384768   -1.771139   -0.568934
    116          1           0       15.542705   -0.564098   -0.752441
    117          1           0       13.700905    2.566196   -0.202967
    118          1           0       14.609673    1.511804    0.916716
    119          1           0       16.457208    1.621845   -0.903897
    120          1           0       15.246294    2.163503   -2.001172
    121          1           0       15.215166    4.327120   -0.785404
    122          1           0       16.212950    3.471307    0.402397
    123          1           0       18.138206    3.232245   -1.238515
    124          1           0       16.419698    4.803114   -3.250371
    125          1           0       18.097031    4.373958   -3.223363
    126          1           0       16.926762    3.164341   -3.480916
    127          1           0       18.027013    5.274209    0.294856
    128          1           0       18.663303    5.766307   -1.167664
    129          1           0       17.022977    6.076896   -0.961470
    130          1           0       -4.948771   -7.842236    0.174223
    131          1           0       -6.529693   -6.941959    0.769952
    132          1           0       -4.803000   -6.679823    1.521758
    133          8           0       -7.701708    6.934872   -0.392926
    134          1           0       -9.172411    6.276958   -1.672653
 ---------------------------------------------------------------------

 SCF Done:  E(RCAM-B3LYP) =  -3043.51137994     A.U. after   16 cycles

 Excitation energies and oscillator strengths:

 Excited State   1:      Singlet-A      2.0115 eV  616.38 nm  f=0.1583  <S**2>=0.000
     243 -> 245        0.10764
     243 -> 246       -0.28920
     244 -> 245        0.62578
 This state for optimization and/or second-order correction.
 Total Energy, E(TD-HF/TD-DFT) =  -3043.43745907
 Copying the excited state density for this state as the 1-particle RhoCI density.

 The electronic state is 1-A.
 Alpha  occ. eigenvalues --  -46.81273 -19.22729 -19.21969 -19.18825 -19.17960
 Alpha  occ. eigenvalues --  -19.17279 -19.17042 -19.15935 -14.38932 -14.38139
 Alpha  occ. eigenvalues --  -14.37292 -14.36904 -10.35713 -10.34420 -10.32227
 Alpha  occ. eigenvalues --  -10.30813 -10.30394 -10.28070 -10.28040 -10.27859
 Alpha  occ. eigenvalues --  -10.27453 -10.27396 -10.27368 -10.27184 -10.26576
 Alpha  occ. eigenvalues --  -10.26546 -10.26504 -10.25441 -10.25434 -10.25148
 Alpha  occ. eigenvalues --  -10.24958 -10.24939 -10.24845 -10.24796 -10.24760
 Alpha  occ. eigenvalues --  -10.24717 -10.24579 -10.24120 -10.24075 -10.23441
 Alpha  occ. eigenvalues --  -10.23404 -10.23288 -10.23172 -10.23154 -10.22993
 Alpha  occ. eigenvalues --  -10.22986 -10.22969 -10.22882 -10.22814 -10.22503
 Alpha  occ. eigenvalues --  -10.22055 -10.21691 -10.21611 -10.21522 -10.21504
 Alpha  occ. eigenvalues --  -10.21473 -10.21122 -10.21042 -10.20737 -10.20163
 Alpha  occ. eigenvalues --  -10.20144 -10.20067 -10.19763 -10.19753 -10.19684
 Alpha  occ. eigenvalues --  -10.19338  -3.10071  -1.84981  -1.84563  -1.84496
 Alpha  occ. eigenvalues --   -1.14276  -1.12176  -1.08160  -1.04999  -1.04301
 Alpha  occ. eigenvalues --   -1.03990  -1.03760  -1.01420  -1.01009  -0.98920
 Alpha  occ. eigenvalues --   -0.98398  -0.88045  -0.86943  -0.86144  -0.85851
 Alpha  occ. eigenvalues --   -0.85342  -0.85316  -0.85016  -0.84704  -0.84479
 Alpha  occ. eigenvalues --   -0.84022  -0.83629  -0.82073  -0.80993  -0.79875
 Alpha  occ. eigenvalues --   -0.79679  -0.78538  -0.78284  -0.77199  -0.76969
 Alpha  occ. eigenvalues --   -0.76298  -0.75267  -0.74713  -0.73620  -0.72204
 Alpha  occ. eigenvalues --   -0.72090  -0.71539  -0.70970  -0.70891  -0.70401
 Alpha  occ. eigenvalues --   -0.70175  -0.69381  -0.68049  -0.67306  -0.66589
 Alpha  occ. eigenvalues --   -0.66520  -0.64960  -0.64715  -0.63119  -0.62622
 Alpha  occ. eigenvalues --   -0.61572  -0.60639  -0.60417  -0.58739  -0.58657
 Alpha  occ. eigenvalues --   -0.58351  -0.57751  -0.57593  -0.56979  -0.56881
 Alpha  occ. eigenvalues --   -0.56770  -0.55932  -0.55586  -0.54787  -0.54400
 Alpha  occ. eigenvalues --   -0.53746  -0.53367  -0.52979  -0.52668  -0.52433
 Alpha  occ. eigenvalues --   -0.51867  -0.51837  -0.51775  -0.51232  -0.50910
 Alpha  occ. eigenvalues --   -0.50749  -0.50207  -0.49998  -0.49861  -0.49668
 Alpha  occ. eigenvalues --   -0.49332  -0.49061  -0.48675  -0.48330  -0.48281
 Alpha  occ. eigenvalues --   -0.47927  -0.47908  -0.47381  -0.47203  -0.47156
 Alpha  occ. eigenvalues --   -0.46892  -0.46675  -0.46557  -0.46268  -0.45945
 Alpha  occ. eigenvalues --   -0.45770  -0.45524  -0.45467  -0.45056  -0.44926
 Alpha  occ. eigenvalues --   -0.44782  -0.44561  -0.44333  -0.44320  -0.44150
 Alpha  occ. eigenvalues --   -0.44021  -0.43917  -0.43655  -0.42982  -0.42755
 Alpha  occ. eigenvalues --   -0.42526  -0.42446  -0.42301  -0.42015  -0.41743
 Alpha  occ. eigenvalues --   -0.41502  -0.41419  -0.41321  -0.41129  -0.40988
 Alpha  occ. eigenvalues --   -0.40736  -0.40679  -0.40538  -0.40430  -0.40299
 Alpha  occ. eigenvalues --   -0.40166  -0.40132  -0.39908  -0.39553  -0.39406
 Alpha  occ. eigenvalues --   -0.39117  -0.39040  -0.38855  -0.38770  -0.38537
 Alpha  occ. eigenvalues --   -0.38061  -0.37794  -0.37593  -0.37518  -0.37131
 Alpha  occ. eigenvalues --   -0.37008  -0.36550  -0.36417  -0.36109  -0.35726
 Alpha  occ. eigenvalues --   -0.35692  -0.35322  -0.35180  -0.35118  -0.34593
 Alpha  occ. eigenvalues --   -0.34296  -0.34162  -0.33885  -0.33559  -0.33416
 Alpha  occ. eigenvalues --   -0.32860  -0.32602  -0.32534  -0.32517  -0.31975
 Alpha  occ. eigenvalues --   -0.31611  -0.31596  -0.30406  -0.30340  -0.29814
 Alpha  occ. eigenvalues --   -0.29081  -0.28808  -0.28598  -0.28312  -0.27753
 Alpha  occ. eigenvalues --   -0.27530  -0.27099  -0.23276  -0.22589
 Alpha virt. eigenvalues --   -0.09518  -0.07312  -0.01828  -0.01780   0.00414
 Alpha virt. eigenvalues --    0.02189   0.02873   0.03340   0.04222   0.04439
 Alpha virt. eigenvalues --    0.04920   0.06087   0.08041   0.08109   0.08932

 Mulliken charges:
               1
     1  Mg   0.836351
     2  C    0.042674
     3  C   -0.213798
     4  C   -0.192483
     5  C   -0.165692
     6  N   -0.646270
     7  C    0.304654
     8  C   -0.156863
     9  C   -0.143374
    10  C    0.388809
    11  C   -0.319144
    12  C   -0.143778
    13  C   -0.268751
    14  C    0.598251
    15  O   -0.485343
    16  O   -0.451962
    17  N   -0.709855
    18  C    0.292304
    19  C    0.082375
    20  C    0.027516
    21  C    0.288580
    22  C   -0.378685
    23  C    0.207431
    24  O   -0.442158
    25  N   -0.688652
    26  C    0.309731
    27  C    0.030908
    28  C   -0.020595
    29  C    0.329231
    30  C    0.212527
    31  C   -0.246743
    32  C   -0.287118
    33  N   -0.719199
    34  C    0.253110
    35  C    0.044051
    36  C   -0.007719
    37  C    0.316983
    38  C   -0.345650
    39  C    0.368648
    40  O   -0.443107
    41  C   -0.312002
    42  C    0.617004
    43  O   -0.460254
    44  O   -0.470238
    45  C   -0.072624
    46  C    0.005817
    47  C   -0.137647
    48  C    0.157645
    49  C   -0.369228
    50  C   -0.259508
    51  C   -0.141163
    52  C   -0.167456
    53  C   -0.035273
    54  C   -0.294202
    55  C   -0.175195
    56  C   -0.184517
    57  C   -0.185081
    58  C   -0.043396
    59  C   -0.304327
    60  C   -0.153119
    61  C   -0.196103
    62  C   -0.166476
    63  C   -0.043776
    64  C   -0.310495
    65  C   -0.314442
    66  H    0.072794
    67  H    0.165935
    68  H    0.080410
    69  H    0.126754
    70  H    0.102565
    71  H    0.121658
    72  H    0.106120
    73  H    0.114360
    74  H    0.125404
    75  H    0.106631
    76  H    0.131638
    77  H    0.105158
    78  H    0.135356
    79  H    0.159808
    80  H    0.114831
    81  H    0.040701
    82  H    0.108651
    83  H    0.112466
    84  H    0.116349
    85  H    0.123505
    86  H    0.105171
    87  H    0.154602
    88  H    0.151650
    89  H    0.085975
    90  H    0.168872
    91  H    0.119310
    92  H    0.139230
    93  H    0.088261
    94  H    0.131856
    95  H    0.126308
    96  H    0.096670
    97  H    0.093597
    98  H    0.067864
    99  H    0.106649
   100  H    0.102139
   101  H    0.080880
   102  H    0.101578
   103  H    0.061290
   104  H    0.077086
   105  H    0.117805
   106  H    0.068498
   107  H    0.084129
   108  H    0.093703
   109  H    0.070375
   110  H    0.087538
   111  H    0.100390
   112  H    0.089416
   113  H    0.022264
   114  H    0.099888
   115  H    0.116340
   116  H    0.098241
   117  H    0.102551
   118  H    0.086846
   119  H    0.084740
   120  H    0.096315
   121  H    0.069193
   122  H    0.095004
   123  H    0.065378
   124  H    0.095397
   125  H    0.097588
   126  H    0.107258
   127  H    0.113752
   128  H    0.090402
   129  H    0.099374
   130  H    0.095596
   131  H    0.147217
   132  H    0.133620
   133  O   -0.458385
   134  H    0.058349
 Sum of Mulliken charges =  -0.00000

 Dipole moment (field-independent basis, Debye):
    X=              2.4010    Y=             -5.8486    Z=             -1.1890  Tot=              6.4331
 Quadrupole moment (field-independent basis, Debye-Ang):
   XX=           -366.0353   YY=           -456.8113   ZZ=           -391.1092
   XY=             16.8511   XZ=             28.9979   YZ=            -37.9325

 Normal termination of Gaussian 16 at Mon Oct  7 20:35:20 2019.
