 Gaussian 16, Revision A.03,
 Gaussian 16:  ES64L-G16RevA.03 25-Dec-2016

 ----------------------------------------------------------------------
 # td=(NStates=1) iop(3/107=0140000000,3/108=0140000000) iop(3/107=0140
 000000,3/108=0140000000) CAM-B3LYP/6-31G(d,p)
 ----------------------------------------------------------------------

 --
 TD
 --
 Symbolic Z-matrix:
 Charge =  0 Multiplicity = 1

                         Standard orientation:
 ---------------------------------------------------------------------
 Center     Atomic      Atomic             Coordinates (Angstroms)
 Number     Number       Type             X           Y           Z
 ---------------------------------------------------------------------
      1         12           0       -5.691484    1.159837    0.273519
      2          6           0       -5.107374   -2.083294   -0.390380
      3          6           0       -3.248505    1.110805    2.691664
      4          6           0       -6.199585    4.428835    0.764696
      5          6           0       -7.941257    1.283209   -2.483109
      6          7           0       -4.528047   -0.270496    1.172886
      7          6           0       -4.367624   -1.536589    0.622799
      8          6           0       -3.343983   -2.426709    1.405817
      9          6           0       -2.874621   -1.355989    2.539577
     10          6           0       -3.615144   -0.092850    2.172047
     11          6           0       -3.353244   -1.847518    3.836736
     12          6           0       -2.096080   -2.759136    0.542068
     13          6           0       -0.984825   -3.550657    1.337232
     14          6           0        0.219805   -3.741405    0.457867
     15          8           0        0.491710   -3.298617   -0.586133
     16          8           0        0.980612   -4.698307    1.223306
     17          7           0       -5.008362    2.541309    1.579131
     18          6           0       -3.975019    2.361230    2.457794
     19          6           0       -3.657522    3.583794    3.105488
     20          6           0       -4.429656    4.518067    2.597593
     21          6           0       -5.275123    3.833176    1.609713
     22          6           0       -2.655792    3.667695    4.211961
     23          6           0       -4.499898    5.873179    2.957708
     24          8           0       -3.787226    6.408684    3.861715
     25          7           0       -6.858756    2.635688   -0.740890
     26          6           0       -6.942715    4.007341   -0.326181
     27          6           0       -7.924838    4.695078   -1.157662
     28          6           0       -8.481107    3.773217   -1.972263
     29          6           0       -7.795101    2.514128   -1.718736
     30          6           0       -8.241999    6.046801   -1.094557
     31          6           0       -9.470144    3.931641   -3.114195
     32          6           0       -8.738086    4.111016   -4.443260
     33          7           0       -6.295866   -0.090500   -1.167629
     34          6           0       -7.392737    0.027237   -2.063603
     35          6           0       -7.597250   -1.324903   -2.695271
     36          6           0       -6.688723   -2.115735   -2.044183
     37          6           0       -5.948479   -1.389115   -1.094789
     38          6           0       -8.579728   -1.697439   -3.634700
     39          6           0       -6.159573   -3.444072   -1.964244
     40          8           0       -6.600668   -4.504271   -2.488326
     41          6           0       -5.111997   -3.561828   -0.888833
     42          6           0       -5.514420   -4.536185    0.208415
     43          8           0       -5.867726   -4.458448    1.299610
     44          8           0       -5.065716   -5.819902   -0.321292
     45          6           0       -5.490399   -6.969930    0.455080
     46          6           0        2.200639   -4.938434    0.352490
     47          6           0        3.347233   -4.025156    0.848027
     48          6           0        3.921952   -3.181774    0.066853
     49          6           0        3.741640   -2.935695   -1.386282
     50          6           0        5.256590   -2.436417    0.674227
     51          6           0        6.523024   -2.661493    0.012969
     52          6           0        7.649522   -1.856673    0.703139
     53          6           0        9.053004   -2.014591   -0.013758
     54          6           0        9.531866   -3.491454    0.310860
     55          6           0       10.062053   -0.955480    0.508773
     56          6           0       11.306408   -0.890326   -0.285836
     57          6           0       12.242492    0.222309    0.230173
     58          6           0       13.457640    0.472458   -0.566564
     59          6           0       14.487699   -0.689690   -0.367369
     60          6           0       14.235113    1.798124   -0.211087
     61          6           0       15.432299    2.199804   -1.053109
     62          6           0       16.163229    3.410185   -0.585917
     63          6           0       17.402988    3.873061   -1.346689
     64          6           0       17.159860    3.962166   -2.868251
     65          6           0       17.997951    5.086037   -0.641195
     66          1           0       -2.377290    1.482653    3.305380
     67          1           0       -6.420297    5.449988    0.804392
     68          1           0       -8.796689    0.980846   -3.265292
     69          1           0       -3.817378   -3.097366    1.883147
     70          1           0       -1.855904   -1.250590    2.520598
     71          1           0       -2.937464   -2.866719    4.116549
     72          1           0       -3.102361   -1.023380    4.604502
     73          1           0       -4.535707   -1.774118    4.044933
     74          1           0       -2.375413   -3.328033   -0.248752
     75          1           0       -1.619922   -1.850917    0.235646
     76          1           0       -0.756533   -3.084469    2.366521
     77          1           0       -1.309131   -4.460306    1.728937
     78          1           0       -1.525061    3.441930    3.936790
     79          1           0       -2.560434    4.708676    4.757138
     80          1           0       -3.048242    2.864452    4.895824
     81          1           0       -5.196825    6.671209    2.383374
     82          1           0      -10.574145    3.300359   -3.088829
     83          1           0      -10.248535    4.950757   -2.989602
     84          1           0       -9.549962    4.355549   -5.126871
     85          1           0       -7.947445    4.983565   -4.228616
     86          1           0       -8.169425    3.223308   -4.475698
     87          1           0       -8.666393   -1.048658   -4.735622
     88          1           0       -8.526506   -2.813838   -3.891594
     89          1           0       -9.601301   -1.506762   -3.336126
     90          1           0       -4.226743   -3.997334   -1.537891
     91          1           0        2.404721   -6.045729    0.388745
     92          1           0        2.017310   -4.764515   -0.622402
     93          1           0        3.565896   -4.057705    1.903173
     94          1           0        2.867772   -3.440984   -1.816139
     95          1           0        3.656623   -1.793438   -1.455924
     96          1           0        4.647950   -3.142327   -2.229073
     97          1           0        4.792298   -1.327684    0.565724
     98          1           0        5.313191   -2.578273    1.879682
     99          1           0        6.759178   -3.648402    0.002573
    100          1           0        6.406745   -2.356788   -1.017700
    101          1           0        7.434160   -0.764816    0.619853
    102          1           0        7.790166   -2.142951    1.887731
    103          1           0        9.099503   -1.835103   -1.015187
    104          1           0        9.037462   -4.228396   -0.017900
    105          1           0       10.653449   -3.749927    0.074141
    106          1           0        9.476622   -3.764419    1.347111
    107          1           0        9.708822   -0.005749    0.257052
    108          1           0       10.303998   -1.208396    1.495665
    109          1           0       11.910836   -1.893340   -0.458766
    110          1           0       11.124651   -0.709511   -1.415278
    111          1           0       11.622853    1.018435    0.119688
    112          1           0       12.282287   -0.053719    1.374823
    113          1           0       13.129984    0.456548   -1.766797
    114          1           0       14.576063   -0.900677    0.692599
    115          1           0       13.962425   -1.781838   -0.549562
    116          1           0       15.385451   -0.576113   -0.956466
    117          1           0       13.496445    2.535553   -0.261530
    118          1           0       14.686818    1.896392    0.816186
    119          1           0       16.349645    1.510781   -1.113395
    120          1           0       14.994629    2.081830   -2.023028
    121          1           0       15.367164    4.212452   -0.496980
    122          1           0       16.537161    3.322288    0.325163
    123          1           0       18.269424    2.982871   -1.311097
    124          1           0       16.447676    4.722588   -3.139010
    125          1           0       18.106138    4.066937   -3.499557
    126          1           0       16.552219    3.168324   -3.291062
    127          1           0       17.793451    4.947040    0.375399
    128          1           0       19.131142    5.059113   -1.044631
    129          1           0       17.553005    6.087356   -1.233551
    130          1           0       -5.250560   -7.817165   -0.156091
    131          1           0       -6.518897   -6.973802    0.499791
    132          1           0       -4.791077   -6.940368    1.272154
    133          8           0       -7.505069    6.912523   -0.556035
    134          1           0       -9.084739    6.479152   -1.932868
 ---------------------------------------------------------------------

 SCF Done:  E(RCAM-B3LYP) =  -3043.35446194     A.U. after   16 cycles

 Excitation energies and oscillator strengths:

 Excited State   1:      Singlet-A      2.0128 eV  615.98 nm  f=0.2017  <S**2>=0.000
     243 -> 246       -0.26586
     244 -> 245        0.64420
 This state for optimization and/or second-order correction.
 Total Energy, E(TD-HF/TD-DFT) =  -3043.28049314
 Copying the excited state density for this state as the 1-particle RhoCI density.

 The electronic state is 1-A.
 Alpha  occ. eigenvalues --  -46.81675 -19.21277 -19.19946 -19.19648 -19.19602
 Alpha  occ. eigenvalues --  -19.17434 -19.16556 -19.16180 -14.39826 -14.37786
 Alpha  occ. eigenvalues --  -14.37514 -14.36927 -10.35955 -10.35446 -10.31265
 Alpha  occ. eigenvalues --  -10.31197 -10.30283 -10.28450 -10.27885 -10.27732
 Alpha  occ. eigenvalues --  -10.27505 -10.26808 -10.26751 -10.26710 -10.26486
 Alpha  occ. eigenvalues --  -10.26473 -10.26402 -10.26273 -10.26270 -10.25389
 Alpha  occ. eigenvalues --  -10.25331 -10.25324 -10.24707 -10.23966 -10.23729
 Alpha  occ. eigenvalues --  -10.23673 -10.23665 -10.23624 -10.23583 -10.23398
 Alpha  occ. eigenvalues --  -10.23340 -10.23326 -10.23283 -10.23212 -10.23130
 Alpha  occ. eigenvalues --  -10.23104 -10.23025 -10.22833 -10.22820 -10.22791
 Alpha  occ. eigenvalues --  -10.22681 -10.22620 -10.22468 -10.22244 -10.21567
 Alpha  occ. eigenvalues --  -10.21209 -10.20911 -10.20514 -10.20439 -10.20428
 Alpha  occ. eigenvalues --  -10.20340 -10.20339 -10.19882 -10.19775 -10.19618
 Alpha  occ. eigenvalues --  -10.19063  -3.10372  -1.85308  -1.84869  -1.84763
 Alpha  occ. eigenvalues --   -1.14884  -1.13871  -1.05083  -1.05044  -1.04519
 Alpha  occ. eigenvalues --   -1.04051  -1.03527  -1.01954  -1.00814  -0.99575
 Alpha  occ. eigenvalues --   -0.98924  -0.90427  -0.86374  -0.86176  -0.86007
 Alpha  occ. eigenvalues --   -0.85579  -0.85409  -0.85273  -0.84860  -0.84365
 Alpha  occ. eigenvalues --   -0.83848  -0.83182  -0.81944  -0.81015  -0.80382
 Alpha  occ. eigenvalues --   -0.79780  -0.78694  -0.78528  -0.77369  -0.76347
 Alpha  occ. eigenvalues --   -0.75811  -0.75270  -0.73774  -0.72986  -0.72338
 Alpha  occ. eigenvalues --   -0.71623  -0.71280  -0.70613  -0.70092  -0.70015
 Alpha  occ. eigenvalues --   -0.69761  -0.68736  -0.67678  -0.67230  -0.66787
 Alpha  occ. eigenvalues --   -0.65128  -0.64555  -0.64236  -0.63643  -0.62791
 Alpha  occ. eigenvalues --   -0.62040  -0.60851  -0.60387  -0.59869  -0.59119
 Alpha  occ. eigenvalues --   -0.58542  -0.57974  -0.57803  -0.57464  -0.56919
 Alpha  occ. eigenvalues --   -0.56593  -0.56408  -0.55812  -0.55453  -0.54556
 Alpha  occ. eigenvalues --   -0.54376  -0.53884  -0.53483  -0.53124  -0.52631
 Alpha  occ. eigenvalues --   -0.52374  -0.52152  -0.51764  -0.51198  -0.51106
 Alpha  occ. eigenvalues --   -0.50423  -0.50357  -0.50144  -0.49854  -0.49677
 Alpha  occ. eigenvalues --   -0.49189  -0.48975  -0.48677  -0.48526  -0.48204
 Alpha  occ. eigenvalues --   -0.47966  -0.47547  -0.47442  -0.47339  -0.46966
 Alpha  occ. eigenvalues --   -0.46654  -0.46192  -0.46142  -0.45985  -0.45826
 Alpha  occ. eigenvalues --   -0.45545  -0.45425  -0.45402  -0.45205  -0.45028
 Alpha  occ. eigenvalues --   -0.44875  -0.44410  -0.44089  -0.43969  -0.43651
 Alpha  occ. eigenvalues --   -0.43607  -0.43303  -0.43178  -0.42835  -0.42737
 Alpha  occ. eigenvalues --   -0.42652  -0.42344  -0.42299  -0.42218  -0.41678
 Alpha  occ. eigenvalues --   -0.41511  -0.41365  -0.41200  -0.41085  -0.41055
 Alpha  occ. eigenvalues --   -0.40930  -0.40747  -0.40608  -0.40499  -0.40280
 Alpha  occ. eigenvalues --   -0.40204  -0.39898  -0.39888  -0.39626  -0.39513
 Alpha  occ. eigenvalues --   -0.39420  -0.39366  -0.38921  -0.38625  -0.38477
 Alpha  occ. eigenvalues --   -0.38404  -0.38293  -0.37934  -0.37358  -0.37103
 Alpha  occ. eigenvalues --   -0.36367  -0.36320  -0.36129  -0.35776  -0.35759
 Alpha  occ. eigenvalues --   -0.35271  -0.35002  -0.34902  -0.34628  -0.34150
 Alpha  occ. eigenvalues --   -0.34069  -0.33817  -0.33610  -0.33372  -0.32997
 Alpha  occ. eigenvalues --   -0.32623  -0.32510  -0.32095  -0.32043  -0.31714
 Alpha  occ. eigenvalues --   -0.31648  -0.31524  -0.30914  -0.30836  -0.30278
 Alpha  occ. eigenvalues --   -0.29508  -0.28986  -0.28764  -0.27838  -0.27730
 Alpha  occ. eigenvalues --   -0.27645  -0.26856  -0.23773  -0.22090
 Alpha virt. eigenvalues --   -0.09120  -0.07485  -0.02363  -0.01750  -0.00234
 Alpha virt. eigenvalues --    0.02018   0.02948   0.03117   0.04059   0.04250
 Alpha virt. eigenvalues --    0.04688   0.05199   0.07160   0.07966   0.08495

 Mulliken charges:
               1
     1  Mg   0.820061
     2  C    0.061027
     3  C   -0.154992
     4  C   -0.162815
     5  C   -0.150207
     6  N   -0.639215
     7  C    0.263827
     8  C   -0.127881
     9  C   -0.134257
    10  C    0.315917
    11  C   -0.315270
    12  C   -0.172357
    13  C   -0.289737
    14  C    0.632318
    15  O   -0.427165
    16  O   -0.510060
    17  N   -0.703318
    18  C    0.259327
    19  C    0.075600
    20  C    0.053755
    21  C    0.319483
    22  C   -0.402056
    23  C    0.182873
    24  O   -0.444064
    25  N   -0.644906
    26  C    0.247590
    27  C    0.085498
    28  C    0.041578
    29  C    0.271068
    30  C    0.179187
    31  C   -0.259664
    32  C   -0.283755
    33  N   -0.748899
    34  C    0.217471
    35  C    0.084665
    36  C    0.076001
    37  C    0.371030
    38  C   -0.434049
    39  C    0.302855
    40  O   -0.479903
    41  C   -0.288717
    42  C    0.632840
    43  O   -0.402593
    44  O   -0.509779
    45  C   -0.073556
    46  C   -0.024966
    47  C   -0.121982
    48  C    0.143656
    49  C   -0.359895
    50  C   -0.213228
    51  C   -0.146156
    52  C   -0.168248
    53  C   -0.054421
    54  C   -0.324721
    55  C   -0.152811
    56  C   -0.203976
    57  C   -0.147082
    58  C   -0.054839
    59  C   -0.300365
    60  C   -0.174625
    61  C   -0.172316
    62  C   -0.166855
    63  C   -0.043357
    64  C   -0.317369
    65  C   -0.282027
    66  H    0.098748
    67  H    0.108864
    68  H    0.097808
    69  H    0.119858
    70  H    0.111662
    71  H    0.108819
    72  H    0.098568
    73  H    0.110459
    74  H    0.118171
    75  H    0.127179
    76  H    0.130647
    77  H    0.150017
    78  H    0.112720
    79  H    0.162385
    80  H    0.123058
    81  H    0.084854
    82  H    0.093749
    83  H    0.065387
    84  H    0.123020
    85  H    0.107840
    86  H    0.128887
    87  H    0.097573
    88  H    0.155116
    89  H    0.149110
    90  H    0.182187
    91  H    0.104911
    92  H    0.134527
    93  H    0.088525
    94  H    0.132237
    95  H    0.113378
    96  H    0.091002
    97  H    0.071455
    98  H    0.069298
    99  H    0.113118
   100  H    0.100912
   101  H    0.087510
   102  H    0.071519
   103  H    0.088316
   104  H    0.113587
   105  H    0.080352
   106  H    0.095878
   107  H    0.098729
   108  H    0.098042
   109  H    0.075533
   110  H    0.068751
   111  H    0.095612
   112  H    0.080291
   113  H    0.056772
   114  H    0.108941
   115  H    0.061219
   116  H    0.110653
   117  H    0.094288
   118  H    0.082955
   119  H    0.078415
   120  H    0.093802
   121  H    0.076966
   122  H    0.103446
   123  H    0.050176
   124  H    0.098002
   125  H    0.090884
   126  H    0.107848
   127  H    0.112970
   128  H    0.090384
   129  H    0.083625
   130  H    0.124799
   131  H    0.133686
   132  H    0.121442
   133  O   -0.423672
   134  H    0.053060
 Sum of Mulliken charges =  -0.00000

 Dipole moment (field-independent basis, Debye):
    X=             -0.1754    Y=             -5.0995    Z=             -1.5404  Tot=              5.3300
 Quadrupole moment (field-independent basis, Debye-Ang):
   XX=           -375.6847   YY=           -453.0581   ZZ=           -399.0303
   XY=             11.5145   XZ=             21.6938   YZ=            -29.9639

 Normal termination of Gaussian 16 at Sat Oct  5 00:51:14 2019.
