 Gaussian 16, Revision A.03,
 Gaussian 16:  ES64L-G16RevA.03 25-Dec-2016

 ----------------------------------------------------------------------
 # td=(NStates=1) iop(3/107=0140000000,3/108=0140000000) iop(3/107=0140
 000000,3/108=0140000000) CAM-B3LYP/6-31G(d,p)
 ----------------------------------------------------------------------

 --
 TD
 --
 Symbolic Z-matrix:
 Charge =  0 Multiplicity = 1

                         Standard orientation:
 ---------------------------------------------------------------------
 Center     Atomic      Atomic             Coordinates (Angstroms)
 Number     Number       Type             X           Y           Z
 ---------------------------------------------------------------------
      1         12           0       -5.506199    1.270242    0.200704
      2          6           0       -4.944277   -2.215944   -0.317931
      3          6           0       -3.380149    1.217813    2.710247
      4          6           0       -6.163613    4.637023    0.581422
      5          6           0       -7.968910    1.174315   -2.416663
      6          7           0       -4.293825   -0.236418    1.043162
      7          6           0       -4.286247   -1.595306    0.709456
      8          6           0       -3.255255   -2.315704    1.592182
      9          6           0       -2.940681   -1.306020    2.733874
     10          6           0       -3.558225   -0.095119    2.104675
     11          6           0       -3.501140   -1.867171    3.965996
     12          6           0       -1.999248   -2.663533    0.628451
     13          6           0       -1.061173   -3.544404    1.416292
     14          6           0        0.276449   -3.823218    0.613606
     15          8           0        0.416958   -3.271087   -0.551704
     16          8           0        1.095896   -4.788926    1.174576
     17          7           0       -4.945103    2.637919    1.440974
     18          6           0       -3.970755    2.448276    2.490645
     19          6           0       -3.772761    3.672065    3.147715
     20          6           0       -4.549713    4.685185    2.475680
     21          6           0       -5.265773    3.955445    1.328182
     22          6           0       -2.810093    3.899725    4.310580
     23          6           0       -4.717063    6.088336    2.931448
     24          8           0       -3.985273    6.619986    3.837382
     25          7           0       -6.905726    2.549745   -0.689848
     26          6           0       -6.949382    3.905073   -0.333493
     27          6           0       -7.928712    4.606688   -1.229279
     28          6           0       -8.460699    3.587437   -2.124492
     29          6           0       -7.795234    2.428403   -1.729030
     30          6           0       -8.374698    5.937022   -1.144284
     31          6           0       -9.570382    3.789837   -3.173212
     32          6           0       -8.885400    4.042077   -4.578070
     33          7           0       -6.397524   -0.191169   -1.027852
     34          6           0       -7.305392   -0.045811   -2.004533
     35          6           0       -7.501082   -1.281443   -2.654912
     36          6           0       -6.566926   -2.209907   -2.125129
     37          6           0       -5.951543   -1.448925   -1.069713
     38          6           0       -8.519476   -1.487383   -3.794582
     39          6           0       -6.193911   -3.590798   -2.001035
     40          8           0       -6.648978   -4.619122   -2.585496
     41          6           0       -5.077518   -3.610175   -0.810631
     42          6           0       -5.370159   -4.766480    0.173534
     43          8           0       -5.816648   -4.570038    1.264402
     44          8           0       -5.017968   -5.924399   -0.343521
     45          6           0       -5.362158   -7.053923    0.519786
     46          6           0        2.329743   -5.035737    0.513180
     47          6           0        3.393466   -4.093445    0.927947
     48          6           0        4.182916   -3.339529    0.112515
     49          6           0        3.789803   -3.200690   -1.441453
     50          6           0        5.264785   -2.454709    0.624299
     51          6           0        6.603688   -2.821264   -0.030015
     52          6           0        7.647012   -1.786344    0.514762
     53          6           0        9.059986   -1.864260   -0.086305
     54          6           0        9.583472   -3.263601    0.222028
     55          6           0       10.021607   -0.894732    0.474295
     56          6           0       11.394160   -0.942872   -0.231131
     57          6           0       12.285621    0.260535    0.123768
     58          6           0       13.632402    0.390301   -0.502979
     59          6           0       14.606880   -0.820776   -0.189586
     60          6           0       14.300482    1.812958   -0.107519
     61          6           0       15.457684    2.197722   -0.988010
     62          6           0       16.034845    3.488284   -0.681630
     63          6           0       17.331636    4.014344   -1.427226
     64          6           0       17.023490    4.087173   -2.938990
     65          6           0       17.756550    5.361919   -0.770210
     66          1           0       -2.753561    1.159735    3.615040
     67          1           0       -6.552992    5.671949    0.606005
     68          1           0       -8.759616    1.105905   -3.131329
     69          1           0       -3.712898   -3.255944    1.940320
     70          1           0       -1.920773   -1.101877    2.878165
     71          1           0       -2.989072   -2.673063    4.365012
     72          1           0       -3.339186   -1.136374    4.840147
     73          1           0       -4.566220   -1.853019    3.801246
     74          1           0       -2.500457   -3.200731   -0.169318
     75          1           0       -1.463612   -1.716796    0.481395
     76          1           0       -1.016465   -3.129142    2.360264
     77          1           0       -1.436843   -4.541389    1.835454
     78          1           0       -1.719649    3.411940    3.926157
     79          1           0       -2.819463    5.060801    4.505636
     80          1           0       -2.991536    3.378714    5.446520
     81          1           0       -5.528819    6.615434    2.388942
     82          1           0      -10.122544    2.963201   -3.241484
     83          1           0      -10.170855    4.577562   -2.843503
     84          1           0       -9.860689    4.373320   -5.008804
     85          1           0       -8.262406    4.940955   -4.421377
     86          1           0       -8.257269    3.159169   -4.659408
     87          1           0       -8.235631   -0.935952   -4.627050
     88          1           0       -8.515773   -2.465904   -4.082387
     89          1           0       -9.683166   -1.369945   -3.814352
     90          1           0       -4.082076   -3.851414   -1.238112
     91          1           0        2.543204   -6.095602    1.052193
     92          1           0        2.332649   -5.063248   -0.512352
     93          1           0        3.656617   -4.164366    1.817803
     94          1           0        2.693192   -2.964564   -1.419789
     95          1           0        4.249560   -2.281685   -1.833189
     96          1           0        4.178110   -4.111601   -2.025526
     97          1           0        4.997187   -1.395392    0.724264
     98          1           0        5.484416   -2.554860    1.689307
     99          1           0        6.884743   -3.795309    0.212631
    100          1           0        6.448605   -2.565995   -0.956774
    101          1           0        7.123637   -0.657282    0.281168
    102          1           0        7.736445   -1.756063    1.686716
    103          1           0        8.830657   -1.874868   -1.138783
    104          1           0        8.902218   -4.179690   -0.297408
    105          1           0       10.684808   -3.463440   -0.330752
    106          1           0        9.959911   -3.471457    1.207504
    107          1           0        9.627900    0.278387    0.295014
    108          1           0       10.043017   -0.867330    1.680148
    109          1           0       11.979128   -1.851979    0.013405
    110          1           0       11.141164   -1.110924   -1.302288
    111          1           0       11.784959    1.190116    0.013056
    112          1           0       12.402924    0.195465    1.175396
    113          1           0       13.621295    0.397692   -1.613883
    114          1           0       14.918884   -0.682075    0.964362
    115          1           0       14.316058   -1.790778   -0.343339
    116          1           0       15.445912   -0.811949   -0.792963
    117          1           0       13.461202    2.511365   -0.080604
    118          1           0       14.590322    1.841410    0.981491
    119          1           0       16.197793    1.336733   -1.007520
    120          1           0       15.118249    2.098102   -2.195795
    121          1           0       15.244111    4.252392   -0.601770
    122          1           0       16.244431    3.405352    0.536095
    123          1           0       17.996187    3.315642   -1.214175
    124          1           0       16.345532    4.706503   -3.253054
    125          1           0       17.934275    4.212122   -3.727500
    126          1           0       16.602274    3.035313   -3.415795
    127          1           0       17.923780    5.228990    0.392365
    128          1           0       18.707346    5.646470   -1.301696
    129          1           0       16.850994    6.195602   -0.772223
    130          1           0       -5.123345   -8.050803   -0.076635
    131          1           0       -6.333053   -7.164719    0.754674
    132          1           0       -4.927806   -6.852680    1.492780
    133          8           0       -7.885356    6.805151   -0.374441
    134          1           0       -9.070897    6.475483   -1.919932
 ---------------------------------------------------------------------

 SCF Done:  E(RCAM-B3LYP) =  -3043.42506298     A.U. after   16 cycles

 Excitation energies and oscillator strengths:

 Excited State   1:      Singlet-A      1.9863 eV  624.19 nm  f=0.1611  <S**2>=0.000
     243 -> 246        0.24982
     244 -> 245        0.65364
 This state for optimization and/or second-order correction.
 Total Energy, E(TD-HF/TD-DFT) =  -3043.35206658
 Copying the excited state density for this state as the 1-particle RhoCI density.

 The electronic state is 1-A.
 Alpha  occ. eigenvalues --  -46.81590 -19.23836 -19.23833 -19.18014 -19.17529
 Alpha  occ. eigenvalues --  -19.17452 -19.16792 -19.16043 -14.40187 -14.37297
 Alpha  occ. eigenvalues --  -14.37062 -14.36805 -10.36935 -10.35445 -10.31907
 Alpha  occ. eigenvalues --  -10.31173 -10.30090 -10.29072 -10.27792 -10.27774
 Alpha  occ. eigenvalues --  -10.27661 -10.27556 -10.27287 -10.27018 -10.26229
 Alpha  occ. eigenvalues --  -10.26187 -10.25894 -10.25750 -10.25516 -10.25507
 Alpha  occ. eigenvalues --  -10.25282 -10.25011 -10.24846 -10.24698 -10.24528
 Alpha  occ. eigenvalues --  -10.24398 -10.24316 -10.24147 -10.23759 -10.23755
 Alpha  occ. eigenvalues --  -10.23543 -10.23272 -10.23184 -10.23083 -10.22925
 Alpha  occ. eigenvalues --  -10.22802 -10.22792 -10.22723 -10.22685 -10.22448
 Alpha  occ. eigenvalues --  -10.22386 -10.21982 -10.21969 -10.21895 -10.21892
 Alpha  occ. eigenvalues --  -10.21889 -10.21685 -10.21552 -10.21268 -10.21267
 Alpha  occ. eigenvalues --  -10.21219 -10.21158 -10.20112 -10.19774 -10.19682
 Alpha  occ. eigenvalues --  -10.19406  -3.10279  -1.85205  -1.84770  -1.84678
 Alpha  occ. eigenvalues --   -1.15294  -1.12299  -1.06272  -1.04241  -1.03826
 Alpha  occ. eigenvalues --   -1.03661  -1.02474  -1.02354  -1.01040  -0.98993
 Alpha  occ. eigenvalues --   -0.97934  -0.88699  -0.87075  -0.86416  -0.85784
 Alpha  occ. eigenvalues --   -0.85220  -0.84682  -0.84515  -0.83817  -0.83079
 Alpha  occ. eigenvalues --   -0.82881  -0.82242  -0.81817  -0.80837  -0.79889
 Alpha  occ. eigenvalues --   -0.79150  -0.78800  -0.78085  -0.77812  -0.76402
 Alpha  occ. eigenvalues --   -0.75104  -0.74354  -0.74015  -0.73648  -0.72062
 Alpha  occ. eigenvalues --   -0.71065  -0.70719  -0.70428  -0.70146  -0.69634
 Alpha  occ. eigenvalues --   -0.69072  -0.68901  -0.67615  -0.66974  -0.66501
 Alpha  occ. eigenvalues --   -0.66148  -0.65322  -0.64492  -0.62996  -0.62468
 Alpha  occ. eigenvalues --   -0.62246  -0.61415  -0.60805  -0.60597  -0.59823
 Alpha  occ. eigenvalues --   -0.59458  -0.59057  -0.58502  -0.58065  -0.57739
 Alpha  occ. eigenvalues --   -0.56971  -0.56306  -0.56100  -0.55351  -0.54701
 Alpha  occ. eigenvalues --   -0.54319  -0.53945  -0.53257  -0.52929  -0.52750
 Alpha  occ. eigenvalues --   -0.52055  -0.51827  -0.51674  -0.51442  -0.51062
 Alpha  occ. eigenvalues --   -0.50453  -0.50234  -0.49786  -0.49404  -0.49164
 Alpha  occ. eigenvalues --   -0.48981  -0.48678  -0.48444  -0.48283  -0.48164
 Alpha  occ. eigenvalues --   -0.47511  -0.46883  -0.46691  -0.46584  -0.46431
 Alpha  occ. eigenvalues --   -0.46314  -0.46161  -0.45861  -0.45819  -0.45786
 Alpha  occ. eigenvalues --   -0.45554  -0.45205  -0.45071  -0.45005  -0.44777
 Alpha  occ. eigenvalues --   -0.44662  -0.44145  -0.43854  -0.43738  -0.43577
 Alpha  occ. eigenvalues --   -0.43295  -0.43078  -0.42968  -0.42621  -0.42545
 Alpha  occ. eigenvalues --   -0.42491  -0.42083  -0.41999  -0.41924  -0.41579
 Alpha  occ. eigenvalues --   -0.41486  -0.41181  -0.41011  -0.40953  -0.40718
 Alpha  occ. eigenvalues --   -0.40448  -0.40176  -0.40119  -0.40021  -0.39990
 Alpha  occ. eigenvalues --   -0.39940  -0.39833  -0.39741  -0.39330  -0.39224
 Alpha  occ. eigenvalues --   -0.39112  -0.38906  -0.38729  -0.38634  -0.38597
 Alpha  occ. eigenvalues --   -0.38446  -0.38188  -0.37772  -0.37721  -0.36963
 Alpha  occ. eigenvalues --   -0.36702  -0.36329  -0.36218  -0.36108  -0.35808
 Alpha  occ. eigenvalues --   -0.35445  -0.35132  -0.35051  -0.34655  -0.34615
 Alpha  occ. eigenvalues --   -0.34526  -0.34388  -0.34217  -0.34177  -0.33422
 Alpha  occ. eigenvalues --   -0.33001  -0.32791  -0.32192  -0.31830  -0.31677
 Alpha  occ. eigenvalues --   -0.31384  -0.31012  -0.30943  -0.30703  -0.29782
 Alpha  occ. eigenvalues --   -0.28355  -0.27962  -0.27825  -0.27646  -0.27397
 Alpha  occ. eigenvalues --   -0.27165  -0.27140  -0.23556  -0.22002
 Alpha virt. eigenvalues --   -0.09136  -0.07476  -0.02540  -0.01630   0.00127
 Alpha virt. eigenvalues --    0.01007   0.02758   0.03023   0.03941   0.04611
 Alpha virt. eigenvalues --    0.04792   0.05223   0.07916   0.08663   0.09368

 Mulliken charges:
               1
     1  Mg   0.841797
     2  C    0.113502
     3  C   -0.228071
     4  C   -0.155368
     5  C   -0.146788
     6  N   -0.616010
     7  C    0.282247
     8  C   -0.209124
     9  C   -0.134917
    10  C    0.365302
    11  C   -0.298239
    12  C   -0.134477
    13  C   -0.274484
    14  C    0.603722
    15  O   -0.483323
    16  O   -0.449542
    17  N   -0.775145
    18  C    0.352166
    19  C    0.070930
    20  C   -0.068831
    21  C    0.352251
    22  C   -0.380705
    23  C    0.249512
    24  O   -0.444924
    25  N   -0.687585
    26  C    0.293234
    27  C   -0.039101
    28  C    0.041986
    29  C    0.276674
    30  C    0.190818
    31  C   -0.247530
    32  C   -0.306586
    33  N   -0.708478
    34  C    0.307432
    35  C   -0.010377
    36  C    0.048590
    37  C    0.244705
    38  C   -0.397849
    39  C    0.355411
    40  O   -0.486246
    41  C   -0.343824
    42  C    0.623678
    43  O   -0.471513
    44  O   -0.421789
    45  C   -0.101244
    46  C    0.004389
    47  C   -0.083841
    48  C    0.105309
    49  C   -0.391810
    50  C   -0.254565
    51  C   -0.158939
    52  C   -0.169997
    53  C   -0.032948
    54  C   -0.301053
    55  C   -0.153764
    56  C   -0.177869
    57  C   -0.170687
    58  C   -0.059897
    59  C   -0.312806
    60  C   -0.179529
    61  C   -0.145919
    62  C   -0.166754
    63  C   -0.030598
    64  C   -0.303258
    65  C   -0.297983
    66  H    0.081626
    67  H    0.160510
    68  H    0.103561
    69  H    0.123944
    70  H    0.115068
    71  H    0.130281
    72  H    0.089848
    73  H    0.134337
    74  H    0.116362
    75  H    0.129479
    76  H    0.133217
    77  H    0.123210
    78  H    0.093638
    79  H    0.173044
    80  H    0.098781
    81  H    0.109078
    82  H    0.124905
    83  H    0.121734
    84  H    0.124184
    85  H    0.122333
    86  H    0.123465
    87  H    0.133829
    88  H    0.148957
    89  H    0.111285
    90  H    0.161475
    91  H    0.095478
    92  H    0.132504
    93  H    0.059638
    94  H    0.161166
    95  H    0.107160
    96  H    0.115127
    97  H    0.112678
    98  H    0.095344
    99  H    0.116184
   100  H    0.114722
   101  H    0.046065
   102  H    0.071044
   103  H    0.097279
   104  H    0.075353
   105  H    0.064304
   106  H    0.117607
   107  H    0.056847
   108  H    0.077272
   109  H    0.097951
   110  H    0.092306
   111  H    0.089600
   112  H    0.095646
   113  H    0.082045
   114  H    0.074583
   115  H    0.107354
   116  H    0.105930
   117  H    0.090974
   118  H    0.083658
   119  H    0.091465
   120  H    0.051271
   121  H    0.092001
   122  H    0.049168
   123  H    0.106746
   124  H    0.126869
   125  H    0.073910
   126  H    0.074606
   127  H    0.093868
   128  H    0.103659
   129  H    0.083297
   130  H    0.122428
   131  H    0.151890
   132  H    0.132865
   133  O   -0.452892
   134  H    0.065513
 Sum of Mulliken charges =  -0.00000

 Dipole moment (field-independent basis, Debye):
    X=              2.2744    Y=             -5.4041    Z=             -0.2823  Tot=              5.8700
 Quadrupole moment (field-independent basis, Debye-Ang):
   XX=           -375.2721   YY=           -441.1354   ZZ=           -395.2306
   XY=              3.5590   XZ=             20.9396   YZ=            -40.3968

 Normal termination of Gaussian 16 at Mon Oct  7 13:07:20 2019.
