 Gaussian 16, Revision A.03,
 Gaussian 16:  ES64L-G16RevA.03 25-Dec-2016

 ----------------------------------------------------------------------
 # td=(NStates=1) iop(3/107=0140000000,3/108=0140000000) iop(3/107=0140
 000000,3/108=0140000000) CAM-B3LYP/6-31G(d,p)
 ----------------------------------------------------------------------

 --
 TD
 --
 Symbolic Z-matrix:
 Charge =  0 Multiplicity = 1

                         Standard orientation:
 ---------------------------------------------------------------------
 Center     Atomic      Atomic             Coordinates (Angstroms)
 Number     Number       Type             X           Y           Z
 ---------------------------------------------------------------------
      1         12           0       -5.667825    1.277213    0.259205
      2          6           0       -5.000674   -2.184052   -0.318070
      3          6           0       -3.328530    1.139917    2.808208
      4          6           0       -6.117305    4.550998    0.673241
      5          6           0       -7.959252    1.285004   -2.318210
      6          7           0       -4.420917   -0.360746    1.081347
      7          6           0       -4.207159   -1.667286    0.695584
      8          6           0       -3.119637   -2.463984    1.497689
      9          6           0       -2.817351   -1.409128    2.595143
     10          6           0       -3.556444   -0.099241    2.134384
     11          6           0       -3.507996   -1.826235    3.945089
     12          6           0       -1.940555   -2.719647    0.560738
     13          6           0       -0.959397   -3.543281    1.413676
     14          6           0        0.239533   -3.837133    0.572631
     15          8           0        0.517345   -3.431420   -0.603819
     16          8           0        1.059592   -4.750586    1.173925
     17          7           0       -4.819122    2.611879    1.510971
     18          6           0       -3.839740    2.350919    2.476768
     19          6           0       -3.545027    3.609096    3.094717
     20          6           0       -4.420704    4.597664    2.573113
     21          6           0       -5.176463    3.926267    1.515372
     22          6           0       -2.606856    3.724676    4.209106
     23          6           0       -4.493619    6.004269    2.915030
     24          8           0       -3.883078    6.594745    3.795973
     25          7           0       -6.837896    2.676875   -0.754400
     26          6           0       -6.945463    3.882577   -0.313144
     27          6           0       -8.004366    4.599080   -1.084131
     28          6           0       -8.458307    3.634012   -2.054974
     29          6           0       -7.711350    2.476365   -1.624265
     30          6           0       -8.324522    6.085673   -1.158280
     31          6           0       -9.521092    3.862153   -3.102549
     32          6           0       -8.825036    4.215573   -4.522022
     33          7           0       -6.363614   -0.087326   -1.042937
     34          6           0       -7.318189   -0.027506   -2.040247
     35          6           0       -7.567400   -1.274824   -2.775174
     36          6           0       -6.705310   -2.130986   -2.047739
     37          6           0       -5.978760   -1.395713   -1.102233
     38          6           0       -8.509956   -1.589536   -3.761631
     39          6           0       -6.248369   -3.527502   -2.004195
     40          8           0       -6.609462   -4.434991   -2.667256
     41          6           0       -5.081285   -3.509396   -0.912959
     42          6           0       -5.386204   -4.679668    0.135090
     43          8           0       -5.649147   -4.614470    1.274867
     44          8           0       -5.175405   -5.855731   -0.488490
     45          6           0       -5.511273   -6.891862    0.592140
     46          6           0        2.267016   -5.042662    0.465717
     47          6           0        3.350025   -4.206632    0.958279
     48          6           0        3.970482   -3.282382    0.101256
     49          6           0        3.597278   -3.037858   -1.306541
     50          6           0        5.051652   -2.340967    0.726331
     51          6           0        6.387768   -2.696038    0.168325
     52          6           0        7.667277   -1.824438    0.676334
     53          6           0        8.960142   -2.024684   -0.059976
     54          6           0        9.532251   -3.503559   -0.012474
     55          6           0       10.020140   -0.942558    0.404165
     56          6           0       11.384818   -0.909741   -0.434249
     57          6           0       12.283442    0.142718    0.148389
     58          6           0       13.674031    0.325132   -0.536130
     59          6           0       14.621525   -0.806075   -0.200698
     60          6           0       14.205064    1.757131   -0.271946
     61          6           0       15.422692    2.170988   -1.029057
     62          6           0       15.866599    3.567538   -0.590846
     63          6           0       17.249037    4.013164   -1.312327
     64          6           0       17.148316    4.092396   -2.768146
     65          6           0       17.781339    5.283786   -0.804313
     66          1           0       -2.716331    1.205973    3.649674
     67          1           0       -6.238740    5.625794    0.855913
     68          1           0       -8.849683    1.131076   -3.125623
     69          1           0       -3.623320   -3.272463    1.914233
     70          1           0       -1.722675   -1.152315    2.571241
     71          1           0       -2.994301   -2.586870    4.449243
     72          1           0       -3.585760   -0.923811    4.739228
     73          1           0       -4.613508   -2.306464    3.954221
     74          1           0       -2.330780   -3.289191   -0.147830
     75          1           0       -1.346956   -1.863512    0.117467
     76          1           0       -0.680289   -3.098677    2.266588
     77          1           0       -1.366397   -4.505229    1.684343
     78          1           0       -1.545869    3.801964    3.887618
     79          1           0       -2.701375    4.864393    4.808029
     80          1           0       -2.753666    2.800470    4.934203
     81          1           0       -5.255077    6.656818    2.306324
     82          1           0      -10.155304    3.029346   -3.366355
     83          1           0      -10.336509    4.782787   -2.820182
     84          1           0       -9.859049    4.122715   -5.350105
     85          1           0       -8.390785    5.217354   -4.424163
     86          1           0       -7.907275    3.366025   -4.593129
     87          1           0       -8.297199   -0.924935   -4.674555
     88          1           0       -8.515542   -2.698970   -3.762091
     89          1           0       -9.554598   -1.273654   -3.289968
     90          1           0       -4.240204   -4.023966   -1.357812
     91          1           0        2.416226   -6.016549    0.642786
     92          1           0        2.122258   -5.016451   -0.636382
     93          1           0        3.499222   -4.355817    1.911101
     94          1           0        2.451125   -3.583173   -1.414894
     95          1           0        3.483314   -1.862840   -1.698354
     96          1           0        4.293825   -3.674218   -2.155630
     97          1           0        4.888667   -1.310323    0.530597
     98          1           0        5.163859   -2.483816    1.781305
     99          1           0        6.836096   -3.784737    0.392988
    100          1           0        6.440008   -2.614568   -1.036120
    101          1           0        7.263138   -0.842124    0.488737
    102          1           0        7.714562   -1.970941    1.706542
    103          1           0        8.891800   -1.817238   -1.054862
    104          1           0        8.579435   -4.037617   -0.206637
    105          1           0       10.375866   -3.654359   -0.705714
    106          1           0       10.021398   -3.461508    1.030815
    107          1           0        9.523571    0.188211    0.429532
    108          1           0       10.257325   -1.091405    1.274813
    109          1           0       11.846453   -2.059087   -0.350981
    110          1           0       11.164286   -0.812479   -1.453976
    111          1           0       11.901508    1.112006    0.035398
    112          1           0       12.595733    0.003385    1.190218
    113          1           0       13.635096    0.285473   -1.549877
    114          1           0       14.668700   -0.922226    0.822979
    115          1           0       14.306839   -1.689394   -0.497576
    116          1           0       15.649150   -0.688863   -0.590798
    117          1           0       13.390639    2.521024   -0.606682
    118          1           0       14.431335    1.799913    0.880748
    119          1           0       16.133946    1.526284   -0.956562
    120          1           0       14.953303    2.185946   -2.072970
    121          1           0       15.100352    4.301454   -0.696379
    122          1           0       16.295220    3.441329    0.355794
    123          1           0       18.008533    2.989825   -1.120260
    124          1           0       16.334546    4.798289   -3.172418
    125          1           0       17.981928    4.507262   -3.182233
    126          1           0       16.928651    3.088287   -3.145729
    127          1           0       17.809224    5.520822    0.238075
    128          1           0       18.650281    5.640162   -1.266668
    129          1           0       17.167110    6.259743   -0.970490
    130          1           0       -5.363749   -7.874525    0.122105
    131          1           0       -6.628723   -6.602961    0.772797
    132          1           0       -4.827479   -6.715927    1.407000
    133          8           0       -7.840652    6.870199   -0.333755
    134          1           0       -8.943200    6.440633   -2.125461
 ---------------------------------------------------------------------

 SCF Done:  E(RCAM-B3LYP) =  -3043.38235559     A.U. after   15 cycles

 Excitation energies and oscillator strengths:

 Excited State   1:      Singlet-A      2.0415 eV  607.31 nm  f=0.1660  <S**2>=0.000
     243 -> 246       -0.27815
     244 -> 245        0.64175
 This state for optimization and/or second-order correction.
 Total Energy, E(TD-HF/TD-DFT) =  -3043.30733035
 Copying the excited state density for this state as the 1-particle RhoCI density.

 The electronic state is 1-A.
 Alpha  occ. eigenvalues --  -46.82436 -19.22503 -19.22376 -19.17880 -19.17669
 Alpha  occ. eigenvalues --  -19.17516 -19.17323 -19.16722 -14.39509 -14.37191
 Alpha  occ. eigenvalues --  -14.36919 -14.36701 -10.35747 -10.34760 -10.31966
 Alpha  occ. eigenvalues --  -10.31129 -10.30309 -10.28652 -10.28189 -10.27354
 Alpha  occ. eigenvalues --  -10.27170 -10.26673 -10.26439 -10.26419 -10.26165
 Alpha  occ. eigenvalues --  -10.26022 -10.25952 -10.25772 -10.25686 -10.25672
 Alpha  occ. eigenvalues --  -10.25443 -10.24924 -10.24774 -10.24742 -10.24605
 Alpha  occ. eigenvalues --  -10.24422 -10.24331 -10.24277 -10.24153 -10.23959
 Alpha  occ. eigenvalues --  -10.23954 -10.23915 -10.23825 -10.23664 -10.23638
 Alpha  occ. eigenvalues --  -10.23346 -10.22966 -10.22837 -10.22790 -10.22707
 Alpha  occ. eigenvalues --  -10.21856 -10.21637 -10.21402 -10.21150 -10.20997
 Alpha  occ. eigenvalues --  -10.20764 -10.20595 -10.20093 -10.20010 -10.19973
 Alpha  occ. eigenvalues --  -10.19902 -10.19737 -10.19521 -10.19252 -10.18772
 Alpha  occ. eigenvalues --  -10.17760  -3.10927  -1.85866  -1.85430  -1.85307
 Alpha  occ. eigenvalues --   -1.14904  -1.12806  -1.09133  -1.06065  -1.05954
 Alpha  occ. eigenvalues --   -1.05387  -1.04967  -1.02641  -0.99872  -0.99298
 Alpha  occ. eigenvalues --   -0.98431  -0.88238  -0.87366  -0.85634  -0.85479
 Alpha  occ. eigenvalues --   -0.85381  -0.84673  -0.84342  -0.84183  -0.83378
 Alpha  occ. eigenvalues --   -0.82837  -0.82715  -0.82122  -0.80446  -0.79675
 Alpha  occ. eigenvalues --   -0.79012  -0.78276  -0.76982  -0.76884  -0.76445
 Alpha  occ. eigenvalues --   -0.75354  -0.74800  -0.73972  -0.72273  -0.71810
 Alpha  occ. eigenvalues --   -0.71573  -0.71349  -0.70440  -0.69820  -0.69462
 Alpha  occ. eigenvalues --   -0.68630  -0.68260  -0.67410  -0.66907  -0.65796
 Alpha  occ. eigenvalues --   -0.65132  -0.64893  -0.63552  -0.62385  -0.61884
 Alpha  occ. eigenvalues --   -0.61562  -0.61225  -0.60784  -0.59736  -0.58934
 Alpha  occ. eigenvalues --   -0.58743  -0.58455  -0.57660  -0.57427  -0.57122
 Alpha  occ. eigenvalues --   -0.56339  -0.55995  -0.55876  -0.54962  -0.54669
 Alpha  occ. eigenvalues --   -0.54059  -0.53780  -0.53518  -0.52953  -0.52502
 Alpha  occ. eigenvalues --   -0.51915  -0.51843  -0.51557  -0.50826  -0.50389
 Alpha  occ. eigenvalues --   -0.50180  -0.49849  -0.49420  -0.49408  -0.49233
 Alpha  occ. eigenvalues --   -0.48980  -0.48708  -0.48468  -0.48409  -0.48339
 Alpha  occ. eigenvalues --   -0.47787  -0.47661  -0.47580  -0.47388  -0.47060
 Alpha  occ. eigenvalues --   -0.46793  -0.46313  -0.46212  -0.46113  -0.45928
 Alpha  occ. eigenvalues --   -0.45878  -0.45425  -0.45113  -0.44833  -0.44736
 Alpha  occ. eigenvalues --   -0.44529  -0.44304  -0.44174  -0.43849  -0.43659
 Alpha  occ. eigenvalues --   -0.43455  -0.43332  -0.43251  -0.42841  -0.42772
 Alpha  occ. eigenvalues --   -0.42496  -0.42253  -0.42224  -0.42069  -0.41882
 Alpha  occ. eigenvalues --   -0.41762  -0.41329  -0.41151  -0.40994  -0.40950
 Alpha  occ. eigenvalues --   -0.40839  -0.40812  -0.40699  -0.40520  -0.40017
 Alpha  occ. eigenvalues --   -0.39927  -0.39844  -0.39749  -0.39661  -0.39555
 Alpha  occ. eigenvalues --   -0.39399  -0.39321  -0.39091  -0.39069  -0.38466
 Alpha  occ. eigenvalues --   -0.38439  -0.38188  -0.37748  -0.37294  -0.37250
 Alpha  occ. eigenvalues --   -0.36751  -0.36582  -0.36010  -0.35910  -0.35804
 Alpha  occ. eigenvalues --   -0.35167  -0.35076  -0.34760  -0.34652  -0.34458
 Alpha  occ. eigenvalues --   -0.34448  -0.34206  -0.33991  -0.33386  -0.33117
 Alpha  occ. eigenvalues --   -0.32579  -0.32342  -0.32256  -0.32130  -0.31843
 Alpha  occ. eigenvalues --   -0.31132  -0.30911  -0.30381  -0.29651  -0.29261
 Alpha  occ. eigenvalues --   -0.28571  -0.28173  -0.27919  -0.27782  -0.27558
 Alpha  occ. eigenvalues --   -0.27070  -0.26510  -0.22616  -0.21717
 Alpha virt. eigenvalues --   -0.08609  -0.06474  -0.01503  -0.00905   0.00954
 Alpha virt. eigenvalues --    0.01695   0.02611   0.02948   0.04038   0.04631
 Alpha virt. eigenvalues --    0.04997   0.05334   0.06374   0.08099   0.08815

 Mulliken charges:
               1
     1  Mg   0.836706
     2  C    0.113331
     3  C   -0.170859
     4  C   -0.165615
     5  C   -0.181728
     6  N   -0.604602
     7  C    0.267764
     8  C   -0.134256
     9  C   -0.139004
    10  C    0.323252
    11  C   -0.323566
    12  C   -0.163236
    13  C   -0.267842
    14  C    0.602709
    15  O   -0.500351
    16  O   -0.464499
    17  N   -0.770330
    18  C    0.351733
    19  C    0.059409
    20  C   -0.010312
    21  C    0.335842
    22  C   -0.412291
    23  C    0.228899
    24  O   -0.423407
    25  N   -0.646357
    26  C    0.295545
    27  C   -0.081466
    28  C    0.069360
    29  C    0.305866
    30  C    0.243517
    31  C   -0.250925
    32  C   -0.279849
    33  N   -0.708184
    34  C    0.230150
    35  C    0.088750
    36  C   -0.018394
    37  C    0.270359
    38  C   -0.403420
    39  C    0.374223
    40  O   -0.430868
    41  C   -0.382698
    42  C    0.593557
    43  O   -0.455364
    44  O   -0.459562
    45  C   -0.088928
    46  C   -0.003964
    47  C   -0.101093
    48  C    0.151312
    49  C   -0.366560
    50  C   -0.217727
    51  C   -0.187289
    52  C   -0.176722
    53  C   -0.067783
    54  C   -0.313564
    55  C   -0.154257
    56  C   -0.181620
    57  C   -0.158230
    58  C   -0.069710
    59  C   -0.317944
    60  C   -0.173598
    61  C   -0.160034
    62  C   -0.160972
    63  C   -0.033898
    64  C   -0.289023
    65  C   -0.322658
    66  H    0.074819
    67  H    0.133569
    68  H    0.089376
    69  H    0.136955
    70  H    0.109669
    71  H    0.122999
    72  H    0.096417
    73  H    0.121519
    74  H    0.125921
    75  H    0.136929
    76  H    0.149804
    77  H    0.146146
    78  H    0.136962
    79  H    0.140298
    80  H    0.107734
    81  H    0.068539
    82  H    0.122942
    83  H    0.089431
    84  H    0.077018
    85  H    0.130475
    86  H    0.098473
    87  H    0.133746
    88  H    0.158218
    89  H    0.118750
    90  H    0.165596
    91  H    0.109141
    92  H    0.117871
    93  H    0.080253
    94  H    0.138451
    95  H    0.100399
    96  H    0.090718
    97  H    0.108522
    98  H    0.102111
    99  H    0.077160
   100  H    0.071814
   101  H    0.093221
   102  H    0.094967
   103  H    0.093362
   104  H    0.107283
   105  H    0.107947
   106  H    0.092579
   107  H    0.050314
   108  H    0.101473
   109  H    0.057305
   110  H    0.103869
   111  H    0.098173
   112  H    0.090946
   113  H    0.082189
   114  H    0.098811
   115  H    0.112390
   116  H    0.090731
   117  H    0.073252
   118  H    0.060585
   119  H    0.095380
   120  H    0.081010
   121  H    0.093709
   122  H    0.104856
   123  H    0.037851
   124  H    0.080595
   125  H    0.105785
   126  H    0.098310
   127  H    0.101447
   128  H    0.110297
   129  H    0.079903
   130  H    0.125756
   131  H    0.140300
   132  H    0.142637
   133  O   -0.414137
   134  H    0.070430
 Sum of Mulliken charges =  -0.00000

 Dipole moment (field-independent basis, Debye):
    X=              0.2948    Y=             -5.0727    Z=             -0.1505  Tot=              5.0835
 Quadrupole moment (field-independent basis, Debye-Ang):
   XX=           -380.3935   YY=           -438.8055   ZZ=           -398.4855
   XY=             18.3623   XZ=             19.5363   YZ=            -40.7652

 Normal termination of Gaussian 16 at Fri Oct 11 07:34:43 2019.
