 Gaussian 16, Revision A.03,
 Gaussian 16:  ES64L-G16RevA.03 25-Dec-2016

 ----------------------------------------------------------------------
 # td=(NStates=1) iop(3/107=0140000000,3/108=0140000000) iop(3/107=0140
 000000,3/108=0140000000) CAM-B3LYP/6-31G(d,p)
 ----------------------------------------------------------------------

 --
 TD
 --
 Symbolic Z-matrix:
 Charge =  0 Multiplicity = 1

                         Standard orientation:
 ---------------------------------------------------------------------
 Center     Atomic      Atomic             Coordinates (Angstroms)
 Number     Number       Type             X           Y           Z
 ---------------------------------------------------------------------
      1         12           0       -5.615686    1.310987    0.167585
      2          6           0       -4.997691   -2.141611   -0.398987
      3          6           0       -3.372797    1.166173    2.814469
      4          6           0       -6.100315    4.612263    0.701279
      5          6           0       -7.911644    1.177277   -2.398384
      6          7           0       -4.430941   -0.381995    1.065493
      7          6           0       -4.299338   -1.652281    0.717533
      8          6           0       -3.242700   -2.351785    1.493999
      9          6           0       -2.994101   -1.327336    2.636584
     10          6           0       -3.617954   -0.080274    2.173867
     11          6           0       -3.440502   -1.729980    4.034561
     12          6           0       -2.038042   -2.830379    0.645395
     13          6           0       -1.015838   -3.647932    1.423437
     14          6           0        0.305075   -3.807216    0.543459
     15          8           0        0.440351   -3.423215   -0.544630
     16          8           0        1.138290   -4.719467    1.231452
     17          7           0       -4.968917    2.594661    1.458428
     18          6           0       -4.002708    2.366598    2.485745
     19          6           0       -3.679065    3.560848    3.188056
     20          6           0       -4.453923    4.562551    2.548722
     21          6           0       -5.231859    3.973394    1.461455
     22          6           0       -2.642253    3.763223    4.200681
     23          6           0       -4.590551    5.921358    2.988134
     24          8           0       -3.822569    6.513512    3.804456
     25          7           0       -6.783747    2.676656   -0.769802
     26          6           0       -6.845732    3.920887   -0.369280
     27          6           0       -7.793145    4.650389   -1.118157
     28          6           0       -8.367665    3.792175   -2.065360
     29          6           0       -7.670657    2.432107   -1.784751
     30          6           0       -8.310329    6.042434   -1.080206
     31          6           0       -9.370654    3.966518   -3.190256
     32          6           0       -8.750062    4.036681   -4.594390
     33          7           0       -6.312160   -0.071867   -1.105834
     34          6           0       -7.359624   -0.060133   -2.007000
     35          6           0       -7.535683   -1.330070   -2.686119
     36          6           0       -6.739460   -2.130325   -2.025087
     37          6           0       -5.937179   -1.389503   -1.082348
     38          6           0       -8.535164   -1.526366   -3.831839
     39          6           0       -6.213828   -3.512694   -2.168116
     40          8           0       -6.537582   -4.482101   -2.802160
     41          6           0       -5.090275   -3.605540   -0.975574
     42          6           0       -5.428267   -4.690206    0.188783
     43          8           0       -5.818430   -4.467448    1.286470
     44          8           0       -5.194120   -6.008373   -0.246407
     45          6           0       -5.400274   -6.989015    0.674022
     46          6           0        2.350964   -5.045041    0.614288
     47          6           0        3.355609   -3.971180    0.912062
     48          6           0        3.974796   -3.017042    0.090050
     49          6           0        3.552306   -2.936684   -1.344174
     50          6           0        5.070606   -2.149252    0.640830
     51          6           0        6.421517   -2.623180    0.069229
     52          6           0        7.576202   -1.767030    0.542895
     53          6           0        8.939306   -1.968044   -0.146074
     54          6           0        9.445365   -3.389688    0.125844
     55          6           0        9.881223   -0.990599    0.434852
     56          6           0       11.281534   -1.027308   -0.265198
     57          6           0       12.229254    0.252166    0.164896
     58          6           0       13.521829    0.530652   -0.665091
     59          6           0       14.358260   -0.711273   -0.384973
     60          6           0       14.205081    1.849667   -0.171558
     61          6           0       15.511985    2.078875   -1.044384
     62          6           0       16.146213    3.467546   -0.546109
     63          6           0       17.438883    3.720823   -1.261703
     64          6           0       17.218112    3.884664   -2.753204
     65          6           0       17.974715    5.036996   -0.702912
     66          1           0       -2.619723    1.047960    3.570611
     67          1           0       -6.084275    5.592032    0.889286
     68          1           0       -8.895533    1.373966   -3.047437
     69          1           0       -3.625652   -3.285014    1.876244
     70          1           0       -1.809288   -1.075708    2.721947
     71          1           0       -2.977151   -2.590677    4.650239
     72          1           0       -3.427045   -1.069109    4.744651
     73          1           0       -4.514496   -2.070917    4.002708
     74          1           0       -2.404334   -3.357227   -0.343989
     75          1           0       -1.402711   -2.080476    0.296656
     76          1           0       -0.692443   -3.187802    2.261837
     77          1           0       -1.325091   -4.624660    1.744417
     78          1           0       -1.634375    3.304020    4.017420
     79          1           0       -2.327886    4.718630    4.293573
     80          1           0       -3.227207    3.443704    5.172878
     81          1           0       -5.218599    6.614134    2.383654
     82          1           0       -9.942298    2.984667   -2.878082
     83          1           0       -9.991674    4.935462   -2.894742
     84          1           0       -9.500153    4.035926   -5.403828
     85          1           0       -8.200697    5.036616   -4.575049
     86          1           0       -8.100340    3.106711   -4.642699
     87          1           0       -8.078177   -0.888989   -4.651193
     88          1           0       -8.645259   -2.551900   -4.052784
     89          1           0       -9.515669   -1.132950   -3.569592
     90          1           0       -4.259562   -3.893371   -1.595563
     91          1           0        2.714056   -5.899482    1.119746
     92          1           0        2.310352   -5.226271   -0.579680
     93          1           0        3.684543   -4.196423    1.965722
     94          1           0        2.429874   -3.346759   -1.271182
     95          1           0        3.563443   -1.940689   -1.754551
     96          1           0        4.076460   -3.337269   -2.083232
     97          1           0        4.823364   -1.120876    0.355093
     98          1           0        5.031472   -2.281425    1.660477
     99          1           0        6.388673   -3.667596    0.178483
    100          1           0        6.398625   -2.651544   -0.944929
    101          1           0        7.401350   -0.686052    0.751030
    102          1           0        7.552133   -1.947343    1.529290
    103          1           0        8.699013   -1.838918   -1.264515
    104          1           0        8.556104   -4.086924   -0.177562
    105          1           0       10.496680   -3.553052   -0.218671
    106          1           0        9.444913   -3.837189    1.231060
    107          1           0        9.750681   -0.082807    0.310415
    108          1           0       10.030768   -1.069146    1.472197
    109          1           0       11.804980   -2.047957   -0.177023
    110          1           0       11.277056   -0.881661   -1.327476
    111          1           0       11.633529    1.213979   -0.242836
    112          1           0       12.433692    0.034301    1.197085
    113          1           0       13.266003    0.466487   -1.800486
    114          1           0       14.587181   -0.881476    0.766589
    115          1           0       13.988795   -1.734165   -0.662340
    116          1           0       15.267398   -0.682407   -1.017757
    117          1           0       13.464755    2.630816   -0.531462
    118          1           0       14.262166    1.911021    0.929438
    119          1           0       16.450471    1.386780   -0.850186
    120          1           0       15.314923    2.178758   -2.086833
    121          1           0       15.425670    4.389087   -0.800354
    122          1           0       16.382928    3.282824    0.549731
    123          1           0       18.164044    2.850022   -1.181959
    124          1           0       16.291226    4.478777   -3.011058
    125          1           0       18.061849    4.568659   -3.236513
    126          1           0       17.462217    2.975126   -3.347443
    127          1           0       17.962192    5.149327    0.563777
    128          1           0       19.044465    5.221096   -1.085401
    129          1           0       17.247377    5.811896   -1.036260
    130          1           0       -5.381058   -7.971575    0.071990
    131          1           0       -6.473101   -7.337042    0.877877
    132          1           0       -4.902353   -6.796775    1.720654
    133          8           0       -7.820969    6.855820   -0.331603
    134          1           0       -8.867788    6.361169   -1.985111
 ---------------------------------------------------------------------

 SCF Done:  E(RCAM-B3LYP) =  -3043.44652019     A.U. after   16 cycles

 Excitation energies and oscillator strengths:

 Excited State   1:      Singlet-A      2.0269 eV  611.69 nm  f=0.1820  <S**2>=0.000
     243 -> 245       -0.10780
     243 -> 246       -0.25968
     244 -> 245        0.63671
 This state for optimization and/or second-order correction.
 Total Energy, E(TD-HF/TD-DFT) =  -3043.37203197
 Copying the excited state density for this state as the 1-particle RhoCI density.

 The electronic state is 1-A.
 Alpha  occ. eigenvalues --  -46.80780 -19.22517 -19.21986 -19.19667 -19.19059
 Alpha  occ. eigenvalues --  -19.18392 -19.17042 -19.16142 -14.39082 -14.37083
 Alpha  occ. eigenvalues --  -14.36995 -14.36990 -10.36483 -10.35877 -10.32343
 Alpha  occ. eigenvalues --  -10.30348 -10.29570 -10.27979 -10.27926 -10.27510
 Alpha  occ. eigenvalues --  -10.27422 -10.27204 -10.26542 -10.26505 -10.26465
 Alpha  occ. eigenvalues --  -10.26121 -10.26080 -10.25712 -10.25567 -10.25520
 Alpha  occ. eigenvalues --  -10.25507 -10.24887 -10.24711 -10.24645 -10.24205
 Alpha  occ. eigenvalues --  -10.24104 -10.23647 -10.23624 -10.23482 -10.23295
 Alpha  occ. eigenvalues --  -10.23228 -10.23172 -10.23131 -10.22546 -10.22303
 Alpha  occ. eigenvalues --  -10.22240 -10.22213 -10.22167 -10.22084 -10.22053
 Alpha  occ. eigenvalues --  -10.22038 -10.21931 -10.21812 -10.21700 -10.21615
 Alpha  occ. eigenvalues --  -10.21597 -10.21560 -10.21442 -10.21331 -10.20801
 Alpha  occ. eigenvalues --  -10.20594 -10.20290 -10.19741 -10.19559 -10.19534
 Alpha  occ. eigenvalues --  -10.18219  -3.09604  -1.84519  -1.84078  -1.84035
 Alpha  occ. eigenvalues --   -1.14697  -1.14402  -1.08554  -1.07522  -1.07288
 Alpha  occ. eigenvalues --   -1.06928  -1.03312  -1.01214  -1.00597  -0.99892
 Alpha  occ. eigenvalues --   -0.97897  -0.87859  -0.86302  -0.85916  -0.85709
 Alpha  occ. eigenvalues --   -0.84818  -0.84693  -0.84451  -0.84410  -0.83519
 Alpha  occ. eigenvalues --   -0.83248  -0.82876  -0.81871  -0.80468  -0.79626
 Alpha  occ. eigenvalues --   -0.78687  -0.77800  -0.77143  -0.76652  -0.76324
 Alpha  occ. eigenvalues --   -0.75445  -0.75082  -0.74416  -0.72829  -0.72650
 Alpha  occ. eigenvalues --   -0.71465  -0.70009  -0.69916  -0.69600  -0.69446
 Alpha  occ. eigenvalues --   -0.69187  -0.68994  -0.67640  -0.66799  -0.66232
 Alpha  occ. eigenvalues --   -0.66069  -0.64729  -0.63944  -0.63290  -0.62569
 Alpha  occ. eigenvalues --   -0.62011  -0.60748  -0.60703  -0.59941  -0.59404
 Alpha  occ. eigenvalues --   -0.58815  -0.57859  -0.57471  -0.57025  -0.56951
 Alpha  occ. eigenvalues --   -0.56534  -0.56143  -0.55682  -0.55260  -0.54696
 Alpha  occ. eigenvalues --   -0.54482  -0.53452  -0.53076  -0.52540  -0.52164
 Alpha  occ. eigenvalues --   -0.52094  -0.51761  -0.51595  -0.51230  -0.51002
 Alpha  occ. eigenvalues --   -0.50746  -0.50539  -0.50162  -0.50035  -0.49213
 Alpha  occ. eigenvalues --   -0.48885  -0.48465  -0.48340  -0.48228  -0.47976
 Alpha  occ. eigenvalues --   -0.47854  -0.47749  -0.47665  -0.47407  -0.46905
 Alpha  occ. eigenvalues --   -0.46689  -0.46366  -0.45954  -0.45753  -0.45579
 Alpha  occ. eigenvalues --   -0.45337  -0.45191  -0.45099  -0.45005  -0.44776
 Alpha  occ. eigenvalues --   -0.44533  -0.44473  -0.44100  -0.44098  -0.43711
 Alpha  occ. eigenvalues --   -0.43488  -0.43346  -0.43112  -0.42834  -0.42780
 Alpha  occ. eigenvalues --   -0.42724  -0.42671  -0.42538  -0.42197  -0.42108
 Alpha  occ. eigenvalues --   -0.41760  -0.41628  -0.41493  -0.41307  -0.41234
 Alpha  occ. eigenvalues --   -0.40894  -0.40652  -0.40517  -0.40480  -0.40188
 Alpha  occ. eigenvalues --   -0.40073  -0.39920  -0.39759  -0.39707  -0.39472
 Alpha  occ. eigenvalues --   -0.39262  -0.39127  -0.38452  -0.38350  -0.38029
 Alpha  occ. eigenvalues --   -0.37706  -0.37387  -0.37271  -0.37155  -0.37010
 Alpha  occ. eigenvalues --   -0.36878  -0.36696  -0.36283  -0.36176  -0.35831
 Alpha  occ. eigenvalues --   -0.35602  -0.35448  -0.35236  -0.35190  -0.34657
 Alpha  occ. eigenvalues --   -0.34448  -0.34152  -0.34077  -0.33448  -0.32808
 Alpha  occ. eigenvalues --   -0.32692  -0.32264  -0.32193  -0.32023  -0.31555
 Alpha  occ. eigenvalues --   -0.31127  -0.31084  -0.30855  -0.30142  -0.29620
 Alpha  occ. eigenvalues --   -0.29270  -0.28495  -0.28075  -0.27747  -0.27393
 Alpha  occ. eigenvalues --   -0.26881  -0.25930  -0.23411  -0.21329
 Alpha virt. eigenvalues --   -0.08387  -0.06615  -0.02108  -0.00842   0.00215
 Alpha virt. eigenvalues --    0.02630   0.03427   0.03542   0.03618   0.04279
 Alpha virt. eigenvalues --    0.04424   0.05294   0.07684   0.08372   0.08769

 Mulliken charges:
               1
     1  Mg   0.837811
     2  C    0.026292
     3  C   -0.171792
     4  C   -0.103386
     5  C   -0.168959
     6  N   -0.633159
     7  C    0.339812
     8  C   -0.144879
     9  C   -0.166583
    10  C    0.339816
    11  C   -0.316190
    12  C   -0.178281
    13  C   -0.267879
    14  C    0.585289
    15  O   -0.397008
    16  O   -0.465791
    17  N   -0.769121
    18  C    0.310219
    19  C    0.059160
    20  C   -0.031951
    21  C    0.356706
    22  C   -0.361354
    23  C    0.201399
    24  O   -0.444319
    25  N   -0.703734
    26  C    0.310948
    27  C   -0.023345
    28  C    0.000116
    29  C    0.254403
    30  C    0.236041
    31  C   -0.242302
    32  C   -0.289960
    33  N   -0.703085
    34  C    0.241687
    35  C    0.053302
    36  C   -0.014346
    37  C    0.321434
    38  C   -0.360717
    39  C    0.354744
    40  O   -0.425221
    41  C   -0.310963
    42  C    0.609557
    43  O   -0.426295
    44  O   -0.426448
    45  C   -0.084776
    46  C   -0.005011
    47  C   -0.146029
    48  C    0.106657
    49  C   -0.386117
    50  C   -0.217675
    51  C   -0.189754
    52  C   -0.176044
    53  C   -0.045175
    54  C   -0.306683
    55  C   -0.132562
    56  C   -0.221978
    57  C   -0.177187
    58  C   -0.064004
    59  C   -0.299115
    60  C   -0.158454
    61  C   -0.181730
    62  C   -0.152387
    63  C   -0.042778
    64  C   -0.313374
    65  C   -0.278107
    66  H    0.097435
    67  H    0.098808
    68  H    0.083521
    69  H    0.127514
    70  H    0.088566
    71  H    0.100101
    72  H    0.127231
    73  H    0.118567
    74  H    0.105854
    75  H    0.127321
    76  H    0.141861
    77  H    0.139408
    78  H    0.113734
    79  H    0.166077
    80  H    0.121117
    81  H    0.087851
    82  H    0.104564
    83  H    0.095992
    84  H    0.120560
    85  H    0.116673
    86  H    0.114284
    87  H    0.131196
    88  H    0.147639
    89  H    0.132724
    90  H    0.155472
    91  H    0.116630
    92  H    0.098156
    93  H    0.074155
    94  H    0.137286
    95  H    0.100954
    96  H    0.125626
    97  H    0.099329
    98  H    0.104584
    99  H    0.103282
   100  H    0.098009
   101  H    0.079562
   102  H    0.103031
   103  H    0.082585
   104  H    0.086122
   105  H    0.107042
   106  H    0.082528
   107  H    0.095767
   108  H    0.095290
   109  H    0.077965
   110  H    0.093532
   111  H    0.063814
   112  H    0.098922
   113  H    0.075035
   114  H    0.076085
   115  H    0.097479
   116  H    0.088948
   117  H    0.090938
   118  H    0.101582
   119  H    0.086529
   120  H    0.109493
   121  H    0.068868
   122  H    0.089532
   123  H    0.080639
   124  H    0.100857
   125  H    0.077552
   126  H    0.108621
   127  H    0.059971
   128  H    0.091471
   129  H    0.101256
   130  H    0.111789
   131  H    0.097877
   132  H    0.115927
   133  O   -0.409622
   134  H    0.071543
 Sum of Mulliken charges =  -0.00000

 Dipole moment (field-independent basis, Debye):
    X=              1.4097    Y=             -3.9269    Z=             -1.3109  Tot=              4.3734
 Quadrupole moment (field-independent basis, Debye-Ang):
   XX=           -375.4688   YY=           -447.5556   ZZ=           -390.4163
   XY=              8.7480   XZ=             18.4733   YZ=            -38.6281

 Normal termination of Gaussian 16 at Wed Oct  9 18:35:22 2019.
