 Gaussian 16, Revision A.03,
 Gaussian 16:  ES64L-G16RevA.03 25-Dec-2016

 ----------------------------------------------------------------------
 # td=(NStates=1) iop(3/107=0140000000,3/108=0140000000) iop(3/107=0140
 000000,3/108=0140000000) CAM-B3LYP/6-31G(d,p)
 ----------------------------------------------------------------------

 --
 TD
 --
 Symbolic Z-matrix:
 Charge =  0 Multiplicity = 1

                         Standard orientation:
 ---------------------------------------------------------------------
 Center     Atomic      Atomic             Coordinates (Angstroms)
 Number     Number       Type             X           Y           Z
 ---------------------------------------------------------------------
      1         12           0       -5.644279    1.237841    0.219230
      2          6           0       -4.970045   -2.191313   -0.395063
      3          6           0       -3.367868    1.274738    2.623342
      4          6           0       -6.097984    4.595553    0.595605
      5          6           0       -7.997483    1.177061   -2.252561
      6          7           0       -4.397244   -0.257336    0.973009
      7          6           0       -4.227219   -1.604434    0.594466
      8          6           0       -3.252983   -2.305556    1.415766
      9          6           0       -2.869708   -1.303063    2.563278
     10          6           0       -3.519417   -0.042708    2.052555
     11          6           0       -3.308580   -1.817857    4.042713
     12          6           0       -2.018971   -2.718557    0.624727
     13          6           0       -1.096248   -3.653309    1.390507
     14          6           0        0.194257   -3.955865    0.594230
     15          8           0        0.372421   -3.493750   -0.522071
     16          8           0        1.058013   -4.754916    1.272604
     17          7           0       -4.882740    2.616019    1.458655
     18          6           0       -3.940375    2.412473    2.319162
     19          6           0       -3.750292    3.734419    3.185474
     20          6           0       -4.460544    4.635338    2.614603
     21          6           0       -5.200932    3.972051    1.477186
     22          6           0       -2.800250    3.860603    4.261047
     23          6           0       -4.613005    6.118877    2.875429
     24          8           0       -3.983830    6.737264    3.793290
     25          7           0       -6.780162    2.632403   -0.720133
     26          6           0       -6.923905    3.965990   -0.331931
     27          6           0       -7.921265    4.596433   -1.217928
     28          6           0       -8.451865    3.591838   -2.040764
     29          6           0       -7.682012    2.428746   -1.678834
     30          6           0       -8.269920    6.078011   -1.263578
     31          6           0       -9.534714    3.690520   -3.015298
     32          6           0       -8.985766    3.982874   -4.493497
     33          7           0       -6.446051   -0.113679   -1.018351
     34          6           0       -7.471354   -0.059706   -1.981728
     35          6           0       -7.703813   -1.318648   -2.618337
     36          6           0       -6.743747   -2.123125   -2.044596
     37          6           0       -5.940718   -1.427657   -1.116343
     38          6           0       -8.619308   -1.690616   -3.752003
     39          6           0       -6.242039   -3.608101   -1.912069
     40          8           0       -6.748301   -4.580060   -2.343470
     41          6           0       -5.048698   -3.470742   -0.899231
     42          6           0       -5.302382   -4.646754    0.138190
     43          8           0       -5.499090   -4.486996    1.310720
     44          8           0       -5.123052   -5.915785   -0.451028
     45          6           0       -5.452991   -6.968899    0.535191
     46          6           0        2.314289   -5.054895    0.615366
     47          6           0        3.395537   -4.099298    0.915058
     48          6           0        4.075738   -3.220167    0.155746
     49          6           0        3.683326   -3.038139   -1.241121
     50          6           0        5.215521   -2.341479    0.613134
     51          6           0        6.539883   -2.614022   -0.064208
     52          6           0        7.629899   -1.844329    0.597526
     53          6           0        9.025631   -2.011318   -0.092827
     54          6           0        9.655005   -3.354959    0.208383
     55          6           0       10.090142   -0.954675    0.434852
     56          6           0       11.326539   -0.879798   -0.346819
     57          6           0       12.289405    0.192060    0.267091
     58          6           0       13.643383    0.417301   -0.509910
     59          6           0       14.552313   -0.733494   -0.287510
     60          6           0       14.190581    1.745448   -0.117402
     61          6           0       15.492635    2.067004   -0.979310
     62          6           0       16.044006    3.465895   -0.704564
     63          6           0       17.270407    3.904908   -1.315803
     64          6           0       17.053478    3.938592   -2.861836
     65          6           0       17.744153    5.412321   -0.922247
     66          1           0       -2.702484    1.331683    3.527352
     67          1           0       -6.400368    5.524413    0.860510
     68          1           0       -8.641192    1.066720   -3.218543
     69          1           0       -3.870611   -3.234683    1.655225
     70          1           0       -1.716315   -1.201061    2.423039
     71          1           0       -2.785701   -2.816731    4.125207
     72          1           0       -3.062948   -1.027192    4.766808
     73          1           0       -4.516067   -2.072386    3.647392
     74          1           0       -2.189583   -3.065580   -0.311931
     75          1           0       -1.421271   -1.911360    0.265413
     76          1           0       -0.680012   -3.270907    2.325342
     77          1           0       -1.581196   -4.615703    1.731891
     78          1           0       -1.628291    3.802815    3.979614
     79          1           0       -2.989534    4.828212    4.817914
     80          1           0       -3.120835    3.134631    5.103304
     81          1           0       -5.267382    6.595680    2.250616
     82          1           0       -9.957452    2.701065   -3.228896
     83          1           0      -10.306426    4.476825   -2.828003
     84          1           0       -9.884428    4.508971   -5.105739
     85          1           0       -8.336568    4.666965   -4.490729
     86          1           0       -8.351362    3.459458   -4.932892
     87          1           0       -8.260999   -1.260552   -4.670613
     88          1           0       -8.561229   -2.610534   -3.863368
     89          1           0       -9.689362   -1.424630   -3.541586
     90          1           0       -4.046808   -3.753196   -1.364466
     91          1           0        2.664022   -5.994864    0.961718
     92          1           0        2.173781   -5.210087   -0.390029
     93          1           0        3.344986   -4.177675    1.953575
     94          1           0        2.630364   -3.251502   -1.181973
     95          1           0        3.822944   -2.074326   -1.525445
     96          1           0        4.006348   -3.851129   -2.054040
     97          1           0        5.107533   -1.129465    0.507479
     98          1           0        5.422971   -2.577669    1.706116
     99          1           0        6.733673   -3.866875   -0.005716
    100          1           0        6.627211   -2.374635   -1.104088
    101          1           0        7.322970   -0.749630    0.683545
    102          1           0        7.963797   -2.169853    1.588094
    103          1           0        8.901279   -1.847456   -1.290912
    104          1           0        9.123516   -4.238558   -0.212345
    105          1           0       10.607296   -3.465474   -0.493980
    106          1           0       10.199929   -3.246970    1.206868
    107          1           0        9.456342    0.023269    0.504905
    108          1           0       10.296099   -1.106618    1.631899
    109          1           0       11.846659   -1.884174   -0.248090
    110          1           0       11.152406   -0.657077   -1.465105
    111          1           0       11.751640    1.415495    0.273997
    112          1           0       12.616505    0.132185    1.282543
    113          1           0       13.261556    0.534243   -1.553682
    114          1           0       15.009272   -0.771550    0.741207
    115          1           0       14.190830   -1.777199   -0.297879
    116          1           0       15.425436   -0.772252   -1.048956
    117          1           0       13.604853    2.675416   -0.516359
    118          1           0       14.536089    1.756541    0.898184
    119          1           0       16.370913    1.303181   -1.024899
    120          1           0       15.164648    2.082033   -1.914016
    121          1           0       15.242510    4.201980   -0.745718
    122          1           0       16.203206    3.502575    0.373081
    123          1           0       18.202879    3.230852   -1.143900
    124          1           0       16.314064    4.612061   -3.330483
    125          1           0       17.915856    4.008737   -3.434498
    126          1           0       16.773933    2.837008   -3.258115
    127          1           0       17.906922    5.366948    0.278998
    128          1           0       18.733596    5.866367   -1.267624
    129          1           0       17.072476    6.235315   -1.119400
    130          1           0       -4.963810   -8.049193   -0.013486
    131          1           0       -6.590795   -6.960708    0.822794
    132          1           0       -4.966998   -7.036504    1.578600
    133          8           0       -7.699988    6.864107   -0.462669
    134          1           0       -8.784296    6.436029   -2.057608
 ---------------------------------------------------------------------

 SCF Done:  E(RCAM-B3LYP) =  -3043.38263382     A.U. after   15 cycles

 Excitation energies and oscillator strengths:

 Excited State   1:      Singlet-A      2.1101 eV  587.57 nm  f=0.1626  <S**2>=0.000
     243 -> 246       -0.26571
     244 -> 245        0.64775
 This state for optimization and/or second-order correction.
 Total Energy, E(TD-HF/TD-DFT) =  -3043.30508886
 Copying the excited state density for this state as the 1-particle RhoCI density.

 The electronic state is 1-A.
 Alpha  occ. eigenvalues --  -46.79998 -19.23603 -19.23330 -19.19352 -19.18123
 Alpha  occ. eigenvalues --  -19.17914 -19.17876 -19.16734 -14.39073 -14.36795
 Alpha  occ. eigenvalues --  -14.36236 -14.35633 -10.36526 -10.35838 -10.32179
 Alpha  occ. eigenvalues --  -10.30895 -10.30430 -10.29994 -10.28771 -10.26776
 Alpha  occ. eigenvalues --  -10.26713 -10.26654 -10.26161 -10.25962 -10.25742
 Alpha  occ. eigenvalues --  -10.25714 -10.25664 -10.25251 -10.25141 -10.24778
 Alpha  occ. eigenvalues --  -10.24504 -10.24270 -10.24062 -10.24060 -10.23826
 Alpha  occ. eigenvalues --  -10.23640 -10.23526 -10.23333 -10.23292 -10.23225
 Alpha  occ. eigenvalues --  -10.23085 -10.22997 -10.22944 -10.22818 -10.22765
 Alpha  occ. eigenvalues --  -10.22449 -10.22402 -10.22390 -10.22368 -10.22287
 Alpha  occ. eigenvalues --  -10.22017 -10.21696 -10.21641 -10.21617 -10.21593
 Alpha  occ. eigenvalues --  -10.21577 -10.21396 -10.21252 -10.21158 -10.20954
 Alpha  occ. eigenvalues --  -10.20743 -10.19907 -10.19801 -10.19798 -10.19721
 Alpha  occ. eigenvalues --  -10.19618  -3.08843  -1.83765  -1.83312  -1.83276
 Alpha  occ. eigenvalues --   -1.13520  -1.13394  -1.09811  -1.05549  -1.05375
 Alpha  occ. eigenvalues --   -1.04313  -1.04223  -1.00925  -0.99263  -0.98799
 Alpha  occ. eigenvalues --   -0.97268  -0.89850  -0.86691  -0.86089  -0.85701
 Alpha  occ. eigenvalues --   -0.85227  -0.85101  -0.84652  -0.84066  -0.83363
 Alpha  occ. eigenvalues --   -0.83139  -0.82429  -0.81717  -0.80693  -0.79772
 Alpha  occ. eigenvalues --   -0.78772  -0.78522  -0.77890  -0.76938  -0.75776
 Alpha  occ. eigenvalues --   -0.75408  -0.74948  -0.74340  -0.72713  -0.71788
 Alpha  occ. eigenvalues --   -0.71004  -0.70554  -0.70158  -0.69787  -0.69707
 Alpha  occ. eigenvalues --   -0.68886  -0.68689  -0.68252  -0.67656  -0.67283
 Alpha  occ. eigenvalues --   -0.67035  -0.64871  -0.63441  -0.62639  -0.62330
 Alpha  occ. eigenvalues --   -0.61204  -0.60591  -0.60335  -0.59655  -0.59041
 Alpha  occ. eigenvalues --   -0.58852  -0.58139  -0.58095  -0.57881  -0.57182
 Alpha  occ. eigenvalues --   -0.56804  -0.56321  -0.55606  -0.55170  -0.54600
 Alpha  occ. eigenvalues --   -0.54158  -0.53604  -0.52646  -0.52318  -0.52033
 Alpha  occ. eigenvalues --   -0.51928  -0.51423  -0.51091  -0.51001  -0.50703
 Alpha  occ. eigenvalues --   -0.50416  -0.50246  -0.49806  -0.49457  -0.49321
 Alpha  occ. eigenvalues --   -0.48843  -0.48465  -0.48252  -0.47925  -0.47849
 Alpha  occ. eigenvalues --   -0.47360  -0.47118  -0.46919  -0.46781  -0.46455
 Alpha  occ. eigenvalues --   -0.46381  -0.46230  -0.46025  -0.46012  -0.45898
 Alpha  occ. eigenvalues --   -0.45601  -0.45370  -0.45239  -0.44882  -0.44589
 Alpha  occ. eigenvalues --   -0.44358  -0.44254  -0.43891  -0.43712  -0.43599
 Alpha  occ. eigenvalues --   -0.43508  -0.43424  -0.43236  -0.43224  -0.42514
 Alpha  occ. eigenvalues --   -0.42262  -0.42215  -0.41916  -0.41860  -0.41720
 Alpha  occ. eigenvalues --   -0.41501  -0.41310  -0.41260  -0.41025  -0.40894
 Alpha  occ. eigenvalues --   -0.40735  -0.40669  -0.40268  -0.40171  -0.39960
 Alpha  occ. eigenvalues --   -0.39931  -0.39791  -0.39619  -0.39478  -0.39048
 Alpha  occ. eigenvalues --   -0.38875  -0.38594  -0.38470  -0.38321  -0.38053
 Alpha  occ. eigenvalues --   -0.37881  -0.37767  -0.37298  -0.36944  -0.36892
 Alpha  occ. eigenvalues --   -0.36666  -0.36416  -0.36218  -0.36150  -0.35715
 Alpha  occ. eigenvalues --   -0.35494  -0.35138  -0.34972  -0.34906  -0.34585
 Alpha  occ. eigenvalues --   -0.34364  -0.34083  -0.33869  -0.33689  -0.33588
 Alpha  occ. eigenvalues --   -0.33322  -0.32840  -0.32442  -0.32100  -0.31734
 Alpha  occ. eigenvalues --   -0.31497  -0.31252  -0.31092  -0.30343  -0.29764
 Alpha  occ. eigenvalues --   -0.28906  -0.28282  -0.27915  -0.27636  -0.27376
 Alpha  occ. eigenvalues --   -0.27109  -0.26935  -0.22915  -0.20771
 Alpha virt. eigenvalues --   -0.07255  -0.06030  -0.02316  -0.01287   0.00614
 Alpha virt. eigenvalues --    0.02341   0.02510   0.03500   0.03877   0.04263
 Alpha virt. eigenvalues --    0.04832   0.05464   0.07710   0.08241   0.09550

 Mulliken charges:
               1
     1  Mg   0.809155
     2  C    0.166982
     3  C   -0.235645
     4  C   -0.154250
     5  C   -0.177359
     6  N   -0.634696
     7  C    0.324366
     8  C   -0.178003
     9  C   -0.167334
    10  C    0.344796
    11  C   -0.281901
    12  C   -0.182340
    13  C   -0.270677
    14  C    0.605157
    15  O   -0.460884
    16  O   -0.468088
    17  N   -0.693576
    18  C    0.379353
    19  C    0.038908
    20  C    0.018791
    21  C    0.255606
    22  C   -0.411136
    23  C    0.271109
    24  O   -0.433584
    25  N   -0.682857
    26  C    0.265574
    27  C   -0.075424
    28  C    0.079262
    29  C    0.310027
    30  C    0.253553
    31  C   -0.265091
    32  C   -0.308506
    33  N   -0.719200
    34  C    0.269049
    35  C    0.003202
    36  C   -0.031698
    37  C    0.253140
    38  C   -0.352281
    39  C    0.392735
    40  O   -0.409673
    41  C   -0.403471
    42  C    0.614748
    43  O   -0.443028
    44  O   -0.443888
    45  C   -0.084116
    46  C   -0.008383
    47  C   -0.141755
    48  C    0.151934
    49  C   -0.383368
    50  C   -0.230167
    51  C   -0.148089
    52  C   -0.150632
    53  C   -0.060676
    54  C   -0.305107
    55  C   -0.165827
    56  C   -0.156832
    57  C   -0.155950
    58  C   -0.039390
    59  C   -0.316201
    60  C   -0.170869
    61  C   -0.192836
    62  C   -0.151206
    63  C   -0.043977
    64  C   -0.311965
    65  C   -0.319162
    66  H    0.075504
    67  H    0.110629
    68  H    0.089106
    69  H    0.139220
    70  H    0.108094
    71  H    0.125105
    72  H    0.127937
    73  H    0.106847
    74  H    0.119871
    75  H    0.125350
    76  H    0.134941
    77  H    0.131667
    78  H    0.124087
    79  H    0.156339
    80  H    0.110637
    81  H    0.113104
    82  H    0.122778
    83  H    0.113144
    84  H    0.086134
    85  H    0.119911
    86  H    0.111430
    87  H    0.130775
    88  H    0.146413
    89  H    0.116782
    90  H    0.166954
    91  H    0.124458
    92  H    0.120489
    93  H    0.083636
    94  H    0.152381
    95  H    0.117039
    96  H    0.098268
    97  H    0.081586
    98  H    0.099310
    99  H    0.061554
   100  H    0.106678
   101  H    0.080111
   102  H    0.094401
   103  H    0.053785
   104  H    0.106482
   105  H    0.082986
   106  H    0.106579
   107  H    0.078110
   108  H    0.066083
   109  H    0.098138
   110  H    0.095127
   111  H    0.026607
   112  H    0.095894
   113  H    0.080641
   114  H    0.096420
   115  H    0.104191
   116  H    0.097404
   117  H    0.091502
   118  H    0.096988
   119  H    0.074141
   120  H    0.112130
   121  H    0.087351
   122  H    0.081648
   123  H    0.083671
   124  H    0.102312
   125  H    0.106342
   126  H    0.064987
   127  H    0.069286
   128  H    0.100162
   129  H    0.110785
   130  H    0.094985
   131  H    0.132270
   132  H    0.129087
   133  O   -0.435632
   134  H    0.090520
 Sum of Mulliken charges =  -0.00000

 Dipole moment (field-independent basis, Debye):
    X=              2.1510    Y=             -5.0524    Z=             -0.6877  Tot=              5.5341
 Quadrupole moment (field-independent basis, Debye-Ang):
   XX=           -383.5948   YY=           -436.4456   ZZ=           -391.2911
   XY=              0.6824   XZ=             16.9896   YZ=            -34.1744

 Normal termination of Gaussian 16 at Fri Oct 11 02:54:24 2019.
