 Gaussian 16, Revision A.03,
 Gaussian 16:  ES64L-G16RevA.03 25-Dec-2016

 ----------------------------------------------------------------------
 # td=(NStates=1) iop(3/107=0140000000,3/108=0140000000) iop(3/107=0140
 000000,3/108=0140000000) CAM-B3LYP/6-31G(d,p)
 ----------------------------------------------------------------------

 --
 TD
 --
 Symbolic Z-matrix:
 Charge =  0 Multiplicity = 1

                         Standard orientation:
 ---------------------------------------------------------------------
 Center     Atomic      Atomic             Coordinates (Angstroms)
 Number     Number       Type             X           Y           Z
 ---------------------------------------------------------------------
      1         12           0       -5.609865    1.188401    0.190405
      2          6           0       -5.012221   -2.043319   -0.367151
      3          6           0       -3.345417    1.221012    2.763410
      4          6           0       -6.195494    4.489663    0.652730
      5          6           0       -7.943711    1.184528   -2.441879
      6          7           0       -4.342572   -0.236717    1.112987
      7          6           0       -4.277743   -1.624574    0.704886
      8          6           0       -3.219304   -2.308483    1.485629
      9          6           0       -2.928649   -1.286854    2.654423
     10          6           0       -3.578623    0.009292    2.200706
     11          6           0       -3.370825   -1.666577    3.946116
     12          6           0       -2.041349   -2.772166    0.638301
     13          6           0       -1.070169   -3.648666    1.395271
     14          6           0        0.260319   -3.913526    0.648678
     15          8           0        0.483465   -3.394981   -0.455764
     16          8           0        1.053426   -4.724543    1.304497
     17          7           0       -5.051360    2.633906    1.510942
     18          6           0       -3.940240    2.394649    2.446799
     19          6           0       -3.670548    3.701659    3.088438
     20          6           0       -4.547547    4.609591    2.527679
     21          6           0       -5.246893    3.924705    1.470128
     22          6           0       -2.814389    3.799796    4.351669
     23          6           0       -4.593149    6.001985    2.917392
     24          8           0       -4.036679    6.633868    3.761473
     25          7           0       -6.785736    2.618799   -0.691043
     26          6           0       -6.851434    3.977199   -0.402865
     27          6           0       -7.829605    4.622819   -1.358485
     28          6           0       -8.400239    3.610860   -2.006003
     29          6           0       -7.752394    2.348833   -1.725941
     30          6           0       -8.300804    5.944245   -1.211483
     31          6           0       -9.320511    3.641531   -3.172415
     32          6           0       -8.795859    4.058462   -4.460380
     33          7           0       -6.429810   -0.147418   -1.133127
     34          6           0       -7.402427   -0.046764   -2.121743
     35          6           0       -7.544682   -1.443117   -2.693726
     36          6           0       -6.527750   -2.223776   -2.105811
     37          6           0       -5.932945   -1.425223   -1.144389
     38          6           0       -8.452725   -1.694778   -3.837092
     39          6           0       -6.077992   -3.602484   -2.025253
     40          8           0       -6.448700   -4.525221   -2.730038
     41          6           0       -4.924009   -3.468812   -0.932756
     42          6           0       -5.371999   -4.552098    0.080661
     43          8           0       -5.712241   -4.399299    1.292372
     44          8           0       -5.013309   -5.775680   -0.368294
     45          6           0       -5.293789   -6.849214    0.605464
     46          6           0        2.383178   -5.143836    0.735772
     47          6           0        3.411313   -4.114698    1.089906
     48          6           0        4.004896   -3.322549    0.223230
     49          6           0        3.741153   -3.430217   -1.250490
     50          6           0        5.106216   -2.405678    0.707240
     51          6           0        6.445439   -2.666899    0.086137
     52          6           0        7.522550   -1.714890    0.626342
     53          6           0        8.870491   -1.851662   -0.123060
     54          6           0        9.458196   -3.327410   -0.018022
     55          6           0        9.920546   -0.808580    0.409472
     56          6           0       11.297347   -0.855203   -0.239660
     57          6           0       12.144830    0.322349    0.245868
     58          6           0       13.508842    0.423681   -0.606566
     59          6           0       14.419224   -0.790985   -0.332861
     60          6           0       14.180400    1.687858   -0.230210
     61          6           0       15.477596    2.197646   -1.025929
     62          6           0       15.980198    3.500784   -0.590157
     63          6           0       17.327338    3.871295   -1.309961
     64          6           0       17.020299    4.035905   -2.792161
     65          6           0       17.945990    5.135442   -0.841661
     66          1           0       -2.846251    1.380691    3.711143
     67          1           0       -6.254721    5.700035    0.719843
     68          1           0       -8.775977    1.201371   -3.114678
     69          1           0       -3.631472   -3.298910    2.090835
     70          1           0       -1.895614   -1.109354    2.704714
     71          1           0       -3.038059   -2.521250    4.159860
     72          1           0       -2.824746   -0.792708    4.751832
     73          1           0       -4.598014   -1.765909    4.017512
     74          1           0       -2.478368   -3.179658   -0.224581
     75          1           0       -1.591273   -1.774151    0.094433
     76          1           0       -0.566108   -3.064142    2.288261
     77          1           0       -1.443873   -4.500086    2.012742
     78          1           0       -1.610184    3.778343    4.061106
     79          1           0       -3.023739    4.926087    4.619060
     80          1           0       -2.827790    3.118488    5.151740
     81          1           0       -5.270952    6.476066    2.162287
     82          1           0       -9.898525    2.766731   -3.443139
     83          1           0      -10.202780    4.551190   -3.074062
     84          1           0       -9.404095    4.304508   -5.259966
     85          1           0       -8.183695    4.965078   -4.426141
     86          1           0       -8.049431    3.174158   -4.890208
     87          1           0       -8.047048   -1.162579   -4.818828
     88          1           0       -8.361879   -2.775225   -3.818934
     89          1           0       -9.418493   -1.366261   -3.403750
     90          1           0       -3.894239   -3.806095   -1.267794
     91          1           0        2.453847   -6.074174    1.076311
     92          1           0        2.262935   -5.076839   -0.337445
     93          1           0        3.570456   -4.067492    2.148440
     94          1           0        2.755825   -3.980467   -1.453177
     95          1           0        3.811243   -2.451925   -1.686973
     96          1           0        4.528545   -3.967555   -1.799654
     97          1           0        4.924990   -1.245396    0.524039
     98          1           0        5.282089   -2.201792    1.731678
     99          1           0        6.598787   -3.706972    0.205077
    100          1           0        6.267057   -2.432796   -0.919494
    101          1           0        6.899918   -0.697597    0.222253
    102          1           0        7.619572   -1.556867    1.675980
    103          1           0        8.814208   -1.759521   -1.159779
    104          1           0        8.994145   -4.124384   -0.508258
    105          1           0       10.404992   -3.392805   -0.578872
    106          1           0        9.685515   -3.517471    1.149244
    107          1           0        9.291569    0.183430    0.161571
    108          1           0        9.912318   -0.862062    1.480480
    109          1           0       11.783558   -1.836449   -0.168534
    110          1           0       11.263701   -0.617037   -1.261244
    111          1           0       11.594020    1.156780    0.018277
    112          1           0       12.291239    0.305391    1.336009
    113          1           0       12.961585    0.580521   -1.575301
    114          1           0       14.656560   -0.641301    0.595925
    115          1           0       14.103873   -1.882615   -0.588312
    116          1           0       15.429293   -0.590028   -0.660309
    117          1           0       13.399699    2.359608   -0.206274
    118          1           0       14.587229    1.625292    0.858392
    119          1           0       16.214977    1.589853   -0.862351
    120          1           0       15.146664    2.286438   -2.075593
    121          1           0       15.326545    4.189882   -0.850417
    122          1           0       16.148407    3.519046    0.414517
    123          1           0       18.050336    3.081193   -1.403286
    124          1           0       16.359946    4.970406   -3.146918
    125          1           0       17.905379    4.471727   -3.431462
    126          1           0       16.455306    3.141277   -3.159661
    127          1           0       17.976280    4.945329    0.226507
    128          1           0       18.954404    5.027464   -1.387528
    129          1           0       17.323805    5.998857   -1.174909
    130          1           0       -5.203497   -7.805901   -0.023861
    131          1           0       -6.309960   -6.795606    1.064449
    132          1           0       -4.598189   -6.797069    1.566601
    133          8           0       -7.857721    6.764379   -0.402358
    134          1           0       -9.028587    6.177704   -1.943152
 ---------------------------------------------------------------------

 SCF Done:  E(RCAM-B3LYP) =  -3043.42924548     A.U. after   16 cycles

 Excitation energies and oscillator strengths:

 Excited State   1:      Singlet-A      1.9810 eV  625.87 nm  f=0.2256  <S**2>=0.000
     243 -> 246       -0.24047
     244 -> 245        0.65600
 This state for optimization and/or second-order correction.
 Total Energy, E(TD-HF/TD-DFT) =  -3043.35644514
 Copying the excited state density for this state as the 1-particle RhoCI density.

 The electronic state is 1-A.
 Alpha  occ. eigenvalues --  -46.80808 -19.23555 -19.22448 -19.17926 -19.17361
 Alpha  occ. eigenvalues --  -19.17314 -19.16780 -19.16019 -14.39306 -14.36812
 Alpha  occ. eigenvalues --  -14.36446 -14.36340 -10.35873 -10.34985 -10.32054
 Alpha  occ. eigenvalues --  -10.29602 -10.29408 -10.29077 -10.27741 -10.27350
 Alpha  occ. eigenvalues --  -10.27245 -10.26539 -10.26463 -10.26319 -10.26290
 Alpha  occ. eigenvalues --  -10.26173 -10.25972 -10.25382 -10.25271 -10.25179
 Alpha  occ. eigenvalues --  -10.25044 -10.25005 -10.24810 -10.24642 -10.24151
 Alpha  occ. eigenvalues --  -10.24120 -10.24098 -10.23746 -10.23393 -10.23152
 Alpha  occ. eigenvalues --  -10.23101 -10.22884 -10.22723 -10.22698 -10.22646
 Alpha  occ. eigenvalues --  -10.22604 -10.22565 -10.22072 -10.21949 -10.21891
 Alpha  occ. eigenvalues --  -10.21872 -10.21779 -10.21611 -10.21608 -10.21389
 Alpha  occ. eigenvalues --  -10.21058 -10.20803 -10.20718 -10.20403 -10.20382
 Alpha  occ. eigenvalues --  -10.20343 -10.20213 -10.19768 -10.19561 -10.19255
 Alpha  occ. eigenvalues --  -10.18200  -3.09403  -1.84350  -1.83856  -1.83823
 Alpha  occ. eigenvalues --   -1.12943  -1.12897  -1.08069  -1.07449  -1.05718
 Alpha  occ. eigenvalues --   -1.03092  -1.02442  -0.99943  -0.99273  -0.98663
 Alpha  occ. eigenvalues --   -0.97369  -0.89807  -0.87255  -0.86683  -0.86234
 Alpha  occ. eigenvalues --   -0.86194  -0.85452  -0.84979  -0.84141  -0.83897
 Alpha  occ. eigenvalues --   -0.83387  -0.82905  -0.82457  -0.81467  -0.80293
 Alpha  occ. eigenvalues --   -0.79849  -0.79384  -0.78650  -0.77689  -0.77565
 Alpha  occ. eigenvalues --   -0.76400  -0.75206  -0.74554  -0.73080  -0.72123
 Alpha  occ. eigenvalues --   -0.71969  -0.71745  -0.70420  -0.70229  -0.69876
 Alpha  occ. eigenvalues --   -0.69493  -0.68890  -0.67842  -0.67145  -0.66107
 Alpha  occ. eigenvalues --   -0.65802  -0.65375  -0.64507  -0.63173  -0.63010
 Alpha  occ. eigenvalues --   -0.61544  -0.61249  -0.60760  -0.59896  -0.59353
 Alpha  occ. eigenvalues --   -0.59018  -0.58608  -0.58539  -0.58149  -0.57079
 Alpha  occ. eigenvalues --   -0.56809  -0.56431  -0.55799  -0.55076  -0.54616
 Alpha  occ. eigenvalues --   -0.54322  -0.53874  -0.53428  -0.52782  -0.52336
 Alpha  occ. eigenvalues --   -0.52008  -0.51788  -0.51208  -0.51061  -0.50809
 Alpha  occ. eigenvalues --   -0.50555  -0.50347  -0.50008  -0.49626  -0.49357
 Alpha  occ. eigenvalues --   -0.48830  -0.48777  -0.48699  -0.48056  -0.47954
 Alpha  occ. eigenvalues --   -0.47680  -0.47476  -0.47380  -0.47243  -0.46978
 Alpha  occ. eigenvalues --   -0.46890  -0.46706  -0.46565  -0.46486  -0.46346
 Alpha  occ. eigenvalues --   -0.46022  -0.45802  -0.45638  -0.45282  -0.44974
 Alpha  occ. eigenvalues --   -0.44792  -0.44752  -0.44350  -0.44286  -0.44163
 Alpha  occ. eigenvalues --   -0.43834  -0.43682  -0.43572  -0.43259  -0.43078
 Alpha  occ. eigenvalues --   -0.42702  -0.42516  -0.42020  -0.41928  -0.41737
 Alpha  occ. eigenvalues --   -0.41651  -0.41503  -0.41254  -0.41172  -0.40789
 Alpha  occ. eigenvalues --   -0.40711  -0.40609  -0.40432  -0.40341  -0.40174
 Alpha  occ. eigenvalues --   -0.39753  -0.39719  -0.39413  -0.39274  -0.39126
 Alpha  occ. eigenvalues --   -0.39080  -0.38688  -0.38556  -0.38140  -0.37978
 Alpha  occ. eigenvalues --   -0.37966  -0.37638  -0.37610  -0.37393  -0.37196
 Alpha  occ. eigenvalues --   -0.36859  -0.36523  -0.35944  -0.35813  -0.35810
 Alpha  occ. eigenvalues --   -0.35339  -0.35162  -0.35143  -0.34587  -0.34485
 Alpha  occ. eigenvalues --   -0.34421  -0.34073  -0.33907  -0.33631  -0.33250
 Alpha  occ. eigenvalues --   -0.33149  -0.32667  -0.32379  -0.32169  -0.32073
 Alpha  occ. eigenvalues --   -0.31410  -0.30733  -0.30465  -0.29888  -0.29720
 Alpha  occ. eigenvalues --   -0.28801  -0.28368  -0.28257  -0.28118  -0.27816
 Alpha  occ. eigenvalues --   -0.27761  -0.26970  -0.23587  -0.21353
 Alpha virt. eigenvalues --   -0.08771  -0.06813  -0.02492  -0.00476   0.00135
 Alpha virt. eigenvalues --    0.01878   0.03031   0.03613   0.04477   0.04613
 Alpha virt. eigenvalues --    0.04743   0.06275   0.07767   0.07811   0.09177

 Mulliken charges:
               1
     1  Mg   0.807279
     2  C    0.097182
     3  C   -0.169362
     4  C   -0.201723
     5  C   -0.160687
     6  N   -0.652549
     7  C    0.301599
     8  C   -0.164646
     9  C   -0.140019
    10  C    0.383234
    11  C   -0.258263
    12  C   -0.147915
    13  C   -0.267504
    14  C    0.601990
    15  O   -0.496008
    16  O   -0.469986
    17  N   -0.691586
    18  C    0.268683
    19  C    0.041773
    20  C   -0.014579
    21  C    0.353626
    22  C   -0.401144
    23  C    0.268563
    24  O   -0.415150
    25  N   -0.687963
    26  C    0.287785
    27  C   -0.006547
    28  C    0.060669
    29  C    0.298715
    30  C    0.258389
    31  C   -0.259187
    32  C   -0.288739
    33  N   -0.737979
    34  C    0.293471
    35  C   -0.050501
    36  C    0.050748
    37  C    0.306333
    38  C   -0.360767
    39  C    0.377726
    40  O   -0.452251
    41  C   -0.359642
    42  C    0.607210
    43  O   -0.495280
    44  O   -0.428016
    45  C   -0.089129
    46  C    0.011492
    47  C   -0.123078
    48  C    0.167899
    49  C   -0.390209
    50  C   -0.247480
    51  C   -0.164547
    52  C   -0.166669
    53  C   -0.051777
    54  C   -0.315988
    55  C   -0.172750
    56  C   -0.174579
    57  C   -0.192381
    58  C   -0.058635
    59  C   -0.306884
    60  C   -0.181425
    61  C   -0.172479
    62  C   -0.150650
    63  C   -0.074719
    64  C   -0.312813
    65  C   -0.284199
    66  H    0.088851
    67  H    0.135454
    68  H    0.087841
    69  H    0.106429
    70  H    0.115486
    71  H    0.121612
    72  H    0.062505
    73  H    0.101825
    74  H    0.115232
    75  H    0.109177
    76  H    0.121543
    77  H    0.135084
    78  H    0.096172
    79  H    0.157982
    80  H    0.140439
    81  H    0.050728
    82  H    0.122363
    83  H    0.072478
    84  H    0.126284
    85  H    0.111783
    86  H    0.068406
    87  H    0.129528
    88  H    0.150939
    89  H    0.127084
    90  H    0.178877
    91  H    0.124525
    92  H    0.115133
    93  H    0.085681
    94  H    0.141983
    95  H    0.124672
    96  H    0.119174
    97  H    0.069275
    98  H    0.103573
    99  H    0.104187
   100  H    0.109750
   101  H    0.051824
   102  H    0.099442
   103  H    0.091728
   104  H    0.107375
   105  H    0.095387
   106  H    0.075364
   107  H    0.070460
   108  H    0.093728
   109  H    0.100353
   110  H    0.095505
   111  H    0.098186
   112  H    0.082043
   113  H    0.073545
   114  H    0.118216
   115  H    0.095045
   116  H    0.095331
   117  H    0.089459
   118  H    0.063746
   119  H    0.100277
   120  H    0.091777
   121  H    0.101040
   122  H    0.084983
   123  H    0.096584
   124  H    0.067107
   125  H    0.080838
   126  H    0.100630
   127  H    0.097430
   128  H    0.094085
   129  H    0.104293
   130  H    0.126260
   131  H    0.145580
   132  H    0.116705
   133  O   -0.438734
   134  H    0.066376
 Sum of Mulliken charges =  -0.00000

 Dipole moment (field-independent basis, Debye):
    X=              3.5979    Y=             -6.2169    Z=             -0.7576  Tot=              7.2228
 Quadrupole moment (field-independent basis, Debye-Ang):
   XX=           -382.0147   YY=           -438.9083   ZZ=           -394.4798
   XY=              6.6583   XZ=             26.8515   YZ=            -38.3821

 Normal termination of Gaussian 16 at Fri Oct  4 12:47:11 2019.
