 Gaussian 16, Revision A.03,
 Gaussian 16:  ES64L-G16RevA.03 25-Dec-2016

 ----------------------------------------------------------------------
 # td=(NStates=1) iop(3/107=0140000000,3/108=0140000000) iop(3/107=0140
 000000,3/108=0140000000) CAM-B3LYP/6-31G(d,p)
 ----------------------------------------------------------------------

 --
 TD
 --
 Symbolic Z-matrix:
 Charge =  0 Multiplicity = 1

                         Standard orientation:
 ---------------------------------------------------------------------
 Center     Atomic      Atomic             Coordinates (Angstroms)
 Number     Number       Type             X           Y           Z
 ---------------------------------------------------------------------
      1         12           0       -5.728705    1.104355    0.265789
      2          6           0       -5.085553   -2.170264   -0.307940
      3          6           0       -3.429227    1.129003    2.653330
      4          6           0       -6.290702    4.549983    0.718629
      5          6           0       -8.089519    1.079937   -2.302462
      6          7           0       -4.330488   -0.279456    0.933480
      7          6           0       -4.264932   -1.576222    0.609624
      8          6           0       -3.236337   -2.368395    1.510143
      9          6           0       -2.899694   -1.313566    2.595134
     10          6           0       -3.565134   -0.014383    2.046565
     11          6           0       -3.323377   -1.672186    4.067699
     12          6           0       -2.033073   -2.721948    0.661848
     13          6           0       -0.892164   -3.484279    1.461440
     14          6           0        0.259400   -3.861062    0.604721
     15          8           0        0.551125   -3.300088   -0.469721
     16          8           0        1.070166   -4.579212    1.362379
     17          7           0       -5.029244    2.678576    1.471851
     18          6           0       -4.057174    2.394525    2.368715
     19          6           0       -3.784589    3.564511    3.107690
     20          6           0       -4.617289    4.609744    2.595107
     21          6           0       -5.365401    3.926766    1.558855
     22          6           0       -2.825391    3.723585    4.342109
     23          6           0       -4.651430    5.979898    2.916021
     24          8           0       -4.131652    6.599816    3.850133
     25          7           0       -7.109082    2.584255   -0.535555
     26          6           0       -7.068569    3.908117   -0.341759
     27          6           0       -7.911825    4.585087   -1.261595
     28          6           0       -8.473183    3.519067   -2.129207
     29          6           0       -7.909549    2.360716   -1.651035
     30          6           0       -8.378995    6.040756   -1.204509
     31          6           0       -9.480075    3.712139   -3.221218
     32          6           0       -8.825079    4.056805   -4.546078
     33          7           0       -6.413357   -0.161277   -1.128298
     34          6           0       -7.425283   -0.101943   -2.099908
     35          6           0       -7.569787   -1.389508   -2.760388
     36          6           0       -6.685806   -2.195345   -2.138180
     37          6           0       -6.004029   -1.411245   -1.161033
     38          6           0       -8.480918   -1.799361   -3.833516
     39          6           0       -6.194975   -3.636860   -2.018995
     40          8           0       -6.564049   -4.551081   -2.668605
     41          6           0       -5.070453   -3.555444   -0.803251
     42          6           0       -5.270775   -4.676372    0.160590
     43          8           0       -5.647975   -4.551756    1.268616
     44          8           0       -4.935590   -5.845528   -0.372360
     45          6           0       -4.974912   -7.067206    0.506391
     46          6           0        2.380721   -4.961123    0.628394
     47          6           0        3.471001   -3.987909    0.958896
     48          6           0        4.115381   -3.196685    0.214265
     49          6           0        3.695057   -2.966453   -1.303201
     50          6           0        5.222908   -2.349976    0.767074
     51          6           0        6.656631   -2.609091    0.070316
     52          6           0        7.701671   -1.739962    0.644568
     53          6           0        9.108595   -1.876147   -0.031653
     54          6           0        9.648102   -3.325699    0.194236
     55          6           0       10.063583   -0.798729    0.351909
     56          6           0       11.423703   -0.927910   -0.193285
     57          6           0       12.254200    0.349818    0.127228
     58          6           0       13.594718    0.448824   -0.554338
     59          6           0       14.502679   -0.775647   -0.349638
     60          6           0       14.291843    1.729396   -0.166861
     61          6           0       15.484891    2.243485   -0.975770
     62          6           0       16.076592    3.546918   -0.623605
     63          6           0       17.304679    3.943136   -1.427843
     64          6           0       17.134020    4.031002   -2.941646
     65          6           0       17.871919    5.160237   -0.847419
     66          1           0       -2.573700    1.166179    3.327198
     67          1           0       -6.453324    5.565794    0.922690
     68          1           0       -8.850996    1.033398   -3.039103
     69          1           0       -3.593455   -3.326914    1.834866
     70          1           0       -1.797664   -1.215688    2.419815
     71          1           0       -2.804157   -2.486834    4.626767
     72          1           0       -3.126540   -0.829946    4.655871
     73          1           0       -4.396241   -1.872993    3.959552
     74          1           0       -2.123391   -3.358174   -0.243172
     75          1           0       -1.540256   -1.673125    0.514826
     76          1           0       -0.551424   -2.955885    2.476207
     77          1           0       -1.147710   -4.622487    1.731427
     78          1           0       -1.725303    3.582880    3.960030
     79          1           0       -3.137305    4.777367    4.748445
     80          1           0       -3.091199    2.939396    5.073512
     81          1           0       -5.393469    6.557635    2.195599
     82          1           0      -10.082206    2.980458   -3.158285
     83          1           0      -10.257125    4.530538   -3.024310
     84          1           0       -9.729147    4.204836   -5.441368
     85          1           0       -8.197359    4.932604   -4.653397
     86          1           0       -8.186642    3.252606   -5.001491
     87          1           0       -8.354647   -1.326339   -4.825644
     88          1           0       -8.407770   -2.775831   -4.126622
     89          1           0       -9.528097   -1.446179   -3.573688
     90          1           0       -4.148900   -3.873180   -1.400284
     91          1           0        2.468338   -5.826785    0.837790
     92          1           0        1.974148   -4.843500   -0.434657
     93          1           0        3.887703   -4.337794    2.013466
     94          1           0        2.511226   -2.992256   -1.449907
     95          1           0        3.910572   -1.946164   -1.489706
     96          1           0        4.221910   -3.833100   -1.899615
     97          1           0        5.096440   -1.307634    0.595377
     98          1           0        5.352277   -2.502396    1.838503
     99          1           0        6.940942   -3.631873    0.154999
    100          1           0        6.556799   -2.432526   -1.066334
    101          1           0        7.440392   -0.619854    0.462303
    102          1           0        7.733344   -1.963562    1.775640
    103          1           0        8.847398   -1.783236   -1.292227
    104          1           0        9.008409   -4.174907   -0.184787
    105          1           0       10.749244   -3.366258   -0.286138
    106          1           0        9.754854   -3.467669    1.287672
    107          1           0        9.465294    0.109797    0.050747
    108          1           0        9.869980   -0.912679    1.554081
    109          1           0       12.058369   -1.889574   -0.265625
    110          1           0       11.261355   -1.034427   -1.303697
    111          1           0       11.643407    1.281344   -0.080942
    112          1           0       12.289071    0.406716    1.246436
    113          1           0       13.500947    0.624482   -1.711285
    114          1           0       14.534753   -0.755545    0.823783
    115          1           0       13.998929   -1.694941   -0.347014
    116          1           0       15.313406   -0.662165   -1.151724
    117          1           0       13.410723    2.493434   -0.358182
    118          1           0       14.518245    1.770235    0.983626
    119          1           0       16.267182    1.390299   -1.014473
    120          1           0       15.112085    2.301689   -2.010237
    121          1           0       15.314000    4.226068   -0.787370
    122          1           0       16.484257    3.558041    0.299856
    123          1           0       18.216387    2.961115   -1.065425
    124          1           0       16.296629    4.862126   -3.111457
    125          1           0       18.058578    4.134745   -3.381447
    126          1           0       16.614066    3.063012   -3.605821
    127          1           0       18.071927    4.951930    0.259484
    128          1           0       18.736637    5.588627   -1.302217
    129          1           0       17.213862    5.930075   -1.022815
    130          1           0       -4.585999   -7.835867   -0.066990
    131          1           0       -6.130988   -7.364035    0.588908
    132          1           0       -4.480982   -6.857849    1.409761
    133          8           0       -7.980904    6.846649   -0.389041
    134          1           0       -9.039973    6.290165   -1.953775
 ---------------------------------------------------------------------

 SCF Done:  E(RCAM-B3LYP) =  -3043.47274098     A.U. after   15 cycles

 Excitation energies and oscillator strengths:

 Excited State   1:      Singlet-A      2.2016 eV  563.17 nm  f=0.1149  <S**2>=0.000
     243 -> 245        0.60052
     244 -> 245       -0.13113
     244 -> 246       -0.32209
 This state for optimization and/or second-order correction.
 Total Energy, E(TD-HF/TD-DFT) =  -3043.39183533
 Copying the excited state density for this state as the 1-particle RhoCI density.

 The electronic state is 1-A.
 Alpha  occ. eigenvalues --  -46.82500 -19.22212 -19.22163 -19.19049 -19.16818
 Alpha  occ. eigenvalues --  -19.16706 -19.16558 -19.16473 -14.38390 -14.36995
 Alpha  occ. eigenvalues --  -14.36982 -14.36268 -10.34576 -10.34302 -10.33036
 Alpha  occ. eigenvalues --  -10.29844 -10.29622 -10.28406 -10.27360 -10.26753
 Alpha  occ. eigenvalues --  -10.26609 -10.26481 -10.26322 -10.26209 -10.25771
 Alpha  occ. eigenvalues --  -10.25678 -10.25622 -10.25608 -10.25359 -10.25001
 Alpha  occ. eigenvalues --  -10.24795 -10.24643 -10.24327 -10.24175 -10.23923
 Alpha  occ. eigenvalues --  -10.23630 -10.23584 -10.23562 -10.23462 -10.23403
 Alpha  occ. eigenvalues --  -10.23199 -10.23129 -10.22907 -10.22758 -10.22728
 Alpha  occ. eigenvalues --  -10.22580 -10.22471 -10.22448 -10.22433 -10.22381
 Alpha  occ. eigenvalues --  -10.22238 -10.22198 -10.22160 -10.22065 -10.22006
 Alpha  occ. eigenvalues --  -10.21905 -10.21818 -10.21756 -10.21552 -10.21547
 Alpha  occ. eigenvalues --  -10.21491 -10.21462 -10.20881 -10.20543 -10.19553
 Alpha  occ. eigenvalues --  -10.18842  -3.10908  -1.85858  -1.85364  -1.85321
 Alpha  occ. eigenvalues --   -1.14114  -1.12576  -1.10340  -1.06471  -1.05260
 Alpha  occ. eigenvalues --   -1.04990  -1.03117  -1.02084  -1.01339  -0.99816
 Alpha  occ. eigenvalues --   -0.98966  -0.88211  -0.86540  -0.86172  -0.85689
 Alpha  occ. eigenvalues --   -0.85556  -0.85272  -0.84975  -0.84637  -0.83975
 Alpha  occ. eigenvalues --   -0.82899  -0.82639  -0.81654  -0.81019  -0.79942
 Alpha  occ. eigenvalues --   -0.78588  -0.78125  -0.77680  -0.77255  -0.76943
 Alpha  occ. eigenvalues --   -0.75448  -0.75162  -0.73934  -0.73417  -0.72595
 Alpha  occ. eigenvalues --   -0.71317  -0.71043  -0.70655  -0.70213  -0.69945
 Alpha  occ. eigenvalues --   -0.69719  -0.69340  -0.67496  -0.67211  -0.66395
 Alpha  occ. eigenvalues --   -0.66204  -0.65652  -0.64119  -0.62399  -0.62256
 Alpha  occ. eigenvalues --   -0.61814  -0.61071  -0.60411  -0.58904  -0.58022
 Alpha  occ. eigenvalues --   -0.57543  -0.57411  -0.57212  -0.56937  -0.56520
 Alpha  occ. eigenvalues --   -0.56296  -0.56058  -0.55440  -0.55354  -0.54551
 Alpha  occ. eigenvalues --   -0.53867  -0.53429  -0.52950  -0.52493  -0.52419
 Alpha  occ. eigenvalues --   -0.51967  -0.51910  -0.51412  -0.51313  -0.50773
 Alpha  occ. eigenvalues --   -0.50400  -0.50047  -0.49722  -0.49266  -0.48879
 Alpha  occ. eigenvalues --   -0.48778  -0.48529  -0.48494  -0.48360  -0.47971
 Alpha  occ. eigenvalues --   -0.47770  -0.47465  -0.47252  -0.47121  -0.46885
 Alpha  occ. eigenvalues --   -0.46842  -0.46499  -0.46347  -0.46257  -0.46112
 Alpha  occ. eigenvalues --   -0.45752  -0.45428  -0.45402  -0.45257  -0.44992
 Alpha  occ. eigenvalues --   -0.44692  -0.44631  -0.44434  -0.44368  -0.44052
 Alpha  occ. eigenvalues --   -0.43979  -0.43632  -0.43524  -0.43433  -0.43271
 Alpha  occ. eigenvalues --   -0.43051  -0.42972  -0.42795  -0.42674  -0.42317
 Alpha  occ. eigenvalues --   -0.42198  -0.41794  -0.41482  -0.41164  -0.41005
 Alpha  occ. eigenvalues --   -0.40859  -0.40705  -0.40652  -0.40518  -0.40193
 Alpha  occ. eigenvalues --   -0.39722  -0.39587  -0.39281  -0.39123  -0.38967
 Alpha  occ. eigenvalues --   -0.38676  -0.38532  -0.38435  -0.38102  -0.38071
 Alpha  occ. eigenvalues --   -0.37939  -0.37543  -0.37447  -0.37170  -0.37098
 Alpha  occ. eigenvalues --   -0.36536  -0.36388  -0.36321  -0.35968  -0.35778
 Alpha  occ. eigenvalues --   -0.35350  -0.34873  -0.34799  -0.34656  -0.34607
 Alpha  occ. eigenvalues --   -0.33776  -0.33637  -0.33437  -0.33325  -0.32811
 Alpha  occ. eigenvalues --   -0.32630  -0.32491  -0.32053  -0.31663  -0.31595
 Alpha  occ. eigenvalues --   -0.31382  -0.31216  -0.31010  -0.29902  -0.29816
 Alpha  occ. eigenvalues --   -0.29299  -0.28667  -0.28415  -0.27957  -0.27566
 Alpha  occ. eigenvalues --   -0.27044  -0.26511  -0.22825  -0.22785
 Alpha virt. eigenvalues --   -0.08685  -0.06657  -0.00800  -0.00029   0.01101
 Alpha virt. eigenvalues --    0.02283   0.02688   0.03905   0.04158   0.04690
 Alpha virt. eigenvalues --    0.05564   0.05804   0.08099   0.08657   0.08830

 Mulliken charges:
               1
     1  Mg   0.830501
     2  C    0.090583
     3  C   -0.189417
     4  C   -0.134274
     5  C   -0.177672
     6  N   -0.665078
     7  C    0.330143
     8  C   -0.135693
     9  C   -0.153689
    10  C    0.346721
    11  C   -0.309337
    12  C   -0.171698
    13  C   -0.262105
    14  C    0.608190
    15  O   -0.490683
    16  O   -0.475575
    17  N   -0.706717
    18  C    0.320113
    19  C    0.003300
    20  C    0.022075
    21  C    0.318469
    22  C   -0.376124
    23  C    0.214286
    24  O   -0.436595
    25  N   -0.673803
    26  C    0.294547
    27  C   -0.085598
    28  C    0.011504
    29  C    0.288475
    30  C    0.272444
    31  C   -0.210614
    32  C   -0.302497
    33  N   -0.735861
    34  C    0.273917
    35  C    0.043634
    36  C    0.009864
    37  C    0.296910
    38  C   -0.393906
    39  C    0.387366
    40  O   -0.408903
    41  C   -0.365176
    42  C    0.625369
    43  O   -0.460553
    44  O   -0.469650
    45  C   -0.085267
    46  C    0.019107
    47  C   -0.124512
    48  C    0.155028
    49  C   -0.378878
    50  C   -0.237281
    51  C   -0.182213
    52  C   -0.157189
    53  C   -0.048752
    54  C   -0.301526
    55  C   -0.135766
    56  C   -0.186468
    57  C   -0.173707
    58  C   -0.057071
    59  C   -0.297591
    60  C   -0.147353
    61  C   -0.179738
    62  C   -0.123851
    63  C   -0.031532
    64  C   -0.289515
    65  C   -0.293995
    66  H    0.090947
    67  H    0.125959
    68  H    0.085206
    69  H    0.122931
    70  H    0.100051
    71  H    0.112725
    72  H    0.119174
    73  H    0.129897
    74  H    0.117111
    75  H    0.106457
    76  H    0.135980
    77  H    0.104328
    78  H    0.116009
    79  H    0.157781
    80  H    0.122774
    81  H    0.058246
    82  H    0.115996
    83  H    0.104696
    84  H    0.061624
    85  H    0.130677
    86  H    0.109794
    87  H    0.129686
    88  H    0.154573
    89  H    0.121566
    90  H    0.155893
    91  H    0.105133
    92  H    0.129332
    93  H    0.062488
    94  H    0.152854
    95  H    0.115837
    96  H    0.111499
    97  H    0.112043
    98  H    0.098662
    99  H    0.102122
   100  H    0.088820
   101  H    0.073018
   102  H    0.080260
   103  H    0.028539
   104  H    0.103647
   105  H    0.080465
   106  H    0.099044
   107  H    0.102098
   108  H    0.063705
   109  H    0.098360
   110  H    0.092960
   111  H    0.088961
   112  H    0.092376
   113  H    0.063654
   114  H    0.087498
   115  H    0.103953
   116  H    0.110510
   117  H    0.061284
   118  H    0.066103
   119  H    0.076270
   120  H    0.085812
   121  H    0.091558
   122  H    0.096358
   123  H   -0.001065
   124  H    0.085829
   125  H    0.122616
   126  H    0.067922
   127  H    0.098069
   128  H    0.102561
   129  H    0.105943
   130  H    0.142079
   131  H    0.123532
   132  H    0.145093
   133  O   -0.421145
   134  H    0.074139
 Sum of Mulliken charges =  -0.00000

 Dipole moment (field-independent basis, Debye):
    X=              1.9404    Y=             -7.1291    Z=             -2.2763  Tot=              7.7312
 Quadrupole moment (field-independent basis, Debye-Ang):
   XX=           -380.4500   YY=           -432.1434   ZZ=           -397.2154
   XY=             29.1892   XZ=             25.0949   YZ=            -36.6453

 Normal termination of Gaussian 16 at Wed Oct  9 00:09:55 2019.
