 Gaussian 16, Revision A.03,
 Gaussian 16:  ES64L-G16RevA.03 25-Dec-2016

 ----------------------------------------------------------------------
 # td=(NStates=1) iop(3/107=0140000000,3/108=0140000000) iop(3/107=0140
 000000,3/108=0140000000) CAM-B3LYP/6-31G(d,p)
 ----------------------------------------------------------------------

 --
 TD
 --
 Symbolic Z-matrix:
 Charge =  0 Multiplicity = 1

                         Standard orientation:
 ---------------------------------------------------------------------
 Center     Atomic      Atomic             Coordinates (Angstroms)
 Number     Number       Type             X           Y           Z
 ---------------------------------------------------------------------
      1         12           0       -5.549837    1.249830    0.124198
      2          6           0       -5.022787   -2.224669   -0.329157
      3          6           0       -3.330240    1.153471    2.828317
      4          6           0       -6.121328    4.594555    0.605099
      5          6           0       -8.030101    1.089580   -2.267516
      6          7           0       -4.381149   -0.274909    1.003617
      7          6           0       -4.268074   -1.514692    0.611971
      8          6           0       -3.193324   -2.349511    1.499314
      9          6           0       -2.857952   -1.309999    2.608904
     10          6           0       -3.598641   -0.033934    2.115320
     11          6           0       -3.373174   -1.787216    4.027899
     12          6           0       -1.938835   -2.759566    0.576330
     13          6           0       -1.006425   -3.617621    1.425862
     14          6           0        0.298093   -3.946812    0.737790
     15          8           0        0.550622   -3.441468   -0.356568
     16          8           0        1.043285   -4.829196    1.338447
     17          7           0       -4.966146    2.649477    1.488248
     18          6           0       -3.982736    2.447208    2.505479
     19          6           0       -3.742344    3.639962    3.250363
     20          6           0       -4.538317    4.591805    2.567714
     21          6           0       -5.277575    3.939526    1.516983
     22          6           0       -2.833975    3.822489    4.298541
     23          6           0       -4.558916    6.125755    2.859812
     24          8           0       -4.060839    6.700587    3.799822
     25          7           0       -6.887054    2.676697   -0.649247
     26          6           0       -6.937201    3.990866   -0.399037
     27          6           0       -7.919788    4.638188   -1.303149
     28          6           0       -8.421087    3.679992   -2.065344
     29          6           0       -7.748306    2.391597   -1.729505
     30          6           0       -8.194320    6.006172   -1.283941
     31          6           0       -9.426254    3.756713   -3.168590
     32          6           0       -8.716756    4.095317   -4.565185
     33          7           0       -6.410379   -0.157443   -1.000294
     34          6           0       -7.405427   -0.092322   -1.995336
     35          6           0       -7.571916   -1.376204   -2.574634
     36          6           0       -6.677873   -2.181578   -2.006384
     37          6           0       -5.992462   -1.475283   -1.020502
     38          6           0       -8.573511   -1.568101   -3.841096
     39          6           0       -6.182801   -3.582219   -2.017253
     40          8           0       -6.459125   -4.606063   -2.589774
     41          6           0       -5.011861   -3.596636   -0.906931
     42          6           0       -5.378221   -4.622036    0.105729
     43          8           0       -5.795009   -4.440357    1.223567
     44          8           0       -4.961203   -5.853509   -0.277159
     45          6           0       -5.318051   -6.940862    0.567245
     46          6           0        2.229849   -5.035603    0.595220
     47          6           0        3.378051   -4.063051    1.006445
     48          6           0        3.965902   -3.187663    0.172429
     49          6           0        3.694788   -3.211873   -1.340336
     50          6           0        5.076823   -2.253429    0.561904
     51          6           0        6.469725   -2.606466   -0.117749
     52          6           0        7.535800   -1.838119    0.514892
     53          6           0        8.978303   -1.974968   -0.240313
     54          6           0        9.477848   -3.410251   -0.049544
     55          6           0        9.994232   -0.906361    0.348213
     56          6           0       11.350162   -0.935342   -0.243298
     57          6           0       12.120812    0.302380    0.131647
     58          6           0       13.523075    0.439483   -0.610267
     59          6           0       14.415921   -0.835735   -0.229849
     60          6           0       14.215568    1.760320   -0.246920
     61          6           0       15.452936    2.167758   -1.111480
     62          6           0       15.992287    3.556898   -0.658634
     63          6           0       17.369938    3.973113   -1.223601
     64          6           0       17.158213    4.197029   -2.743347
     65          6           0       18.085334    5.133388   -0.641508
     66          1           0       -2.532534    1.111325    3.705730
     67          1           0       -6.266562    5.551570    0.765476
     68          1           0       -8.866947    1.127511   -2.933418
     69          1           0       -3.778285   -3.223422    1.865726
     70          1           0       -1.666942   -1.196215    2.616360
     71          1           0       -3.079843   -2.855618    4.411395
     72          1           0       -3.116349   -1.066042    4.721630
     73          1           0       -4.431478   -1.820080    4.149214
     74          1           0       -2.487113   -3.439083   -0.124083
     75          1           0       -1.280504   -1.858148    0.035717
     76          1           0       -0.548753   -2.897775    2.169077
     77          1           0       -1.444280   -4.555444    1.830792
     78          1           0       -1.811901    3.590938    4.013802
     79          1           0       -2.960708    5.036890    4.570505
     80          1           0       -2.887213    3.164936    5.100640
     81          1           0       -5.391000    6.637294    2.110591
     82          1           0       -9.819087    2.766728   -3.280492
     83          1           0      -10.288258    4.439436   -2.743980
     84          1           0       -9.568314    4.536988   -5.258715
     85          1           0       -8.080894    5.066040   -4.326180
     86          1           0       -8.110386    3.225794   -4.857675
     87          1           0       -8.134453   -1.030066   -4.697302
     88          1           0       -8.591986   -2.772109   -4.136253
     89          1           0       -9.618708   -1.426396   -3.656985
     90          1           0       -4.209855   -3.848538   -1.392373
     91          1           0        2.736516   -6.100674    0.969400
     92          1           0        2.205677   -5.008414   -0.465238
     93          1           0        3.774532   -4.052341    1.814030
     94          1           0        2.679499   -3.285287   -1.489443
     95          1           0        3.635507   -2.058934   -1.538340
     96          1           0        4.129875   -3.925684   -1.924413
     97          1           0        4.769244   -1.355678    0.467776
     98          1           0        5.154845   -2.288174    1.641242
     99          1           0        6.540539   -3.801798   -0.014708
    100          1           0        6.335741   -2.370954   -1.230807
    101          1           0        7.256655   -0.503273    0.490406
    102          1           0        7.538766   -2.044916    1.561804
    103          1           0        8.874962   -1.758049   -1.285139
    104          1           0        8.605591   -4.107804   -0.300530
    105          1           0       10.288049   -3.556877   -0.629126
    106          1           0        9.984097   -3.578162    1.046064
    107          1           0        9.568837    0.226767    0.267216
    108          1           0        9.988301   -1.198505    1.662507
    109          1           0       11.908410   -1.952936   -0.015493
    110          1           0       11.480119   -0.971573   -1.387523
    111          1           0       11.534064    1.126588    0.025813
    112          1           0       12.265837    0.268818    1.217064
    113          1           0       13.268588    0.366454   -1.525647
    114          1           0       14.813046   -1.070593    0.804655
    115          1           0       13.990250   -1.791233   -0.561625
    116          1           0       15.346932   -1.001836   -0.644525
    117          1           0       13.480990    2.523349   -0.135174
    118          1           0       14.448905    1.517779    0.829539
    119          1           0       16.232343    1.207396   -1.225520
    120          1           0       15.170828    2.207550   -2.121963
    121          1           0       15.101083    4.308765   -0.779380
    122          1           0       16.166465    3.284686    0.666985
    123          1           0       17.778171    2.970824   -1.202684
    124          1           0       16.496345    5.120426   -2.901667
    125          1           0       18.152281    4.348613   -3.151251
    126          1           0       16.775204    3.320188   -3.375775
    127          1           0       18.438654    4.752020    0.238599
    128          1           0       18.932334    5.437248   -1.100853
    129          1           0       17.339151    6.037025   -0.331931
    130          1           0       -5.067819   -7.936068   -0.042908
    131          1           0       -6.361655   -7.084191    0.789373
    132          1           0       -4.688637   -6.930553    1.473223
    133          8           0       -7.794290    6.881390   -0.550868
    134          1           0       -8.971651    6.365066   -1.983723
 ---------------------------------------------------------------------

 SCF Done:  E(RCAM-B3LYP) =  -3043.37788451     A.U. after   15 cycles

 Excitation energies and oscillator strengths:

 Excited State   1:      Singlet-A      2.0293 eV  610.96 nm  f=0.1986  <S**2>=0.000
     243 -> 246       -0.26622
     244 -> 245        0.64548
 This state for optimization and/or second-order correction.
 Total Energy, E(TD-HF/TD-DFT) =  -3043.30330788
 Copying the excited state density for this state as the 1-particle RhoCI density.

 The electronic state is 1-A.
 Alpha  occ. eigenvalues --  -46.81491 -19.24436 -19.22471 -19.18624 -19.18531
 Alpha  occ. eigenvalues --  -19.17288 -19.16597 -19.16272 -14.39617 -14.37477
 Alpha  occ. eigenvalues --  -14.36991 -14.36637 -10.35084 -10.34727 -10.32736
 Alpha  occ. eigenvalues --  -10.32067 -10.29340 -10.28717 -10.28278 -10.27929
 Alpha  occ. eigenvalues --  -10.27749 -10.27185 -10.27038 -10.26596 -10.26130
 Alpha  occ. eigenvalues --  -10.26091 -10.25867 -10.25508 -10.25257 -10.25200
 Alpha  occ. eigenvalues --  -10.24870 -10.24801 -10.24769 -10.24758 -10.24701
 Alpha  occ. eigenvalues --  -10.24439 -10.24173 -10.24076 -10.24047 -10.23973
 Alpha  occ. eigenvalues --  -10.23811 -10.23778 -10.23738 -10.23421 -10.23009
 Alpha  occ. eigenvalues --  -10.22971 -10.22802 -10.22658 -10.22380 -10.22354
 Alpha  occ. eigenvalues --  -10.22134 -10.22095 -10.21838 -10.21680 -10.21551
 Alpha  occ. eigenvalues --  -10.21470 -10.21102 -10.20901 -10.20615 -10.20429
 Alpha  occ. eigenvalues --  -10.19853 -10.19756 -10.19699 -10.19567 -10.19285
 Alpha  occ. eigenvalues --  -10.19067  -3.10100  -1.85032  -1.84571  -1.84509
 Alpha  occ. eigenvalues --   -1.16528  -1.14092  -1.08822  -1.07914  -1.06997
 Alpha  occ. eigenvalues --   -1.05054  -1.04474  -1.01114  -0.99967  -0.99719
 Alpha  occ. eigenvalues --   -0.98811  -0.89431  -0.86050  -0.85869  -0.85040
 Alpha  occ. eigenvalues --   -0.84914  -0.84591  -0.84031  -0.83748  -0.83650
 Alpha  occ. eigenvalues --   -0.82838  -0.82520  -0.81432  -0.80486  -0.79812
 Alpha  occ. eigenvalues --   -0.79055  -0.78134  -0.77551  -0.76946  -0.76163
 Alpha  occ. eigenvalues --   -0.75232  -0.74774  -0.73529  -0.73343  -0.72375
 Alpha  occ. eigenvalues --   -0.72039  -0.71648  -0.70517  -0.70240  -0.70102
 Alpha  occ. eigenvalues --   -0.69457  -0.68828  -0.67296  -0.66245  -0.65939
 Alpha  occ. eigenvalues --   -0.65136  -0.64870  -0.64167  -0.62578  -0.62268
 Alpha  occ. eigenvalues --   -0.61593  -0.61108  -0.60996  -0.59779  -0.59718
 Alpha  occ. eigenvalues --   -0.59571  -0.58066  -0.57795  -0.57321  -0.56644
 Alpha  occ. eigenvalues --   -0.56436  -0.56420  -0.56113  -0.55668  -0.55134
 Alpha  occ. eigenvalues --   -0.54782  -0.53863  -0.52985  -0.52581  -0.52199
 Alpha  occ. eigenvalues --   -0.51712  -0.51656  -0.51262  -0.50631  -0.50449
 Alpha  occ. eigenvalues --   -0.50306  -0.50129  -0.49311  -0.49225  -0.48924
 Alpha  occ. eigenvalues --   -0.48810  -0.48730  -0.48261  -0.48112  -0.47814
 Alpha  occ. eigenvalues --   -0.47703  -0.47622  -0.47328  -0.47109  -0.46972
 Alpha  occ. eigenvalues --   -0.46902  -0.46568  -0.46516  -0.46337  -0.45988
 Alpha  occ. eigenvalues --   -0.45811  -0.45782  -0.45169  -0.45033  -0.44879
 Alpha  occ. eigenvalues --   -0.44803  -0.44448  -0.44286  -0.43839  -0.43703
 Alpha  occ. eigenvalues --   -0.43215  -0.43001  -0.42922  -0.42880  -0.42587
 Alpha  occ. eigenvalues --   -0.42365  -0.42207  -0.42032  -0.41916  -0.41880
 Alpha  occ. eigenvalues --   -0.41812  -0.41629  -0.41360  -0.41327  -0.41161
 Alpha  occ. eigenvalues --   -0.40781  -0.40669  -0.40527  -0.40432  -0.40194
 Alpha  occ. eigenvalues --   -0.40131  -0.39829  -0.39725  -0.39617  -0.39125
 Alpha  occ. eigenvalues --   -0.38705  -0.38358  -0.38307  -0.38151  -0.37983
 Alpha  occ. eigenvalues --   -0.37815  -0.37717  -0.37667  -0.37524  -0.37083
 Alpha  occ. eigenvalues --   -0.36433  -0.36195  -0.36127  -0.35763  -0.35436
 Alpha  occ. eigenvalues --   -0.35331  -0.35172  -0.34931  -0.34631  -0.34608
 Alpha  occ. eigenvalues --   -0.34403  -0.34026  -0.33617  -0.33513  -0.33403
 Alpha  occ. eigenvalues --   -0.33051  -0.32027  -0.31869  -0.31709  -0.31704
 Alpha  occ. eigenvalues --   -0.31266  -0.31118  -0.30928  -0.30307  -0.29799
 Alpha  occ. eigenvalues --   -0.29556  -0.28907  -0.28610  -0.27848  -0.27540
 Alpha  occ. eigenvalues --   -0.27425  -0.26759  -0.23184  -0.21917
 Alpha virt. eigenvalues --   -0.08908  -0.06591  -0.01687  -0.00408   0.00477
 Alpha virt. eigenvalues --    0.02539   0.03080   0.04259   0.04666   0.04786
 Alpha virt. eigenvalues --    0.05200   0.06043   0.08109   0.08565   0.08746

 Mulliken charges:
               1
     1  Mg   0.835418
     2  C    0.108223
     3  C   -0.186271
     4  C   -0.115924
     5  C   -0.177601
     6  N   -0.633368
     7  C    0.298666
     8  C   -0.162794
     9  C   -0.139701
    10  C    0.327761
    11  C   -0.319178
    12  C   -0.165856
    13  C   -0.254268
    14  C    0.597723
    15  O   -0.488600
    16  O   -0.411670
    17  N   -0.717806
    18  C    0.252228
    19  C    0.116254
    20  C   -0.085901
    21  C    0.355734
    22  C   -0.429461
    23  C    0.267627
    24  O   -0.398420
    25  N   -0.675528
    26  C    0.289221
    27  C    0.068233
    28  C    0.006076
    29  C    0.260561
    30  C    0.209675
    31  C   -0.254657
    32  C   -0.298438
    33  N   -0.760008
    34  C    0.301674
    35  C    0.002804
    36  C    0.050530
    37  C    0.294819
    38  C   -0.375817
    39  C    0.353380
    40  O   -0.431962
    41  C   -0.330090
    42  C    0.629238
    43  O   -0.466522
    44  O   -0.442027
    45  C   -0.085856
    46  C   -0.006460
    47  C   -0.076176
    48  C    0.084724
    49  C   -0.389513
    50  C   -0.213598
    51  C   -0.166753
    52  C   -0.135488
    53  C   -0.055313
    54  C   -0.300917
    55  C   -0.140378
    56  C   -0.165325
    57  C   -0.180225
    58  C   -0.049277
    59  C   -0.338310
    60  C   -0.166635
    61  C   -0.177953
    62  C   -0.134999
    63  C   -0.048906
    64  C   -0.310905
    65  C   -0.302344
    66  H    0.101293
    67  H    0.086833
    68  H    0.086773
    69  H    0.133906
    70  H    0.090325
    71  H    0.100699
    72  H    0.112542
    73  H    0.130734
    74  H    0.106807
    75  H    0.120357
    76  H    0.129668
    77  H    0.131612
    78  H    0.128386
    79  H    0.148426
    80  H    0.129955
    81  H    0.066101
    82  H    0.113939
    83  H    0.109937
    84  H    0.112390
    85  H    0.107231
    86  H    0.126475
    87  H    0.138738
    88  H    0.115142
    89  H    0.139457
    90  H    0.162951
    91  H    0.086201
    92  H    0.144328
    93  H    0.037032
    94  H    0.152519
    95  H    0.088400
    96  H    0.128305
    97  H    0.116856
    98  H    0.081744
    99  H    0.085654
   100  H    0.101507
   101  H    0.023531
   102  H    0.104741
   103  H    0.094572
   104  H    0.097062
   105  H    0.118019
   106  H    0.078084
   107  H    0.070616
   108  H    0.039005
   109  H    0.088646
   110  H    0.078497
   111  H    0.094617
   112  H    0.092110
   113  H    0.090328
   114  H    0.093569
   115  H    0.092921
   116  H    0.102112
   117  H    0.091135
   118  H    0.091938
   119  H    0.067215
   120  H    0.108302
   121  H    0.082289
   122  H    0.020126
   123  H    0.098741
   124  H    0.090950
   125  H    0.097255
   126  H    0.089406
   127  H    0.117718
   128  H    0.114460
   129  H    0.088486
   130  H    0.106453
   131  H    0.139278
   132  H    0.122081
   133  O   -0.423586
   134  H    0.042723
 Sum of Mulliken charges =  -0.00000

 Dipole moment (field-independent basis, Debye):
    X=              1.8916    Y=             -4.9285    Z=             -2.4367  Tot=              5.8143
 Quadrupole moment (field-independent basis, Debye-Ang):
   XX=           -369.6637   YY=           -442.7580   ZZ=           -394.8731
   XY=             12.9153   XZ=             20.9477   YZ=            -31.9753

 Normal termination of Gaussian 16 at Tue Oct  8 21:26:24 2019.
