 Gaussian 16, Revision A.03,
 Gaussian 16:  ES64L-G16RevA.03 25-Dec-2016

 ----------------------------------------------------------------------
 # td=(NStates=1) iop(3/107=0140000000,3/108=0140000000) iop(3/107=0140
 000000,3/108=0140000000) CAM-B3LYP/6-31G(d,p)
 ----------------------------------------------------------------------

 --
 TD
 --
 Symbolic Z-matrix:
 Charge =  0 Multiplicity = 1

                         Standard orientation:
 ---------------------------------------------------------------------
 Center     Atomic      Atomic             Coordinates (Angstroms)
 Number     Number       Type             X           Y           Z
 ---------------------------------------------------------------------
      1         12           0       -5.579616    1.168010    0.193238
      2          6           0       -5.139902   -2.085607   -0.424283
      3          6           0       -3.411010    1.153029    2.712388
      4          6           0       -6.093823    4.600069    0.701425
      5          6           0       -8.036794    1.277263   -2.317219
      6          7           0       -4.353185   -0.265107    0.935463
      7          6           0       -4.344275   -1.626815    0.625569
      8          6           0       -3.278090   -2.383343    1.455095
      9          6           0       -2.881225   -1.376700    2.546678
     10          6           0       -3.593844   -0.039579    2.079802
     11          6           0       -3.270393   -1.900456    4.005369
     12          6           0       -2.011751   -2.800552    0.573279
     13          6           0       -0.971512   -3.572586    1.289225
     14          6           0        0.315143   -3.895144    0.553646
     15          8           0        0.411959   -3.374679   -0.597919
     16          8           0        1.123137   -4.715633    1.155329
     17          7           0       -4.957667    2.620743    1.490285
     18          6           0       -3.898020    2.384639    2.484908
     19          6           0       -3.531810    3.568935    3.119662
     20          6           0       -4.420393    4.530288    2.604691
     21          6           0       -5.285004    3.908755    1.528619
     22          6           0       -2.585084    3.835707    4.244710
     23          6           0       -4.587076    5.983542    3.087538
     24          8           0       -3.889650    6.468674    3.924687
     25          7           0       -6.805616    2.684620   -0.677643
     26          6           0       -6.943585    4.053385   -0.363744
     27          6           0       -7.762128    4.624763   -1.262316
     28          6           0       -8.327427    3.654013   -2.104016
     29          6           0       -7.756307    2.447430   -1.627009
     30          6           0       -8.096409    6.044703   -1.191624
     31          6           0       -9.347551    3.897145   -3.189229
     32          6           0       -8.639034    4.168964   -4.460786
     33          7           0       -6.434098   -0.083965   -1.147846
     34          6           0       -7.410937    0.129472   -2.117823
     35          6           0       -7.593689   -1.264012   -2.674034
     36          6           0       -6.773910   -2.128424   -2.049308
     37          6           0       -6.093683   -1.418072   -1.066065
     38          6           0       -8.688249   -1.646208   -3.651544
     39          6           0       -6.280423   -3.520990   -1.983974
     40          8           0       -6.670220   -4.600208   -2.569615
     41          6           0       -5.086334   -3.516643   -0.872030
     42          6           0       -5.442377   -4.577898    0.212148
     43          8           0       -5.924203   -4.348927    1.305603
     44          8           0       -5.145108   -5.854906   -0.133262
     45          6           0       -5.612116   -6.805599    0.802372
     46          6           0        2.354884   -5.056013    0.479050
     47          6           0        3.445257   -4.107860    0.837477
     48          6           0        3.976953   -3.211002    0.023582
     49          6           0        3.589129   -3.166228   -1.498925
     50          6           0        5.119450   -2.363447    0.562160
     51          6           0        6.457288   -2.753043   -0.020706
     52          6           0        7.637893   -1.834250    0.524703
     53          6           0        9.039386   -2.007466   -0.107283
     54          6           0        9.514323   -3.363583   -0.012665
     55          6           0        9.936111   -0.896828    0.420295
     56          6           0       11.354623   -0.980467   -0.209486
     57          6           0       12.315930    0.152430    0.265220
     58          6           0       13.586592    0.270614   -0.533062
     59          6           0       14.587928   -0.813299   -0.303684
     60          6           0       14.213885    1.656970   -0.160210
     61          6           0       15.420800    2.099772   -0.976429
     62          6           0       16.058955    3.497542   -0.610962
     63          6           0       17.356583    3.930052   -1.347829
     64          6           0       17.230081    4.112486   -2.827788
     65          6           0       17.821120    5.245392   -0.623797
     66          1           0       -2.788389    1.092718    3.657537
     67          1           0       -6.478522    5.665393    0.605940
     68          1           0       -8.747459    1.380350   -3.084775
     69          1           0       -3.966455   -3.229428    1.943541
     70          1           0       -1.818498   -1.133229    2.523126
     71          1           0       -2.654839   -2.833846    4.308449
     72          1           0       -3.064585   -1.257808    4.838085
     73          1           0       -4.184207   -2.132605    4.155639
     74          1           0       -2.412555   -3.460322   -0.210423
     75          1           0       -1.540390   -1.774109    0.028564
     76          1           0       -0.635559   -3.047118    2.179420
     77          1           0       -1.367018   -4.543781    1.638309
     78          1           0       -1.571837    3.271151    3.867625
     79          1           0       -2.471268    5.065092    4.470193
     80          1           0       -3.036325    3.344651    5.037564
     81          1           0       -5.450396    6.547630    2.530976
     82          1           0      -10.158418    3.152072   -3.259210
     83          1           0      -10.018491    4.756255   -3.057883
     84          1           0       -9.490813    4.342037   -5.335842
     85          1           0       -8.056296    5.130685   -4.262516
     86          1           0       -7.943534    3.276375   -4.663521
     87          1           0       -8.775674   -0.971924   -4.448061
     88          1           0       -8.733356   -2.724150   -4.169748
     89          1           0       -9.810114   -1.527873   -3.130930
     90          1           0       -4.165356   -3.669836   -1.413705
     91          1           0        2.433672   -6.173878    0.776135
     92          1           0        2.223529   -4.974797   -0.719069
     93          1           0        3.782929   -4.017660    1.805845
     94          1           0        2.514224   -3.304931   -1.666388
     95          1           0        3.991141   -2.203993   -2.024639
     96          1           0        4.192914   -3.756261   -2.189980
     97          1           0        4.829806   -1.129250    0.751548
     98          1           0        5.088508   -2.636422    1.542817
     99          1           0        6.462279   -3.834001    0.191598
    100          1           0        6.371338   -2.696490   -1.002293
    101          1           0        7.343901   -0.900484    0.450943
    102          1           0        7.727911   -2.110106    1.551020
    103          1           0        8.922223   -1.945735   -1.170054
    104          1           0        8.809309   -4.046124   -0.352763
    105          1           0       10.575485   -3.551354   -0.394712
    106          1           0        9.718260   -3.569282    1.112987
    107          1           0        9.500244   -0.038416    0.296254
    108          1           0       10.076588   -0.970006    1.429270
    109          1           0       11.900330   -1.871653    0.045920
    110          1           0       11.356043   -0.982053   -1.377229
    111          1           0       11.786168    1.024239    0.032122
    112          1           0       12.485288    0.297273    1.409459
    113          1           0       13.638777    0.238467   -1.658259
    114          1           0       14.943435   -0.698582    0.898165
    115          1           0       14.134315   -1.782820   -0.443110
    116          1           0       15.405612   -0.675958   -0.776969
    117          1           0       13.450847    2.505360   -0.513169
    118          1           0       14.300485    1.776513    0.898750
    119          1           0       16.216508    1.326561   -0.950033
    120          1           0       15.142911    1.982681   -1.952287
    121          1           0       15.183239    4.241152   -0.580747
    122          1           0       16.196579    3.312104    0.426739
    123          1           0       18.004355    3.070453   -1.060764
    124          1           0       16.434677    4.905795   -3.130541
    125          1           0       18.132075    4.419641   -3.335030
    126          1           0       16.787655    3.215236   -3.265331
    127          1           0       17.827432    5.127795    0.475525
    128          1           0       18.787639    5.709503   -1.107913
    129          1           0       17.078301    6.086582   -0.769744
    130          1           0       -5.465497   -7.791405    0.284469
    131          1           0       -6.758607   -6.766537    0.774044
    132          1           0       -5.252564   -6.869596    1.880765
    133          8           0       -7.657995    6.884542   -0.448338
    134          1           0       -8.942814    6.267541   -1.864952
 ---------------------------------------------------------------------

 SCF Done:  E(RCAM-B3LYP) =  -3043.49082655     A.U. after   16 cycles

 Excitation energies and oscillator strengths:

 Excited State   1:      Singlet-A      2.0954 eV  591.71 nm  f=0.1098  <S**2>=0.000
     243 -> 246        0.33853
     244 -> 245        0.61308
 This state for optimization and/or second-order correction.
 Total Energy, E(TD-HF/TD-DFT) =  -3043.41382362
 Copying the excited state density for this state as the 1-particle RhoCI density.

 The electronic state is 1-A.
 Alpha  occ. eigenvalues --  -46.80267 -19.24566 -19.23429 -19.17958 -19.17837
 Alpha  occ. eigenvalues --  -19.17707 -19.17570 -19.16419 -14.39219 -14.36209
 Alpha  occ. eigenvalues --  -14.36203 -14.35545 -10.36196 -10.35477 -10.33010
 Alpha  occ. eigenvalues --  -10.30928 -10.29954 -10.29904 -10.28284 -10.28120
 Alpha  occ. eigenvalues --  -10.27950 -10.26337 -10.26275 -10.26102 -10.26053
 Alpha  occ. eigenvalues --  -10.25897 -10.25641 -10.25504 -10.25254 -10.25020
 Alpha  occ. eigenvalues --  -10.24905 -10.24848 -10.24186 -10.24027 -10.23847
 Alpha  occ. eigenvalues --  -10.23732 -10.23728 -10.23699 -10.23375 -10.23351
 Alpha  occ. eigenvalues --  -10.23274 -10.23241 -10.23201 -10.23195 -10.22708
 Alpha  occ. eigenvalues --  -10.22614 -10.22491 -10.22432 -10.21663 -10.21628
 Alpha  occ. eigenvalues --  -10.21512 -10.21430 -10.21397 -10.21265 -10.21211
 Alpha  occ. eigenvalues --  -10.20926 -10.20904 -10.20878 -10.20689 -10.20528
 Alpha  occ. eigenvalues --  -10.20526 -10.20035 -10.19934 -10.19830 -10.19494
 Alpha  occ. eigenvalues --  -10.19134  -3.08938  -1.83880  -1.83406  -1.83350
 Alpha  occ. eigenvalues --   -1.15383  -1.14700  -1.08458  -1.08005  -1.05282
 Alpha  occ. eigenvalues --   -1.03635  -1.03118  -1.00119  -0.98840  -0.98684
 Alpha  occ. eigenvalues --   -0.97558  -0.89879  -0.87148  -0.86139  -0.85815
 Alpha  occ. eigenvalues --   -0.85398  -0.85034  -0.84836  -0.84290  -0.83248
 Alpha  occ. eigenvalues --   -0.83141  -0.82169  -0.81932  -0.80600  -0.79921
 Alpha  occ. eigenvalues --   -0.79136  -0.78717  -0.77770  -0.77348  -0.76821
 Alpha  occ. eigenvalues --   -0.75996  -0.74249  -0.73992  -0.73291  -0.72365
 Alpha  occ. eigenvalues --   -0.72235  -0.72112  -0.71003  -0.70741  -0.70410
 Alpha  occ. eigenvalues --   -0.69412  -0.69093  -0.67560  -0.66720  -0.65597
 Alpha  occ. eigenvalues --   -0.65099  -0.65014  -0.64011  -0.63797  -0.62722
 Alpha  occ. eigenvalues --   -0.61608  -0.60981  -0.60915  -0.59796  -0.59106
 Alpha  occ. eigenvalues --   -0.59071  -0.59003  -0.58248  -0.57964  -0.56760
 Alpha  occ. eigenvalues --   -0.56641  -0.55866  -0.55572  -0.55103  -0.54919
 Alpha  occ. eigenvalues --   -0.54411  -0.53844  -0.53197  -0.52549  -0.52197
 Alpha  occ. eigenvalues --   -0.52087  -0.51796  -0.51712  -0.51303  -0.51022
 Alpha  occ. eigenvalues --   -0.50881  -0.50301  -0.49604  -0.49318  -0.49047
 Alpha  occ. eigenvalues --   -0.48977  -0.48905  -0.48574  -0.48398  -0.48090
 Alpha  occ. eigenvalues --   -0.47986  -0.47544  -0.47409  -0.47220  -0.46884
 Alpha  occ. eigenvalues --   -0.46716  -0.46538  -0.46255  -0.46095  -0.45618
 Alpha  occ. eigenvalues --   -0.45410  -0.45320  -0.45191  -0.44901  -0.44341
 Alpha  occ. eigenvalues --   -0.44264  -0.44154  -0.43843  -0.43768  -0.43477
 Alpha  occ. eigenvalues --   -0.43432  -0.43236  -0.43049  -0.42715  -0.42588
 Alpha  occ. eigenvalues --   -0.42426  -0.42286  -0.42179  -0.41934  -0.41891
 Alpha  occ. eigenvalues --   -0.41834  -0.41452  -0.41276  -0.40990  -0.40959
 Alpha  occ. eigenvalues --   -0.40699  -0.40441  -0.40186  -0.40015  -0.39804
 Alpha  occ. eigenvalues --   -0.39692  -0.39656  -0.39336  -0.39210  -0.39134
 Alpha  occ. eigenvalues --   -0.39074  -0.38955  -0.38523  -0.38212  -0.38089
 Alpha  occ. eigenvalues --   -0.38029  -0.37888  -0.37623  -0.37306  -0.37007
 Alpha  occ. eigenvalues --   -0.36929  -0.36843  -0.36635  -0.36590  -0.36364
 Alpha  occ. eigenvalues --   -0.36105  -0.35838  -0.35269  -0.35129  -0.34546
 Alpha  occ. eigenvalues --   -0.34252  -0.33980  -0.33866  -0.33703  -0.33626
 Alpha  occ. eigenvalues --   -0.33211  -0.33029  -0.32691  -0.32457  -0.32327
 Alpha  occ. eigenvalues --   -0.31639  -0.31326  -0.30790  -0.30114  -0.29712
 Alpha  occ. eigenvalues --   -0.28557  -0.28507  -0.28170  -0.27980  -0.27584
 Alpha  occ. eigenvalues --   -0.27295  -0.26943  -0.23191  -0.21798
 Alpha virt. eigenvalues --   -0.08052  -0.07286  -0.02389   0.00011   0.00523
 Alpha virt. eigenvalues --    0.02339   0.02627   0.03575   0.03773   0.04750
 Alpha virt. eigenvalues --    0.05136   0.06209   0.07692   0.08677   0.09545

 Mulliken charges:
               1
     1  Mg   0.807733
     2  C    0.045412
     3  C   -0.219383
     4  C   -0.157898
     5  C   -0.153576
     6  N   -0.647413
     7  C    0.302689
     8  C   -0.165214
     9  C   -0.131098
    10  C    0.343386
    11  C   -0.325379
    12  C   -0.158214
    13  C   -0.255581
    14  C    0.600213
    15  O   -0.498712
    16  O   -0.422050
    17  N   -0.716069
    18  C    0.307275
    19  C    0.074891
    20  C   -0.098487
    21  C    0.364046
    22  C   -0.374110
    23  C    0.262126
    24  O   -0.400237
    25  N   -0.668806
    26  C    0.243270
    27  C   -0.047972
    28  C    0.033731
    29  C    0.298175
    30  C    0.262756
    31  C   -0.256958
    32  C   -0.278625
    33  N   -0.764645
    34  C    0.346178
    35  C   -0.061140
    36  C    0.130839
    37  C    0.311657
    38  C   -0.380532
    39  C    0.338958
    40  O   -0.480073
    41  C   -0.315713
    42  C    0.626882
    43  O   -0.467372
    44  O   -0.425059
    45  C   -0.092940
    46  C   -0.026313
    47  C   -0.093683
    48  C    0.131252
    49  C   -0.404059
    50  C   -0.225901
    51  C   -0.189059
    52  C   -0.165689
    53  C   -0.062926
    54  C   -0.300737
    55  C   -0.155843
    56  C   -0.200136
    57  C   -0.173642
    58  C   -0.061308
    59  C   -0.271696
    60  C   -0.171057
    61  C   -0.201939
    62  C   -0.176423
    63  C   -0.037368
    64  C   -0.307424
    65  C   -0.308279
    66  H    0.084977
    67  H    0.146323
    68  H    0.090808
    69  H    0.134601
    70  H    0.117869
    71  H    0.097657
    72  H    0.110245
    73  H    0.139064
    74  H    0.111452
    75  H    0.111259
    76  H    0.129041
    77  H    0.129581
    78  H    0.093108
    79  H    0.162600
    80  H    0.141565
    81  H    0.082613
    82  H    0.110467
    83  H    0.116528
    84  H    0.082715
    85  H    0.113337
    86  H    0.106779
    87  H    0.130081
    88  H    0.137772
    89  H    0.105226
    90  H    0.172726
    91  H    0.115074
    92  H    0.126350
    93  H    0.081695
    94  H    0.161975
    95  H    0.092520
    96  H    0.119613
    97  H    0.062938
    98  H    0.106696
    99  H    0.098713
   100  H    0.109041
   101  H    0.099601
   102  H    0.093808
   103  H    0.083699
   104  H    0.109311
   105  H    0.095310
   106  H    0.069626
   107  H    0.098722
   108  H    0.098316
   109  H    0.102865
   110  H    0.079412
   111  H    0.101868
   112  H    0.081167
   113  H    0.080159
   114  H    0.043930
   115  H    0.099603
   116  H    0.112658
   117  H    0.065459
   118  H    0.088993
   119  H    0.075282
   120  H    0.098374
   121  H    0.074812
   122  H    0.100626
   123  H    0.091259
   124  H    0.089446
   125  H    0.109293
   126  H    0.104939
   127  H    0.102897
   128  H    0.082900
   129  H    0.098161
   130  H    0.119269
   131  H    0.123861
   132  H    0.128618
   133  O   -0.424664
   134  H    0.052680
 Sum of Mulliken charges =  -0.00000

 Dipole moment (field-independent basis, Debye):
    X=              2.3180    Y=             -5.1448    Z=             -0.1415  Tot=              5.6446
 Quadrupole moment (field-independent basis, Debye-Ang):
   XX=           -381.8229   YY=           -436.7795   ZZ=           -392.0793
   XY=              3.7640   XZ=             13.2150   YZ=            -33.4759

 Normal termination of Gaussian 16 at Wed Oct  9 05:30:57 2019.
