 Gaussian 16, Revision A.03,
 Gaussian 16:  ES64L-G16RevA.03 25-Dec-2016

 ----------------------------------------------------------------------
 # td=(NStates=1) iop(3/107=0140000000,3/108=0140000000) iop(3/107=0140
 000000,3/108=0140000000) CAM-B3LYP/6-31G(d,p)
 ----------------------------------------------------------------------

 --
 TD
 --
 Symbolic Z-matrix:
 Charge =  0 Multiplicity = 1

                         Standard orientation:
 ---------------------------------------------------------------------
 Center     Atomic      Atomic             Coordinates (Angstroms)
 Number     Number       Type             X           Y           Z
 ---------------------------------------------------------------------
      1         12           0       -5.686022    1.250800    0.293702
      2          6           0       -4.996366   -2.172461   -0.418766
      3          6           0       -3.604754    1.187191    2.844744
      4          6           0       -6.168319    4.575234    0.602130
      5          6           0       -8.177860    1.084482   -2.321982
      6          7           0       -4.445647   -0.315964    1.034285
      7          6           0       -4.313156   -1.574494    0.696766
      8          6           0       -3.290288   -2.295536    1.553028
      9          6           0       -2.870297   -1.244198    2.577555
     10          6           0       -3.685472   -0.022262    2.184312
     11          6           0       -3.351865   -1.713514    3.989253
     12          6           0       -1.927901   -2.677346    0.772912
     13          6           0       -1.057422   -3.710913    1.457511
     14          6           0        0.238653   -3.984686    0.653925
     15          8           0        0.434558   -3.346361   -0.404846
     16          8           0        1.036842   -4.822747    1.243401
     17          7           0       -5.006879    2.613264    1.513364
     18          6           0       -4.142520    2.404425    2.519950
     19          6           0       -3.864632    3.722429    3.239467
     20          6           0       -4.724076    4.603607    2.596457
     21          6           0       -5.289423    3.964001    1.371095
     22          6           0       -2.862713    3.867176    4.283519
     23          6           0       -4.801030    6.089535    2.952847
     24          8           0       -4.132509    6.609513    3.732146
     25          7           0       -6.906830    2.537084   -0.749426
     26          6           0       -6.986787    3.848772   -0.417369
     27          6           0       -8.008303    4.491668   -1.141853
     28          6           0       -8.478539    3.633373   -2.092860
     29          6           0       -7.868525    2.348708   -1.778545
     30          6           0       -8.262544    5.968662   -1.309399
     31          6           0       -9.359902    3.873835   -3.233846
     32          6           0       -8.649328    4.223621   -4.532505
     33          7           0       -6.336503   -0.202132   -1.065482
     34          6           0       -7.380925   -0.033760   -2.087575
     35          6           0       -7.523440   -1.346422   -2.679875
     36          6           0       -6.641097   -2.205608   -2.092514
     37          6           0       -6.003654   -1.459920   -1.159675
     38          6           0       -8.392937   -1.766108   -3.807555
     39          6           0       -6.304660   -3.681005   -1.966592
     40          8           0       -6.509617   -4.646357   -2.538845
     41          6           0       -5.028076   -3.604958   -0.842326
     42          6           0       -5.337247   -4.618523    0.169914
     43          8           0       -5.766364   -4.495053    1.231010
     44          8           0       -4.865715   -5.956230   -0.274315
     45          6           0       -5.137434   -7.006791    0.556276
     46          6           0        2.283989   -5.026432    0.469445
     47          6           0        3.496851   -4.091355    0.853850
     48          6           0        4.116247   -3.232892    0.109818
     49          6           0        3.778449   -2.930082   -1.248445
     50          6           0        5.271200   -2.454173    0.786146
     51          6           0        6.593572   -2.634678   -0.022878
     52          6           0        7.643145   -1.707332    0.466312
     53          6           0        9.021535   -1.894723   -0.171989
     54          6           0        9.429585   -3.291036    0.007167
     55          6           0       10.063342   -0.881755    0.427166
     56          6           0       11.350131   -0.873885   -0.329355
     57          6           0       12.291329    0.247367    0.153366
     58          6           0       13.619053    0.468052   -0.637479
     59          6           0       14.547826   -0.773729   -0.361925
     60          6           0       14.342439    1.776465   -0.065045
     61          6           0       15.577619    2.180075   -0.831363
     62          6           0       16.103329    3.487416   -0.494723
     63          6           0       17.352424    3.907440   -1.292434
     64          6           0       17.129587    3.950880   -2.831828
     65          6           0       17.849915    5.334764   -0.804955
     66          1           0       -2.962087    1.063830    3.807101
     67          1           0       -6.487119    5.563971    0.694293
     68          1           0       -8.808121    1.097740   -3.034320
     69          1           0       -3.811068   -3.132502    2.172577
     70          1           0       -1.693067   -1.244175    2.475259
     71          1           0       -3.064804   -2.757884    3.865451
     72          1           0       -2.846770   -1.183651    4.745439
     73          1           0       -4.579348   -1.491772    4.082127
     74          1           0       -2.166142   -3.152542   -0.106136
     75          1           0       -1.448137   -1.670324    0.756322
     76          1           0       -0.706082   -3.261608    2.386037
     77          1           0       -1.452226   -4.783788    1.630517
     78          1           0       -1.991714    3.418540    3.982493
     79          1           0       -2.543896    4.928230    4.723176
     80          1           0       -3.364543    3.154079    5.123191
     81          1           0       -5.655656    6.740032    2.471341
     82          1           0      -10.013627    2.845507   -3.511975
     83          1           0       -9.858373    4.748187   -2.998241
     84          1           0       -9.372547    4.395010   -5.506919
     85          1           0       -8.092920    5.182298   -4.256462
     86          1           0       -7.883800    3.452045   -4.914172
     87          1           0       -8.095398   -1.080568   -4.606530
     88          1           0       -8.384771   -2.827935   -3.956977
     89          1           0       -9.481939   -1.375555   -3.642120
     90          1           0       -4.259254   -4.001020   -1.430391
     91          1           0        2.691537   -6.128414    0.434506
     92          1           0        2.051883   -4.902198   -0.792205
     93          1           0        3.678368   -4.196897    2.035159
     94          1           0        2.810132   -3.086639   -1.662489
     95          1           0        3.834609   -1.753105   -1.609371
     96          1           0        4.524763   -3.602342   -1.928445
     97          1           0        4.864746   -1.258663    0.842397
     98          1           0        5.281187   -2.786140    1.735250
     99          1           0        6.849808   -3.599832    0.282228
    100          1           0        6.257790   -2.325893   -1.094519
    101          1           0        7.277555   -0.692165    0.376613
    102          1           0        7.689833   -1.642919    1.592278
    103          1           0        9.058384   -1.736494   -1.175798
    104          1           0        8.802795   -3.982311   -0.508341
    105          1           0       10.362854   -3.567387   -0.564636
    106          1           0        9.608890   -3.630212    1.093113
    107          1           0        9.451195   -0.028786    0.229786
    108          1           0       10.233082   -0.868459    1.553471
    109          1           0       11.837416   -1.917029   -0.306967
    110          1           0       11.206922   -0.587935   -1.509867
    111          1           0       11.572105    1.162531   -0.017900
    112          1           0       12.421436    0.157400    1.178251
    113          1           0       13.331477    0.569502   -1.585874
    114          1           0       14.723695   -1.072752    0.730977
    115          1           0       14.204245   -1.647682   -0.820607
    116          1           0       15.667350   -0.776865   -0.723085
    117          1           0       13.562525    2.519155   -0.230664
    118          1           0       14.347757    1.649777    1.057112
    119          1           0       16.467160    1.569034   -0.376353
    120          1           0       15.500656    2.040727   -2.143924
    121          1           0       15.243983    4.305582   -0.570668
    122          1           0       16.286895    3.647906    0.507015
    123          1           0       18.156798    3.322499   -1.068948
    124          1           0       16.245884    4.393379   -2.982785
    125          1           0       18.026074    4.513186   -3.363244
    126          1           0       17.212146    2.746482   -3.061900
    127          1           0       18.034104    5.341915    0.339572
    128          1           0       18.810853    5.497646   -1.116766
    129          1           0       17.113924    6.039427   -1.022856
    130          1           0       -4.795813   -7.919031   -0.157161
    131          1           0       -6.112896   -6.926278    0.777487
    132          1           0       -4.618942   -7.015969    1.472889
    133          8           0       -7.756234    6.874240   -0.624030
    134          1           0       -8.828547    6.407093   -2.279266
 ---------------------------------------------------------------------

 SCF Done:  E(RCAM-B3LYP) =  -3043.39479071     A.U. after   15 cycles

 Excitation energies and oscillator strengths:

 Excited State   1:      Singlet-A      2.1796 eV  568.83 nm  f=0.1051  <S**2>=0.000
     243 -> 245        0.17456
     243 -> 246        0.29215
     244 -> 245        0.58218
     244 -> 246       -0.19342
 This state for optimization and/or second-order correction.
 Total Energy, E(TD-HF/TD-DFT) =  -3043.31469114
 Copying the excited state density for this state as the 1-particle RhoCI density.

 The electronic state is 1-A.
 Alpha  occ. eigenvalues --  -46.81057 -19.25001 -19.19373 -19.18502 -19.17883
 Alpha  occ. eigenvalues --  -19.17788 -19.17436 -19.16341 -14.38698 -14.37428
 Alpha  occ. eigenvalues --  -14.37102 -14.35864 -10.35150 -10.33860 -10.32804
 Alpha  occ. eigenvalues --  -10.31830 -10.30831 -10.30524 -10.28325 -10.28005
 Alpha  occ. eigenvalues --  -10.27317 -10.26508 -10.26429 -10.26036 -10.25688
 Alpha  occ. eigenvalues --  -10.25506 -10.24653 -10.24563 -10.24546 -10.24544
 Alpha  occ. eigenvalues --  -10.24284 -10.24155 -10.23996 -10.23823 -10.23811
 Alpha  occ. eigenvalues --  -10.23768 -10.23744 -10.23637 -10.23636 -10.23463
 Alpha  occ. eigenvalues --  -10.23390 -10.23233 -10.23110 -10.22959 -10.22872
 Alpha  occ. eigenvalues --  -10.22802 -10.22753 -10.22714 -10.22708 -10.22678
 Alpha  occ. eigenvalues --  -10.22361 -10.22057 -10.21472 -10.21407 -10.21378
 Alpha  occ. eigenvalues --  -10.21159 -10.20978 -10.20663 -10.20594 -10.20572
 Alpha  occ. eigenvalues --  -10.20549 -10.20483 -10.20478 -10.20049 -10.19769
 Alpha  occ. eigenvalues --  -10.19064  -3.09739  -1.84674  -1.84208  -1.84157
 Alpha  occ. eigenvalues --   -1.15107  -1.13431  -1.12826  -1.11124  -1.05658
 Alpha  occ. eigenvalues --   -1.04634  -1.03351  -1.00891  -1.00022  -0.99536
 Alpha  occ. eigenvalues --   -0.98659  -0.87394  -0.86960  -0.86055  -0.85858
 Alpha  occ. eigenvalues --   -0.85555  -0.85083  -0.84863  -0.84219  -0.83798
 Alpha  occ. eigenvalues --   -0.83567  -0.82917  -0.81854  -0.80469  -0.80033
 Alpha  occ. eigenvalues --   -0.78797  -0.78255  -0.77328  -0.76676  -0.76076
 Alpha  occ. eigenvalues --   -0.75453  -0.74997  -0.73498  -0.72478  -0.71682
 Alpha  occ. eigenvalues --   -0.71136  -0.70606  -0.70323  -0.70043  -0.69348
 Alpha  occ. eigenvalues --   -0.69077  -0.68611  -0.66352  -0.65872  -0.65781
 Alpha  occ. eigenvalues --   -0.65048  -0.64339  -0.63298  -0.62472  -0.62080
 Alpha  occ. eigenvalues --   -0.61312  -0.61078  -0.60003  -0.59366  -0.59122
 Alpha  occ. eigenvalues --   -0.58689  -0.58483  -0.58051  -0.57393  -0.57071
 Alpha  occ. eigenvalues --   -0.56710  -0.56169  -0.55441  -0.55135  -0.54546
 Alpha  occ. eigenvalues --   -0.54275  -0.53560  -0.53108  -0.52419  -0.52216
 Alpha  occ. eigenvalues --   -0.52136  -0.51496  -0.51310  -0.51206  -0.50489
 Alpha  occ. eigenvalues --   -0.50378  -0.50072  -0.49815  -0.49647  -0.49298
 Alpha  occ. eigenvalues --   -0.49073  -0.48684  -0.48483  -0.48298  -0.48022
 Alpha  occ. eigenvalues --   -0.47970  -0.47600  -0.47491  -0.47199  -0.47137
 Alpha  occ. eigenvalues --   -0.46883  -0.46705  -0.46332  -0.46126  -0.46010
 Alpha  occ. eigenvalues --   -0.45785  -0.45620  -0.45441  -0.45194  -0.44849
 Alpha  occ. eigenvalues --   -0.44574  -0.44357  -0.44323  -0.44108  -0.43926
 Alpha  occ. eigenvalues --   -0.43885  -0.43775  -0.43740  -0.43550  -0.43267
 Alpha  occ. eigenvalues --   -0.43175  -0.42874  -0.42652  -0.42516  -0.41998
 Alpha  occ. eigenvalues --   -0.41812  -0.41756  -0.41645  -0.41489  -0.41230
 Alpha  occ. eigenvalues --   -0.41065  -0.40950  -0.40688  -0.40248  -0.40171
 Alpha  occ. eigenvalues --   -0.39978  -0.39667  -0.39083  -0.39027  -0.38711
 Alpha  occ. eigenvalues --   -0.38268  -0.38128  -0.37996  -0.37864  -0.37744
 Alpha  occ. eigenvalues --   -0.37558  -0.37439  -0.37421  -0.37070  -0.37004
 Alpha  occ. eigenvalues --   -0.36879  -0.36492  -0.36192  -0.36009  -0.35812
 Alpha  occ. eigenvalues --   -0.35731  -0.35168  -0.34854  -0.34848  -0.34818
 Alpha  occ. eigenvalues --   -0.34383  -0.34299  -0.33977  -0.33517  -0.33054
 Alpha  occ. eigenvalues --   -0.32516  -0.32388  -0.31857  -0.31700  -0.31562
 Alpha  occ. eigenvalues --   -0.30765  -0.30536  -0.30070  -0.29380  -0.29066
 Alpha  occ. eigenvalues --   -0.28991  -0.28334  -0.28003  -0.27890  -0.27868
 Alpha  occ. eigenvalues --   -0.27563  -0.27508  -0.23209  -0.21500
 Alpha virt. eigenvalues --   -0.07552  -0.06614  -0.01400  -0.00460   0.01248
 Alpha virt. eigenvalues --    0.03314   0.03625   0.03863   0.04227   0.04384
 Alpha virt. eigenvalues --    0.04898   0.05638   0.07374   0.08376   0.09025

 Mulliken charges:
               1
     1  Mg   0.824541
     2  C    0.059861
     3  C   -0.214125
     4  C   -0.137080
     5  C   -0.094225
     6  N   -0.622213
     7  C    0.328257
     8  C   -0.178244
     9  C   -0.160009
    10  C    0.344369
    11  C   -0.300326
    12  C   -0.156255
    13  C   -0.274642
    14  C    0.605184
    15  O   -0.490161
    16  O   -0.424924
    17  N   -0.739829
    18  C    0.362056
    19  C    0.066374
    20  C   -0.099339
    21  C    0.332223
    22  C   -0.373433
    23  C    0.256183
    24  O   -0.359464
    25  N   -0.691063
    26  C    0.294816
    27  C   -0.048160
    28  C    0.063729
    29  C    0.236531
    30  C    0.233911
    31  C   -0.240622
    32  C   -0.289825
    33  N   -0.712047
    34  C    0.251928
    35  C   -0.013522
    36  C    0.020553
    37  C    0.329462
    38  C   -0.383135
    39  C    0.366756
    40  O   -0.363251
    41  C   -0.348875
    42  C    0.599003
    43  O   -0.419594
    44  O   -0.504014
    45  C   -0.053639
    46  C   -0.022645
    47  C   -0.154699
    48  C    0.200830
    49  C   -0.382157
    50  C   -0.218417
    51  C   -0.170523
    52  C   -0.178123
    53  C   -0.039625
    54  C   -0.315298
    55  C   -0.166037
    56  C   -0.173886
    57  C   -0.175263
    58  C   -0.041990
    59  C   -0.320725
    60  C   -0.172408
    61  C   -0.139920
    62  C   -0.152559
    63  C   -0.065329
    64  C   -0.289636
    65  C   -0.319264
    66  H    0.084147
    67  H    0.129472
    68  H    0.056557
    69  H    0.126568
    70  H    0.099245
    71  H    0.118976
    72  H    0.118275
    73  H    0.103934
    74  H    0.125872
    75  H    0.124323
    76  H    0.125220
    77  H    0.131615
    78  H    0.141874
    79  H    0.153470
    80  H    0.108603
    81  H    0.057171
    82  H    0.084261
    83  H    0.120167
    84  H    0.092711
    85  H    0.102826
    86  H    0.107287
    87  H    0.137677
    88  H    0.146528
    89  H    0.108418
    90  H    0.162753
    91  H    0.119886
    92  H    0.112053
    93  H    0.074805
    94  H    0.154880
    95  H    0.091009
    96  H    0.099798
    97  H    0.060605
    98  H    0.103523
    99  H    0.119051
   100  H    0.101456
   101  H    0.086035
   102  H    0.081633
   103  H    0.092972
   104  H    0.103941
   105  H    0.085897
   106  H    0.088605
   107  H    0.095903
   108  H    0.082559
   109  H    0.091027
   110  H    0.058760
   111  H    0.068847
   112  H    0.093940
   113  H    0.090700
   114  H    0.089889
   115  H    0.109665
   116  H    0.083863
   117  H    0.088314
   118  H    0.091656
   119  H    0.082277
   120  H    0.059925
   121  H    0.048912
   122  H    0.102447
   123  H    0.094370
   124  H    0.121006
   125  H    0.087129
   126  H    0.082971
   127  H    0.073305
   128  H    0.106439
   129  H    0.110255
   130  H    0.098068
   131  H    0.117174
   132  H    0.101401
   133  O   -0.427173
   134  H    0.066220
 Sum of Mulliken charges =  -0.00000

 Dipole moment (field-independent basis, Debye):
    X=              2.3339    Y=             -2.9659    Z=              0.1564  Tot=              3.7773
 Quadrupole moment (field-independent basis, Debye-Ang):
   XX=           -384.1371   YY=           -446.2660   ZZ=           -387.7637
   XY=             -1.5523   XZ=             22.9437   YZ=            -21.8109

 Normal termination of Gaussian 16 at Sat Oct  5 14:18:06 2019.
