 Gaussian 16, Revision A.03,
 Gaussian 16:  ES64L-G16RevA.03 25-Dec-2016

 ----------------------------------------------------------------------
 # td=(NStates=1) iop(3/107=0140000000,3/108=0140000000) iop(3/107=0140
 000000,3/108=0140000000) CAM-B3LYP/6-31G(d,p)
 ----------------------------------------------------------------------

 --
 TD
 --
 Symbolic Z-matrix:
 Charge =  0 Multiplicity = 1

                         Standard orientation:
 ---------------------------------------------------------------------
 Center     Atomic      Atomic             Coordinates (Angstroms)
 Number     Number       Type             X           Y           Z
 ---------------------------------------------------------------------
      1         12           0       -5.663112    1.205304    0.219952
      2          6           0       -4.975339   -2.123195   -0.338569
      3          6           0       -3.378127    1.244051    2.795719
      4          6           0       -6.208129    4.559105    0.611075
      5          6           0       -8.198440    1.117459   -2.145295
      6          7           0       -4.396379   -0.326163    1.096021
      7          6           0       -4.224528   -1.603578    0.668361
      8          6           0       -3.180351   -2.296794    1.507724
      9          6           0       -2.779237   -1.269908    2.588772
     10          6           0       -3.570475   -0.067424    2.152009
     11          6           0       -3.299289   -1.926239    3.874447
     12          6           0       -1.940184   -2.783805    0.635028
     13          6           0       -0.925326   -3.631502    1.518465
     14          6           0        0.287641   -3.892726    0.661889
     15          8           0        0.524440   -3.499156   -0.417819
     16          8           0        1.050837   -4.782248    1.267740
     17          7           0       -4.977490    2.506853    1.483139
     18          6           0       -3.998982    2.411938    2.433423
     19          6           0       -3.805544    3.667695    3.183012
     20          6           0       -4.554680    4.635593    2.533572
     21          6           0       -5.219793    4.000733    1.425700
     22          6           0       -2.951973    3.862533    4.384343
     23          6           0       -4.565327    6.083141    2.846223
     24          8           0       -3.839771    6.505277    3.684737
     25          7           0       -6.991281    2.569393   -0.692479
     26          6           0       -6.961979    3.957118   -0.410492
     27          6           0       -7.900922    4.608857   -1.208732
     28          6           0       -8.583860    3.607037   -2.018521
     29          6           0       -8.042665    2.333223   -1.558103
     30          6           0       -8.262883    6.036900   -1.287804
     31          6           0       -9.681954    3.780646   -3.031115
     32          6           0       -8.934257    4.131731   -4.385669
     33          7           0       -6.446226   -0.247396   -0.942174
     34          6           0       -7.418897   -0.112630   -2.069446
     35          6           0       -7.567089   -1.414204   -2.653447
     36          6           0       -6.709262   -2.226889   -1.956826
     37          6           0       -5.994916   -1.453022   -1.039204
     38          6           0       -8.413560   -1.624421   -3.901986
     39          6           0       -6.083159   -3.545132   -2.143002
     40          8           0       -6.340795   -4.540910   -2.821425
     41          6           0       -4.923209   -3.564284   -0.976635
     42          6           0       -5.271100   -4.632979    0.040448
     43          8           0       -5.796843   -4.380744    1.136924
     44          8           0       -4.957397   -5.840599   -0.322580
     45          6           0       -5.241435   -6.780678    0.597372
     46          6           0        2.426196   -5.127477    0.693099
     47          6           0        3.520639   -4.141333    0.942320
     48          6           0        4.021972   -3.296624    0.113137
     49          6           0        3.738871   -3.092871   -1.312241
     50          6           0        5.154564   -2.470596    0.666107
     51          6           0        6.530953   -2.746976    0.087170
     52          6           0        7.688422   -1.900246    0.597902
     53          6           0        9.052116   -2.004321   -0.033669
     54          6           0        9.563125   -3.482928    0.128838
     55          6           0       10.007426   -0.893412    0.359419
     56          6           0       11.332164   -0.871009   -0.372905
     57          6           0       12.232580    0.378328    0.072036
     58          6           0       13.541857    0.549681   -0.686720
     59          6           0       14.480732   -0.676667   -0.471092
     60          6           0       14.311978    1.785824   -0.147705
     61          6           0       15.467735    2.250365   -0.942549
     62          6           0       15.947066    3.618329   -0.654457
     63          6           0       17.147863    3.925490   -1.290701
     64          6           0       17.046337    4.139164   -2.818500
     65          6           0       17.715128    5.270562   -0.664162
     66          1           0       -2.849800    1.041639    3.690023
     67          1           0       -6.222307    5.629859    0.463810
     68          1           0       -9.079644    1.199564   -2.964009
     69          1           0       -3.648283   -3.230249    1.773480
     70          1           0       -1.669390   -1.180693    2.653902
     71          1           0       -2.756283   -2.745861    4.059748
     72          1           0       -3.162293   -1.190387    4.672785
     73          1           0       -4.484061   -2.135059    3.849032
     74          1           0       -2.174752   -3.194361   -0.316127
     75          1           0       -1.238163   -1.721509    0.550664
     76          1           0       -0.241608   -3.204016    2.246339
     77          1           0       -1.292196   -4.647675    1.703445
     78          1           0       -1.740189    3.998589    3.991360
     79          1           0       -3.334511    4.704207    5.050250
     80          1           0       -2.981644    2.890259    4.934932
     81          1           0       -4.997374    6.962082    2.218494
     82          1           0      -10.464586    2.833927   -2.808383
     83          1           0      -10.167336    4.596641   -2.689810
     84          1           0       -9.611208    4.052776   -5.110889
     85          1           0       -8.309166    4.984316   -4.285855
     86          1           0       -8.332207    3.315598   -4.768299
     87          1           0       -8.158220   -0.727723   -4.842990
     88          1           0       -8.508748   -2.646766   -4.124394
     89          1           0       -9.421014   -1.568839   -3.690519
     90          1           0       -3.964338   -3.895555   -1.511195
     91          1           0        2.616167   -6.111802    1.168135
     92          1           0        2.231150   -5.268753   -0.512033
     93          1           0        3.733400   -4.199498    1.905188
     94          1           0        2.604363   -3.554541   -1.610481
     95          1           0        3.788745   -1.954637   -1.710826
     96          1           0        4.130791   -3.698290   -1.963515
     97          1           0        5.205539   -1.389831    0.289324
     98          1           0        5.049971   -2.550464    1.823801
     99          1           0        6.652222   -3.799318    0.276802
    100          1           0        6.682140   -2.665093   -1.000876
    101          1           0        7.511693   -0.927223    0.471185
    102          1           0        7.917324   -2.295390    1.689831
    103          1           0        8.882977   -1.758831   -1.101321
    104          1           0        8.887719   -4.247907    0.037879
    105          1           0       10.439205   -3.704763   -0.613059
    106          1           0       10.135710   -3.315782    1.126733
    107          1           0        9.467572    0.003986    0.247228
    108          1           0       10.101356   -0.880881    1.586978
    109          1           0       11.954673   -1.820950   -0.278407
    110          1           0       10.942783   -0.602251   -1.392422
    111          1           0       11.550725    1.315408   -0.077526
    112          1           0       12.379459    0.156583    1.123537
    113          1           0       13.337168    0.715839   -1.771069
    114          1           0       14.937790   -0.668598    0.708665
    115          1           0       14.054103   -1.510560   -0.711066
    116          1           0       15.361774   -0.351862   -1.127654
    117          1           0       13.544688    2.638167   -0.285243
    118          1           0       14.397868    1.608069    0.785885
    119          1           0       16.397100    1.570648   -0.893183
    120          1           0       15.052738    2.152855   -1.947681
    121          1           0       15.163730    4.569797   -1.016611
    122          1           0       16.272248    3.736547    0.501363
    123          1           0       18.017797    3.218163   -1.067627
    124          1           0       16.314947    4.817917   -3.260861
    125          1           0       17.965021    4.502893   -3.324534
    126          1           0       16.706616    3.172539   -3.318306
    127          1           0       17.984669    5.068388    0.503502
    128          1           0       18.587977    5.767564   -1.250437
    129          1           0       16.958751    6.161667   -0.584072
    130          1           0       -4.725258   -7.850884    0.310581
    131          1           0       -6.274076   -6.776639    0.758303
    132          1           0       -4.923413   -6.467314    1.687846
    133          8           0       -7.803878    6.895156   -0.506355
    134          1           0       -8.935326    6.427798   -1.938894
 ---------------------------------------------------------------------

 SCF Done:  E(RCAM-B3LYP) =  -3043.36747444     A.U. after   15 cycles

 Excitation energies and oscillator strengths:

 Excited State   1:      Singlet-A      2.1221 eV  584.24 nm  f=0.1277  <S**2>=0.000
     243 -> 246       -0.31778
     244 -> 245        0.62084
 This state for optimization and/or second-order correction.
 Total Energy, E(TD-HF/TD-DFT) =  -3043.28948701
 Copying the excited state density for this state as the 1-particle RhoCI density.

 The electronic state is 1-A.
 Alpha  occ. eigenvalues --  -46.80364 -19.23900 -19.20962 -19.17248 -19.17036
 Alpha  occ. eigenvalues --  -19.16435 -19.16318 -19.15865 -14.38554 -14.36860
 Alpha  occ. eigenvalues --  -14.36102 -14.35999 -10.34880 -10.33242 -10.31710
 Alpha  occ. eigenvalues --  -10.30734 -10.29540 -10.28922 -10.28310 -10.27795
 Alpha  occ. eigenvalues --  -10.27076 -10.26997 -10.26597 -10.26440 -10.26079
 Alpha  occ. eigenvalues --  -10.25961 -10.25313 -10.25305 -10.25175 -10.25133
 Alpha  occ. eigenvalues --  -10.24937 -10.24861 -10.24848 -10.24814 -10.24379
 Alpha  occ. eigenvalues --  -10.23977 -10.23723 -10.23630 -10.23596 -10.23342
 Alpha  occ. eigenvalues --  -10.23223 -10.23196 -10.22983 -10.22740 -10.22681
 Alpha  occ. eigenvalues --  -10.22591 -10.22370 -10.22338 -10.22144 -10.22106
 Alpha  occ. eigenvalues --  -10.22084 -10.21942 -10.21839 -10.21770 -10.21733
 Alpha  occ. eigenvalues --  -10.21692 -10.21624 -10.21455 -10.21161 -10.21007
 Alpha  occ. eigenvalues --  -10.20960 -10.20942 -10.20552 -10.20494 -10.20477
 Alpha  occ. eigenvalues --  -10.19188  -3.09053  -1.83982  -1.83522  -1.83476
 Alpha  occ. eigenvalues --   -1.17542  -1.13572  -1.08979  -1.05907  -1.04875
 Alpha  occ. eigenvalues --   -1.04353  -1.04122  -1.00380  -0.99154  -0.97807
 Alpha  occ. eigenvalues --   -0.96917  -0.87590  -0.86961  -0.86795  -0.85720
 Alpha  occ. eigenvalues --   -0.85330  -0.84876  -0.84104  -0.84023  -0.83595
 Alpha  occ. eigenvalues --   -0.83371  -0.82782  -0.81854  -0.80766  -0.79917
 Alpha  occ. eigenvalues --   -0.78911  -0.78349  -0.77674  -0.77213  -0.76644
 Alpha  occ. eigenvalues --   -0.75319  -0.74797  -0.74289  -0.72575  -0.72215
 Alpha  occ. eigenvalues --   -0.71737  -0.70960  -0.70633  -0.70266  -0.69816
 Alpha  occ. eigenvalues --   -0.69324  -0.68742  -0.67490  -0.67162  -0.66570
 Alpha  occ. eigenvalues --   -0.65647  -0.64907  -0.63539  -0.62783  -0.61981
 Alpha  occ. eigenvalues --   -0.61738  -0.61041  -0.60497  -0.58795  -0.58644
 Alpha  occ. eigenvalues --   -0.58595  -0.58171  -0.57614  -0.57146  -0.57100
 Alpha  occ. eigenvalues --   -0.56293  -0.56238  -0.55309  -0.54999  -0.54344
 Alpha  occ. eigenvalues --   -0.53817  -0.53727  -0.53187  -0.52435  -0.52233
 Alpha  occ. eigenvalues --   -0.51936  -0.51799  -0.51637  -0.51335  -0.51173
 Alpha  occ. eigenvalues --   -0.50826  -0.50285  -0.49910  -0.49790  -0.49629
 Alpha  occ. eigenvalues --   -0.49228  -0.48477  -0.48302  -0.47988  -0.47910
 Alpha  occ. eigenvalues --   -0.47574  -0.47042  -0.46986  -0.46809  -0.46539
 Alpha  occ. eigenvalues --   -0.46476  -0.46315  -0.46199  -0.46129  -0.45632
 Alpha  occ. eigenvalues --   -0.45467  -0.45311  -0.45222  -0.44978  -0.44630
 Alpha  occ. eigenvalues --   -0.44520  -0.44439  -0.43798  -0.43645  -0.43527
 Alpha  occ. eigenvalues --   -0.43272  -0.43017  -0.42913  -0.42634  -0.42509
 Alpha  occ. eigenvalues --   -0.42364  -0.42259  -0.42123  -0.41821  -0.41536
 Alpha  occ. eigenvalues --   -0.41213  -0.40923  -0.40831  -0.40650  -0.40591
 Alpha  occ. eigenvalues --   -0.40399  -0.40148  -0.40053  -0.39864  -0.39628
 Alpha  occ. eigenvalues --   -0.39476  -0.39448  -0.39333  -0.39250  -0.39066
 Alpha  occ. eigenvalues --   -0.39021  -0.38922  -0.38812  -0.38461  -0.38033
 Alpha  occ. eigenvalues --   -0.37981  -0.37802  -0.37754  -0.37176  -0.36924
 Alpha  occ. eigenvalues --   -0.36659  -0.36149  -0.35914  -0.35771  -0.35307
 Alpha  occ. eigenvalues --   -0.35209  -0.35078  -0.35048  -0.34635  -0.34452
 Alpha  occ. eigenvalues --   -0.33917  -0.33860  -0.33598  -0.33481  -0.33030
 Alpha  occ. eigenvalues --   -0.32857  -0.32531  -0.32263  -0.31888  -0.31882
 Alpha  occ. eigenvalues --   -0.31396  -0.31224  -0.30345  -0.29737  -0.29383
 Alpha  occ. eigenvalues --   -0.28451  -0.28371  -0.27850  -0.27561  -0.27459
 Alpha  occ. eigenvalues --   -0.27353  -0.26586  -0.22622  -0.21790
 Alpha virt. eigenvalues --   -0.08128  -0.06465  -0.01679  -0.00998   0.00456
 Alpha virt. eigenvalues --    0.02546   0.03466   0.03845   0.04252   0.05049
 Alpha virt. eigenvalues --    0.05553   0.06722   0.07345   0.08644   0.09391

 Mulliken charges:
               1
     1  Mg   0.824167
     2  C    0.096930
     3  C   -0.198238
     4  C   -0.163062
     5  C   -0.169355
     6  N   -0.630180
     7  C    0.324250
     8  C   -0.145270
     9  C   -0.164214
    10  C    0.326430
    11  C   -0.299401
    12  C   -0.165877
    13  C   -0.255491
    14  C    0.564249
    15  O   -0.448128
    16  O   -0.484340
    17  N   -0.702010
    18  C    0.362722
    19  C    0.054047
    20  C   -0.005714
    21  C    0.236513
    22  C   -0.351286
    23  C    0.226729
    24  O   -0.382606
    25  N   -0.686451
    26  C    0.293559
    27  C   -0.032302
    28  C    0.012746
    29  C    0.295681
    30  C    0.237430
    31  C   -0.247967
    32  C   -0.317922
    33  N   -0.725746
    34  C    0.209161
    35  C    0.041439
    36  C    0.001810
    37  C    0.361690
    38  C   -0.360227
    39  C    0.366502
    40  O   -0.460044
    41  C   -0.364252
    42  C    0.629052
    43  O   -0.500461
    44  O   -0.367047
    45  C   -0.097922
    46  C   -0.003981
    47  C   -0.130926
    48  C    0.217157
    49  C   -0.390134
    50  C   -0.231204
    51  C   -0.185271
    52  C   -0.137337
    53  C   -0.066144
    54  C   -0.310256
    55  C   -0.169661
    56  C   -0.180989
    57  C   -0.162409
    58  C   -0.077823
    59  C   -0.284836
    60  C   -0.140919
    61  C   -0.171318
    62  C   -0.109915
    63  C   -0.035641
    64  C   -0.322215
    65  C   -0.303636
    66  H    0.082143
    67  H    0.128674
    68  H    0.080970
    69  H    0.132064
    70  H    0.114148
    71  H    0.129442
    72  H    0.096455
    73  H    0.117303
    74  H    0.126242
    75  H    0.078025
    76  H    0.140965
    77  H    0.141546
    78  H    0.106580
    79  H    0.155328
    80  H    0.108551
    81  H    0.088804
    82  H    0.100847
    83  H    0.130171
    84  H    0.123714
    85  H    0.132224
    86  H    0.118080
    87  H    0.101011
    88  H    0.142381
    89  H    0.137976
    90  H    0.143002
    91  H    0.118078
    92  H    0.096360
    93  H    0.083006
    94  H    0.115541
    95  H    0.104261
    96  H    0.144954
    97  H    0.088129
    98  H    0.089543
    99  H    0.092331
   100  H    0.095505
   101  H    0.086754
   102  H    0.069505
   103  H    0.068383
   104  H    0.117352
   105  H    0.084647
   106  H    0.095686
   107  H    0.100025
   108  H    0.046848
   109  H    0.097133
   110  H    0.092068
   111  H    0.071819
   112  H    0.095552
   113  H    0.075769
   114  H    0.065538
   115  H    0.110466
   116  H    0.098574
   117  H    0.070734
   118  H    0.093272
   119  H    0.082659
   120  H    0.097333
   121  H    0.058373
   122  H    0.069386
   123  H    0.090547
   124  H    0.104554
   125  H    0.100857
   126  H    0.089886
   127  H    0.074554
   128  H    0.088709
   129  H    0.088466
   130  H    0.104851
   131  H    0.137882
   132  H    0.108132
   133  O   -0.441140
   134  H    0.078340
 Sum of Mulliken charges =  -0.00000

 Dipole moment (field-independent basis, Debye):
    X=              2.3837    Y=             -3.1383    Z=             -1.4833  Tot=              4.2108
 Quadrupole moment (field-independent basis, Debye-Ang):
   XX=           -377.3526   YY=           -434.4436   ZZ=           -390.3282
   XY=             -4.8858   XZ=             18.4223   YZ=            -34.9769

 Normal termination of Gaussian 16 at Thu Oct  3 16:18:47 2019.
