 Gaussian 16, Revision A.03,
 Gaussian 16:  ES64L-G16RevA.03 25-Dec-2016

 ----------------------------------------------------------------------
 # td=(NStates=1) iop(3/107=0140000000,3/108=0140000000) iop(3/107=0140
 000000,3/108=0140000000) CAM-B3LYP/6-31G(d,p)
 ----------------------------------------------------------------------

 --
 TD
 --
 Symbolic Z-matrix:
 Charge =  0 Multiplicity = 1

                         Standard orientation:
 ---------------------------------------------------------------------
 Center     Atomic      Atomic             Coordinates (Angstroms)
 Number     Number       Type             X           Y           Z
 ---------------------------------------------------------------------
      1         12           0       -5.641917    1.180665    0.328384
      2          6           0       -4.965955   -2.061857   -0.359201
      3          6           0       -3.332976    1.116985    2.669923
      4          6           0       -6.158336    4.445821    0.702467
      5          6           0       -8.029208    1.223745   -2.348378
      6          7           0       -4.393495   -0.337420    1.087016
      7          6           0       -4.231469   -1.672148    0.582686
      8          6           0       -3.230412   -2.386963    1.501367
      9          6           0       -2.985568   -1.402691    2.610445
     10          6           0       -3.591347   -0.108787    2.059731
     11          6           0       -3.692466   -1.860745    3.848964
     12          6           0       -1.977311   -2.743948    0.647073
     13          6           0       -1.002746   -3.670496    1.257812
     14          6           0        0.296722   -3.855451    0.500724
     15          8           0        0.523785   -3.328028   -0.546545
     16          8           0        1.049466   -4.733483    1.216738
     17          7           0       -4.862681    2.566356    1.562030
     18          6           0       -3.936751    2.362041    2.479975
     19          6           0       -3.702233    3.546464    3.165319
     20          6           0       -4.521254    4.485104    2.649172
     21          6           0       -5.217488    3.847894    1.582660
     22          6           0       -2.868974    3.730603    4.412278
     23          6           0       -4.668538    5.942283    3.045977
     24          8           0       -4.076882    6.585985    3.892222
     25          7           0       -6.938265    2.615425   -0.612529
     26          6           0       -7.012898    3.894152   -0.339594
     27          6           0       -7.862935    4.691093   -1.125528
     28          6           0       -8.332155    3.739120   -2.128746
     29          6           0       -7.743470    2.438627   -1.691417
     30          6           0       -8.175524    6.108879   -1.138726
     31          6           0       -9.268542    3.921624   -3.225845
     32          6           0       -8.694233    4.007475   -4.664364
     33          7           0       -6.375182   -0.102941   -1.015931
     34          6           0       -7.313833    0.007778   -2.062596
     35          6           0       -7.503534   -1.260930   -2.756587
     36          6           0       -6.736409   -2.156137   -2.083942
     37          6           0       -6.023513   -1.342124   -1.085816
     38          6           0       -8.478628   -1.521812   -3.931385
     39          6           0       -6.210099   -3.538242   -2.026966
     40          8           0       -6.508640   -4.464419   -2.638710
     41          6           0       -5.068234   -3.517766   -0.948774
     42          6           0       -5.297682   -4.617797    0.030451
     43          8           0       -5.713764   -4.402079    1.148567
     44          8           0       -5.084236   -5.856116   -0.494341
     45          6           0       -5.524238   -6.945258    0.454351
     46          6           0        2.350717   -5.002184    0.520372
     47          6           0        3.455264   -4.008837    0.940554
     48          6           0        4.073273   -3.218036    0.204428
     49          6           0        3.723090   -2.956051   -1.194444
     50          6           0        5.224346   -2.299175    0.750904
     51          6           0        6.556263   -2.775128    0.195126
     52          6           0        7.676814   -1.826083    0.790863
     53          6           0        8.970520   -2.075564   -0.027905
     54          6           0        9.575305   -3.453017    0.282847
     55          6           0        9.966016   -0.920145    0.486518
     56          6           0       11.081863   -0.726421   -0.326842
     57          6           0       12.122440    0.435403    0.237063
     58          6           0       13.470657    0.502976   -0.495410
     59          6           0       14.437418   -0.696659   -0.160424
     60          6           0       14.189162    1.795712   -0.266274
     61          6           0       15.415356    2.130026   -1.079043
     62          6           0       16.030294    3.478076   -0.694864
     63          6           0       17.295233    3.880715   -1.382324
     64          6           0       17.210147    3.943573   -2.969050
     65          6           0       17.933650    5.139703   -0.873609
     66          1           0       -2.529457    1.106449    3.614360
     67          1           0       -6.379723    5.549979    0.804760
     68          1           0       -8.710921    1.274550   -3.154365
     69          1           0       -3.769540   -3.257463    1.831274
     70          1           0       -1.870386   -1.259979    2.841569
     71          1           0       -3.244086   -2.754657    4.342079
     72          1           0       -3.600766   -1.244073    4.681909
     73          1           0       -4.728057   -1.868170    3.619946
     74          1           0       -2.145821   -3.169745   -0.407540
     75          1           0       -1.281334   -1.864273    0.202219
     76          1           0       -0.659021   -3.296211    2.266218
     77          1           0       -1.660340   -4.685450    1.295039
     78          1           0       -1.901232    3.369752    4.079456
     79          1           0       -2.659294    4.802870    4.635546
     80          1           0       -3.120177    3.019589    5.293582
     81          1           0       -5.418748    6.431661    2.395950
     82          1           0      -10.024550    3.170766   -3.180111
     83          1           0       -9.906410    4.900097   -3.297494
     84          1           0       -9.530248    4.188671   -5.380840
     85          1           0       -7.904736    4.860728   -4.694282
     86          1           0       -8.201480    3.182690   -4.897168
     87          1           0       -8.116659   -1.054386   -4.779834
     88          1           0       -8.688273   -2.571923   -4.114373
     89          1           0       -9.475696   -1.130434   -3.632113
     90          1           0       -4.203308   -3.827763   -1.519802
     91          1           0        2.618361   -5.975765    0.776375
     92          1           0        2.202126   -4.980902   -0.410677
     93          1           0        3.749934   -4.188429    1.884501
     94          1           0        2.727442   -2.850629   -1.348558
     95          1           0        4.010667   -1.997893   -1.634991
     96          1           0        4.293976   -3.724553   -1.884289
     97          1           0        5.217320   -1.259071    0.381020
     98          1           0        5.373941   -2.300173    1.827110
     99          1           0        6.710188   -3.828946    0.568493
    100          1           0        6.895493   -2.776667   -0.920323
    101          1           0        7.248088   -0.889456    0.798830
    102          1           0        7.884347   -2.098849    1.852767
    103          1           0        8.754301   -1.717013   -0.930716
    104          1           0        8.832377   -4.255613   -0.118190
    105          1           0       10.619532   -3.511060   -0.041600
    106          1           0        9.820712   -3.557172    1.370813
    107          1           0        9.436713    0.040542    0.592385
    108          1           0       10.380960   -1.482401    1.512615
    109          1           0       11.799646   -1.699749   -0.498910
    110          1           0       10.919372   -0.588866   -1.425781
    111          1           0       11.698617    1.337113    0.142744
    112          1           0       12.195813    0.137139    1.330676
    113          1           0       13.153403    0.304464   -1.659424
    114          1           0       14.579647   -0.734176    0.836190
    115          1           0       13.840648   -1.497708   -0.516578
    116          1           0       15.406922   -0.486195   -0.911629
    117          1           0       13.489804    2.619903   -0.479192
    118          1           0       14.490765    1.709388    0.926721
    119          1           0       16.092357    1.231460   -0.944140
    120          1           0       15.133337    2.082726   -2.154753
    121          1           0       15.129273    4.320425   -0.688442
    122          1           0       16.244867    3.525371    0.399731
    123          1           0       17.950620    3.081487   -1.225548
    124          1           0       16.536818    4.665222   -3.309397
    125          1           0       18.156931    3.954659   -3.421180
    126          1           0       16.888880    2.871533   -3.316266
    127          1           0       18.099187    5.102866    0.397923
    128          1           0       18.767591    5.525463   -1.544057
    129          1           0       17.224670    5.916241   -1.135727
    130          1           0       -4.986453   -7.884852   -0.049363
    131          1           0       -6.706813   -7.207242    0.156555
    132          1           0       -5.318273   -6.881533    1.708662
    133          8           0       -7.587416    6.857730   -0.372625
    134          1           0       -9.135536    6.268473   -1.799487
 ---------------------------------------------------------------------

 SCF Done:  E(RCAM-B3LYP) =  -3043.47086074     A.U. after   15 cycles

 Excitation energies and oscillator strengths:

 Excited State   1:      Singlet-A      2.1290 eV  582.35 nm  f=0.1799  <S**2>=0.000
     243 -> 246        0.21822
     244 -> 245        0.65759
 This state for optimization and/or second-order correction.
 Total Energy, E(TD-HF/TD-DFT) =  -3043.39262006
 Copying the excited state density for this state as the 1-particle RhoCI density.

 The electronic state is 1-A.
 Alpha  occ. eigenvalues --  -46.81814 -19.23612 -19.22537 -19.18031 -19.17581
 Alpha  occ. eigenvalues --  -19.17514 -19.17326 -19.17070 -14.37664 -14.37500
 Alpha  occ. eigenvalues --  -14.36795 -14.35736 -10.34967 -10.34935 -10.31412
 Alpha  occ. eigenvalues --  -10.31408 -10.31121 -10.30295 -10.26823 -10.26489
 Alpha  occ. eigenvalues --  -10.26338 -10.25921 -10.25901 -10.25755 -10.25732
 Alpha  occ. eigenvalues --  -10.25729 -10.25493 -10.25192 -10.25167 -10.25054
 Alpha  occ. eigenvalues --  -10.24371 -10.23901 -10.23824 -10.23770 -10.23601
 Alpha  occ. eigenvalues --  -10.23381 -10.23228 -10.23027 -10.23015 -10.22866
 Alpha  occ. eigenvalues --  -10.22636 -10.22519 -10.22178 -10.22173 -10.22055
 Alpha  occ. eigenvalues --  -10.22054 -10.21883 -10.21880 -10.21878 -10.21839
 Alpha  occ. eigenvalues --  -10.21821 -10.21668 -10.21657 -10.21615 -10.21468
 Alpha  occ. eigenvalues --  -10.21332 -10.21112 -10.21083 -10.20920 -10.20794
 Alpha  occ. eigenvalues --  -10.20502 -10.20075 -10.20056 -10.19947 -10.19911
 Alpha  occ. eigenvalues --  -10.19431  -3.10403  -1.85345  -1.84861  -1.84828
 Alpha  occ. eigenvalues --   -1.13154  -1.12958  -1.11307  -1.06964  -1.06521
 Alpha  occ. eigenvalues --   -1.05772  -1.04558  -1.02434  -1.01542  -1.00808
 Alpha  occ. eigenvalues --   -1.00064  -0.88040  -0.86884  -0.85780  -0.85539
 Alpha  occ. eigenvalues --   -0.85351  -0.84820  -0.84548  -0.83690  -0.83214
 Alpha  occ. eigenvalues --   -0.83187  -0.83130  -0.81947  -0.80757  -0.79983
 Alpha  occ. eigenvalues --   -0.79177  -0.78303  -0.77371  -0.76888  -0.76266
 Alpha  occ. eigenvalues --   -0.75550  -0.74774  -0.73950  -0.72605  -0.71798
 Alpha  occ. eigenvalues --   -0.71658  -0.70708  -0.70592  -0.70187  -0.69805
 Alpha  occ. eigenvalues --   -0.69401  -0.69387  -0.67362  -0.66743  -0.66251
 Alpha  occ. eigenvalues --   -0.65800  -0.64269  -0.63965  -0.62138  -0.61789
 Alpha  occ. eigenvalues --   -0.61696  -0.60649  -0.60560  -0.59013  -0.58810
 Alpha  occ. eigenvalues --   -0.58464  -0.58412  -0.57468  -0.57190  -0.56926
 Alpha  occ. eigenvalues --   -0.56258  -0.56177  -0.55954  -0.55069  -0.54417
 Alpha  occ. eigenvalues --   -0.54018  -0.53159  -0.52901  -0.52480  -0.52239
 Alpha  occ. eigenvalues --   -0.51755  -0.51667  -0.51163  -0.51086  -0.50620
 Alpha  occ. eigenvalues --   -0.50155  -0.49851  -0.49711  -0.49534  -0.49373
 Alpha  occ. eigenvalues --   -0.49055  -0.48512  -0.48235  -0.48071  -0.47978
 Alpha  occ. eigenvalues --   -0.47917  -0.47812  -0.47689  -0.46925  -0.46761
 Alpha  occ. eigenvalues --   -0.46718  -0.46514  -0.46354  -0.46107  -0.46055
 Alpha  occ. eigenvalues --   -0.45868  -0.45547  -0.45278  -0.45065  -0.44861
 Alpha  occ. eigenvalues --   -0.44661  -0.44562  -0.44341  -0.44153  -0.43862
 Alpha  occ. eigenvalues --   -0.43754  -0.43255  -0.43210  -0.43012  -0.42478
 Alpha  occ. eigenvalues --   -0.42396  -0.42250  -0.42144  -0.41875  -0.41708
 Alpha  occ. eigenvalues --   -0.41491  -0.41450  -0.41238  -0.41203  -0.40952
 Alpha  occ. eigenvalues --   -0.40819  -0.40626  -0.40324  -0.40190  -0.40003
 Alpha  occ. eigenvalues --   -0.39980  -0.39863  -0.39664  -0.39558  -0.39409
 Alpha  occ. eigenvalues --   -0.39201  -0.39086  -0.38994  -0.38607  -0.38374
 Alpha  occ. eigenvalues --   -0.38217  -0.38106  -0.37551  -0.37525  -0.37249
 Alpha  occ. eigenvalues --   -0.37202  -0.36951  -0.36892  -0.35865  -0.35378
 Alpha  occ. eigenvalues --   -0.35155  -0.34926  -0.34832  -0.34551  -0.34267
 Alpha  occ. eigenvalues --   -0.34089  -0.34033  -0.33613  -0.33204  -0.32861
 Alpha  occ. eigenvalues --   -0.32421  -0.32244  -0.32124  -0.32013  -0.31677
 Alpha  occ. eigenvalues --   -0.31147  -0.31038  -0.30866  -0.30282  -0.29791
 Alpha  occ. eigenvalues --   -0.29583  -0.28451  -0.28305  -0.28209  -0.28042
 Alpha  occ. eigenvalues --   -0.27730  -0.27489  -0.23043  -0.21261
 Alpha virt. eigenvalues --   -0.07914  -0.06117  -0.00499  -0.00320   0.01319
 Alpha virt. eigenvalues --    0.03420   0.03527   0.03903   0.04404   0.05337
 Alpha virt. eigenvalues --    0.05639   0.05927   0.08492   0.08641   0.08817

 Mulliken charges:
               1
     1  Mg   0.826631
     2  C    0.077852
     3  C   -0.223099
     4  C   -0.213074
     5  C   -0.150642
     6  N   -0.657529
     7  C    0.270942
     8  C   -0.128360
     9  C   -0.149228
    10  C    0.401722
    11  C   -0.309931
    12  C   -0.190070
    13  C   -0.246331
    14  C    0.616718
    15  O   -0.452117
    16  O   -0.478147
    17  N   -0.739753
    18  C    0.368469
    19  C    0.020644
    20  C   -0.025496
    21  C    0.319227
    22  C   -0.383962
    23  C    0.270529
    24  O   -0.414004
    25  N   -0.668269
    26  C    0.310083
    27  C   -0.002797
    28  C    0.038842
    29  C    0.271954
    30  C    0.249572
    31  C   -0.292182
    32  C   -0.306054
    33  N   -0.698461
    34  C    0.229562
    35  C   -0.011478
    36  C    0.031160
    37  C    0.295874
    38  C   -0.372833
    39  C    0.363476
    40  O   -0.398471
    41  C   -0.332729
    42  C    0.630322
    43  O   -0.475681
    44  O   -0.448773
    45  C   -0.089947
    46  C    0.011044
    47  C   -0.152417
    48  C    0.183458
    49  C   -0.391333
    50  C   -0.237028
    51  C   -0.185258
    52  C   -0.167263
    53  C   -0.057355
    54  C   -0.313859
    55  C   -0.159507
    56  C   -0.181470
    57  C   -0.159162
    58  C   -0.070393
    59  C   -0.290071
    60  C   -0.143120
    61  C   -0.173774
    62  C   -0.146330
    63  C   -0.044270
    64  C   -0.329660
    65  C   -0.294787
    66  H    0.065324
    67  H    0.132161
    68  H    0.092243
    69  H    0.138113
    70  H    0.095838
    71  H    0.110288
    72  H    0.113339
    73  H    0.128807
    74  H    0.105912
    75  H    0.101370
    76  H    0.122897
    77  H    0.114494
    78  H    0.119543
    79  H    0.153997
    80  H    0.121450
    81  H    0.080183
    82  H    0.122550
    83  H    0.106619
    84  H    0.109054
    85  H    0.105264
    86  H    0.123095
    87  H    0.139617
    88  H    0.145157
    89  H    0.121913
    90  H    0.159261
    91  H    0.117009
    92  H    0.127065
    93  H    0.074281
    94  H    0.158493
    95  H    0.103094
    96  H    0.100783
    97  H    0.102256
    98  H    0.104754
    99  H    0.089850
   100  H    0.085442
   101  H    0.091709
   102  H    0.084569
   103  H    0.094652
   104  H    0.103161
   105  H    0.110327
   106  H    0.105035
   107  H    0.092703
   108  H    0.059553
   109  H    0.058734
   110  H    0.085739
   111  H    0.099960
   112  H    0.080864
   113  H    0.048512
   114  H    0.112615
   115  H    0.105046
   116  H    0.077189
   117  H    0.083645
   118  H    0.057826
   119  H    0.082927
   120  H    0.096656
   121  H    0.053421
   122  H    0.089015
   123  H    0.097398
   124  H    0.112739
   125  H    0.110304
   126  H    0.083414
   127  H    0.068763
   128  H    0.097114
   129  H    0.104791
   130  H    0.120655
   131  H    0.121140
   132  H    0.139821
   133  O   -0.423850
   134  H    0.070734
 Sum of Mulliken charges =  -0.00000

 Dipole moment (field-independent basis, Debye):
    X=              0.5722    Y=             -5.6056    Z=             -2.1836  Tot=              6.0430
 Quadrupole moment (field-independent basis, Debye-Ang):
   XX=           -372.2727   YY=           -437.6896   ZZ=           -391.5124
   XY=              9.6125   XZ=             23.8203   YZ=            -36.8912

 Normal termination of Gaussian 16 at Fri Oct  4 05:16:38 2019.
