 Gaussian 16, Revision A.03,
 Gaussian 16:  ES64L-G16RevA.03 25-Dec-2016

 ----------------------------------------------------------------------
 # td=(NStates=1) iop(3/107=0140000000,3/108=0140000000) iop(3/107=0140
 000000,3/108=0140000000) CAM-B3LYP/6-31G(d,p)
 ----------------------------------------------------------------------

 --
 TD
 --
 Symbolic Z-matrix:
 Charge =  0 Multiplicity = 1

                         Standard orientation:
 ---------------------------------------------------------------------
 Center     Atomic      Atomic             Coordinates (Angstroms)
 Number     Number       Type             X           Y           Z
 ---------------------------------------------------------------------
      1         12           0       -5.732459    1.220653    0.140752
      2          6           0       -5.058557   -2.149216   -0.305443
      3          6           0       -3.428089    1.139594    2.834534
      4          6           0       -6.127805    4.550018    0.659907
      5          6           0       -8.017983    1.173966   -2.344991
      6          7           0       -4.450491   -0.304611    1.125341
      7          6           0       -4.314283   -1.588574    0.753928
      8          6           0       -3.181075   -2.309062    1.472163
      9          6           0       -2.906212   -1.373229    2.704988
     10          6           0       -3.615294   -0.058688    2.156943
     11          6           0       -3.476551   -1.773279    4.127338
     12          6           0       -1.931988   -2.588200    0.645935
     13          6           0       -0.920531   -3.460640    1.451316
     14          6           0        0.244699   -3.813062    0.589971
     15          8           0        0.528158   -3.353932   -0.524581
     16          8           0        1.053588   -4.756385    1.122401
     17          7           0       -4.875541    2.620343    1.424924
     18          6           0       -4.058910    2.360992    2.515664
     19          6           0       -3.748929    3.586542    3.197929
     20          6           0       -4.403926    4.594822    2.542493
     21          6           0       -5.229353    3.926083    1.485835
     22          6           0       -2.832137    3.719808    4.394549
     23          6           0       -4.569462    5.974763    2.989217
     24          8           0       -3.856785    6.581903    3.770506
     25          7           0       -6.942326    2.685760   -0.659227
     26          6           0       -7.025794    4.059714   -0.351490
     27          6           0       -7.970714    4.679612   -1.238399
     28          6           0       -8.445719    3.695216   -2.067912
     29          6           0       -7.773246    2.454411   -1.723349
     30          6           0       -8.278851    6.103675   -1.243100
     31          6           0       -9.352035    3.819100   -3.245972
     32          6           0       -8.633287    4.086769   -4.582581
     33          7           0       -6.356054   -0.169591   -1.029704
     34          6           0       -7.401898   -0.052996   -1.980464
     35          6           0       -7.635656   -1.367183   -2.705680
     36          6           0       -6.703058   -2.241729   -2.154566
     37          6           0       -5.980155   -1.464483   -1.074144
     38          6           0       -8.498393   -1.643238   -3.824836
     39          6           0       -6.313703   -3.611453   -2.011068
     40          8           0       -6.724707   -4.524452   -2.607229
     41          6           0       -5.079398   -3.565699   -0.858561
     42          6           0       -5.327799   -4.673550    0.109589
     43          8           0       -5.757521   -4.625583    1.267799
     44          8           0       -4.860713   -5.850851   -0.368363
     45          6           0       -5.067763   -7.025728    0.500339
     46          6           0        2.410855   -5.134751    0.432804
     47          6           0        3.398630   -4.234675    0.957801
     48          6           0        4.093859   -3.280225    0.143272
     49          6           0        3.769210   -3.113206   -1.337684
     50          6           0        5.009702   -2.358560    0.650770
     51          6           0        6.435024   -2.696047    0.101782
     52          6           0        7.542091   -1.656752    0.483362
     53          6           0        8.840679   -1.982911   -0.221424
     54          6           0        9.499546   -3.451224    0.128950
     55          6           0        9.829120   -0.864891    0.347581
     56          6           0       11.257933   -0.836958   -0.168276
     57          6           0       12.214238    0.386020    0.293581
     58          6           0       13.543345    0.481140   -0.582786
     59          6           0       14.372189   -0.701012   -0.244606
     60          6           0       14.299281    1.756026   -0.172106
     61          6           0       15.528951    2.105183   -1.109440
     62          6           0       16.130659    3.421829   -0.675955
     63          6           0       17.355973    3.828570   -1.377517
     64          6           0       17.150070    4.068868   -2.800682
     65          6           0       17.979427    5.116201   -0.658024
     66          1           0       -2.628926    1.153337    3.670723
     67          1           0       -6.086829    5.840765    0.731492
     68          1           0       -8.798348    0.977114   -3.076635
     69          1           0       -3.437357   -3.184502    1.997149
     70          1           0       -1.919262   -1.201208    2.727172
     71          1           0       -3.106115   -2.799059    4.355910
     72          1           0       -3.419443   -0.872871    4.759857
     73          1           0       -4.464128   -2.170355    4.136875
     74          1           0       -2.095924   -3.085735   -0.301465
     75          1           0       -1.521218   -1.632330    0.338174
     76          1           0       -0.572219   -2.757289    2.202877
     77          1           0       -1.545162   -4.438610    1.890861
     78          1           0       -1.754647    3.578052    4.141163
     79          1           0       -2.903371    4.646065    4.618754
     80          1           0       -3.196137    3.123817    5.310177
     81          1           0       -5.404223    6.472621    2.389207
     82          1           0       -9.778960    2.835113   -3.216529
     83          1           0      -10.318739    4.525166   -2.995514
     84          1           0       -9.304448    4.046284   -5.575455
     85          1           0       -8.139367    5.081073   -4.417381
     86          1           0       -7.773312    3.351422   -4.614666
     87          1           0       -7.892190   -1.276736   -4.680727
     88          1           0       -8.600891   -2.603142   -3.980033
     89          1           0       -9.495067   -1.243003   -3.537214
     90          1           0       -4.285472   -3.842157   -1.515315
     91          1           0        2.452724   -6.280973    0.676536
     92          1           0        2.145162   -4.923243   -0.608508
     93          1           0        3.742260   -4.261908    1.891381
     94          1           0        2.551612   -3.038684   -1.390847
     95          1           0        4.211615   -1.965937   -1.504028
     96          1           0        4.240200   -3.840267   -2.132904
     97          1           0        4.958665   -1.291600    0.072707
     98          1           0        5.105417   -2.275430    1.806649
     99          1           0        6.803703   -3.663108    0.518744
    100          1           0        6.297702   -3.018771   -0.945673
    101          1           0        7.245213   -0.678193    0.242272
    102          1           0        7.723722   -1.467791    1.571281
    103          1           0        8.901016   -1.834437   -1.267932
    104          1           0        8.994175   -4.284951   -0.475073
    105          1           0       10.544820   -3.352042   -0.128385
    106          1           0        9.392286   -3.683040    1.385199
    107          1           0        9.490537    0.267067    0.080108
    108          1           0        9.931516   -0.956204    1.479876
    109          1           0       11.808065   -1.888888   -0.110171
    110          1           0       11.450899   -0.839416   -1.182417
    111          1           0       11.720753    1.286308    0.098682
    112          1           0       12.266717    0.199833    1.409112
    113          1           0       13.258039    0.579546   -1.599747
    114          1           0       14.482849   -0.996684    0.918149
    115          1           0       13.935736   -1.713134   -0.564006
    116          1           0       15.366834   -0.535182   -0.566446
    117          1           0       13.658831    2.802354   -0.320562
    118          1           0       14.372880    1.740951    0.905393
    119          1           0       16.475611    1.305538   -1.227212
    120          1           0       15.307468    2.035849   -2.196943
    121          1           0       15.337450    4.199078   -1.067110
    122          1           0       16.130696    3.410415    0.419758
    123          1           0       18.161424    3.192582   -1.200461
    124          1           0       16.557483    4.977266   -3.005845
    125          1           0       18.204125    4.236923   -3.346890
    126          1           0       16.508706    3.255031   -3.361001
    127          1           0       18.189273    4.770734    0.477191
    128          1           0       18.717179    5.323580   -1.231133
    129          1           0       17.171518    6.085464   -0.793330
    130          1           0       -4.528873   -7.915085    0.200456
    131          1           0       -6.264097   -7.113073    0.465294
    132          1           0       -4.781674   -6.762433    1.483175
    133          8           0       -7.743562    6.963518   -0.502554
    134          1           0       -9.327316    6.337046   -1.885934
 ---------------------------------------------------------------------

 SCF Done:  E(RCAM-B3LYP) =  -3043.45586997     A.U. after   16 cycles

 Excitation energies and oscillator strengths:

 Excited State   1:      Singlet-A      2.0828 eV  595.27 nm  f=0.1192  <S**2>=0.000
     243 -> 246        0.32469
     244 -> 245        0.61927
 This state for optimization and/or second-order correction.
 Total Energy, E(TD-HF/TD-DFT) =  -3043.37932739
 Copying the excited state density for this state as the 1-particle RhoCI density.

 The electronic state is 1-A.
 Alpha  occ. eigenvalues --  -46.81714 -19.21803 -19.20155 -19.18562 -19.17648
 Alpha  occ. eigenvalues --  -19.17035 -19.16273 -19.16197 -14.39184 -14.37493
 Alpha  occ. eigenvalues --  -14.37360 -14.37103 -10.34656 -10.34624 -10.32128
 Alpha  occ. eigenvalues --  -10.31725 -10.30070 -10.28244 -10.28224 -10.27725
 Alpha  occ. eigenvalues --  -10.27610 -10.27378 -10.26877 -10.26681 -10.26665
 Alpha  occ. eigenvalues --  -10.26657 -10.26512 -10.26330 -10.25537 -10.25411
 Alpha  occ. eigenvalues --  -10.25133 -10.25056 -10.24263 -10.24136 -10.24094
 Alpha  occ. eigenvalues --  -10.23973 -10.23864 -10.23792 -10.23759 -10.23660
 Alpha  occ. eigenvalues --  -10.23455 -10.23444 -10.23215 -10.23162 -10.23063
 Alpha  occ. eigenvalues --  -10.23038 -10.22866 -10.22842 -10.22786 -10.22653
 Alpha  occ. eigenvalues --  -10.22617 -10.22606 -10.22480 -10.22412 -10.22062
 Alpha  occ. eigenvalues --  -10.21810 -10.21696 -10.21517 -10.21376 -10.21033
 Alpha  occ. eigenvalues --  -10.20980 -10.20956 -10.20817 -10.20719 -10.20634
 Alpha  occ. eigenvalues --  -10.20552  -3.10364  -1.85290  -1.84829  -1.84794
 Alpha  occ. eigenvalues --   -1.12246  -1.11037  -1.10626  -1.06334  -1.04935
 Alpha  occ. eigenvalues --   -1.02499  -1.01520  -1.00977  -0.99584  -0.99320
 Alpha  occ. eigenvalues --   -0.98431  -0.88038  -0.86913  -0.86131  -0.85871
 Alpha  occ. eigenvalues --   -0.85784  -0.85101  -0.84394  -0.84141  -0.83435
 Alpha  occ. eigenvalues --   -0.83258  -0.82911  -0.81391  -0.80232  -0.79335
 Alpha  occ. eigenvalues --   -0.78785  -0.78155  -0.77567  -0.76890  -0.76469
 Alpha  occ. eigenvalues --   -0.75777  -0.74877  -0.73704  -0.72947  -0.72441
 Alpha  occ. eigenvalues --   -0.70488  -0.70312  -0.69733  -0.69721  -0.69545
 Alpha  occ. eigenvalues --   -0.69151  -0.68758  -0.67580  -0.66759  -0.66211
 Alpha  occ. eigenvalues --   -0.65527  -0.64522  -0.64204  -0.62823  -0.62408
 Alpha  occ. eigenvalues --   -0.62306  -0.60832  -0.60495  -0.59632  -0.59133
 Alpha  occ. eigenvalues --   -0.58293  -0.58231  -0.57896  -0.57046  -0.56530
 Alpha  occ. eigenvalues --   -0.55966  -0.55903  -0.55409  -0.54843  -0.54145
 Alpha  occ. eigenvalues --   -0.53982  -0.53310  -0.53077  -0.52505  -0.51736
 Alpha  occ. eigenvalues --   -0.51270  -0.50676  -0.50525  -0.50382  -0.50157
 Alpha  occ. eigenvalues --   -0.49954  -0.49775  -0.49517  -0.49385  -0.49179
 Alpha  occ. eigenvalues --   -0.48873  -0.48743  -0.48314  -0.48226  -0.47924
 Alpha  occ. eigenvalues --   -0.47825  -0.47306  -0.47179  -0.47090  -0.46896
 Alpha  occ. eigenvalues --   -0.46515  -0.46403  -0.46166  -0.46101  -0.45973
 Alpha  occ. eigenvalues --   -0.45741  -0.45450  -0.45304  -0.45031  -0.44742
 Alpha  occ. eigenvalues --   -0.44569  -0.44479  -0.44003  -0.43908  -0.43683
 Alpha  occ. eigenvalues --   -0.43597  -0.43432  -0.43343  -0.42961  -0.42754
 Alpha  occ. eigenvalues --   -0.42493  -0.42322  -0.42072  -0.41841  -0.41580
 Alpha  occ. eigenvalues --   -0.41493  -0.41228  -0.41142  -0.41051  -0.40716
 Alpha  occ. eigenvalues --   -0.40632  -0.40564  -0.40434  -0.40307  -0.39829
 Alpha  occ. eigenvalues --   -0.39745  -0.39529  -0.39402  -0.39220  -0.39069
 Alpha  occ. eigenvalues --   -0.38848  -0.38765  -0.38607  -0.38329  -0.38084
 Alpha  occ. eigenvalues --   -0.37706  -0.37684  -0.37434  -0.37185  -0.37152
 Alpha  occ. eigenvalues --   -0.36942  -0.36768  -0.36652  -0.36101  -0.35832
 Alpha  occ. eigenvalues --   -0.35435  -0.35215  -0.35113  -0.34942  -0.34866
 Alpha  occ. eigenvalues --   -0.34709  -0.34257  -0.33745  -0.33362  -0.32570
 Alpha  occ. eigenvalues --   -0.32377  -0.32217  -0.31961  -0.31796  -0.31529
 Alpha  occ. eigenvalues --   -0.31318  -0.30423  -0.30212  -0.30035  -0.29756
 Alpha  occ. eigenvalues --   -0.29390  -0.28749  -0.28294  -0.28147  -0.27960
 Alpha  occ. eigenvalues --   -0.27323  -0.25706  -0.23040  -0.21774
 Alpha virt. eigenvalues --   -0.08139  -0.06991  -0.02053  -0.01179   0.00349
 Alpha virt. eigenvalues --    0.00969   0.02887   0.03581   0.03796   0.03870
 Alpha virt. eigenvalues --    0.04888   0.05819   0.08010   0.08464   0.09397

 Mulliken charges:
               1
     1  Mg   0.851152
     2  C    0.091627
     3  C   -0.208932
     4  C   -0.207976
     5  C   -0.167222
     6  N   -0.613007
     7  C    0.329217
     8  C   -0.156432
     9  C   -0.133645
    10  C    0.324601
    11  C   -0.320461
    12  C   -0.175903
    13  C   -0.257485
    14  C    0.609954
    15  O   -0.493827
    16  O   -0.498787
    17  N   -0.693443
    18  C    0.314831
    19  C    0.016681
    20  C   -0.019563
    21  C    0.338249
    22  C   -0.361782
    23  C    0.248675
    24  O   -0.418770
    25  N   -0.694880
    26  C    0.265524
    27  C    0.026889
    28  C    0.001167
    29  C    0.314004
    30  C    0.233619
    31  C   -0.238341
    32  C   -0.295517
    33  N   -0.751407
    34  C    0.265692
    35  C    0.000407
    36  C    0.043191
    37  C    0.254426
    38  C   -0.363892
    39  C    0.348096
    40  O   -0.406848
    41  C   -0.352264
    42  C    0.625600
    43  O   -0.503678
    44  O   -0.464269
    45  C   -0.081675
    46  C   -0.021163
    47  C   -0.080041
    48  C    0.166346
    49  C   -0.380342
    50  C   -0.248463
    51  C   -0.198514
    52  C   -0.160747
    53  C   -0.050383
    54  C   -0.304824
    55  C   -0.172008
    56  C   -0.204348
    57  C   -0.179999
    58  C   -0.058313
    59  C   -0.293042
    60  C   -0.169915
    61  C   -0.171662
    62  C   -0.137407
    63  C   -0.053387
    64  C   -0.307308
    65  C   -0.279075
    66  H    0.097676
    67  H    0.131641
    68  H    0.098035
    69  H    0.114547
    70  H    0.105584
    71  H    0.108566
    72  H    0.122418
    73  H    0.134527
    74  H    0.125210
    75  H    0.119875
    76  H    0.150121
    77  H    0.122696
    78  H    0.123648
    79  H    0.153566
    80  H    0.110902
    81  H    0.069473
    82  H    0.110639
    83  H    0.090629
    84  H    0.104374
    85  H    0.117506
    86  H    0.111719
    87  H    0.147305
    88  H    0.156144
    89  H    0.125533
    90  H    0.166864
    91  H    0.118098
    92  H    0.141586
    93  H    0.073062
    94  H    0.162499
    95  H    0.074707
    96  H    0.116299
    97  H    0.095966
    98  H    0.094022
    99  H    0.100840
   100  H    0.104154
   101  H    0.099296
   102  H    0.093226
   103  H    0.101528
   104  H    0.101749
   105  H    0.116280
   106  H    0.070416
   107  H    0.070782
   108  H    0.087818
   109  H    0.060862
   110  H    0.096790
   111  H    0.092785
   112  H    0.088907
   113  H    0.095350
   114  H    0.080111
   115  H    0.092744
   116  H    0.107120
   117  H    0.059464
   118  H    0.104457
   119  H    0.051075
   120  H    0.095903
   121  H    0.070977
   122  H    0.093398
   123  H    0.098346
   124  H    0.106583
   125  H    0.082893
   126  H    0.089999
   127  H    0.088080
   128  H    0.112906
   129  H    0.060725
   130  H    0.130413
   131  H    0.121550
   132  H    0.141123
   133  O   -0.429418
   134  H    0.046329
 Sum of Mulliken charges =  -0.00000

 Dipole moment (field-independent basis, Debye):
    X=              2.7442    Y=             -5.8758    Z=             -2.0585  Tot=              6.8039
 Quadrupole moment (field-independent basis, Debye-Ang):
   XX=           -368.8263   YY=           -451.9310   ZZ=           -389.7406
   XY=             16.2655   XZ=             20.0793   YZ=            -28.1544

 Normal termination of Gaussian 16 at Wed Oct  9 07:09:14 2019.
