 Gaussian 16, Revision A.03,
 Gaussian 16:  ES64L-G16RevA.03 25-Dec-2016

 ----------------------------------------------------------------------
 # td=(NStates=1) iop(3/107=0140000000,3/108=0140000000) iop(3/107=0140
 000000,3/108=0140000000) CAM-B3LYP/6-31G(d,p)
 ----------------------------------------------------------------------

 --
 TD
 --
 Symbolic Z-matrix:
 Charge =  0 Multiplicity = 1

                         Standard orientation:
 ---------------------------------------------------------------------
 Center     Atomic      Atomic             Coordinates (Angstroms)
 Number     Number       Type             X           Y           Z
 ---------------------------------------------------------------------
      1         12           0       -5.664314    1.222670    0.152075
      2          6           0       -4.994261   -2.167296   -0.295529
      3          6           0       -3.498737    1.194938    2.784473
      4          6           0       -6.246024    4.535729    0.617179
      5          6           0       -7.928094    1.110809   -2.404884
      6          7           0       -4.438244   -0.333676    1.019625
      7          6           0       -4.267811   -1.670892    0.772821
      8          6           0       -3.207695   -2.349199    1.533373
      9          6           0       -2.933090   -1.298955    2.685615
     10          6           0       -3.656386   -0.048853    2.167851
     11          6           0       -3.538519   -1.785770    4.000287
     12          6           0       -1.927647   -2.540256    0.666431
     13          6           0       -0.978009   -3.550568    1.408442
     14          6           0        0.296362   -3.655397    0.698057
     15          8           0        0.547357   -3.040789   -0.360847
     16          8           0        1.049421   -4.554340    1.253238
     17          7           0       -5.006660    2.549814    1.502732
     18          6           0       -4.079845    2.367697    2.452029
     19          6           0       -3.753433    3.661561    3.169236
     20          6           0       -4.655863    4.628939    2.538790
     21          6           0       -5.378379    3.933062    1.560458
     22          6           0       -2.766542    3.844386    4.202336
     23          6           0       -4.805495    6.029507    2.995718
     24          8           0       -4.219756    6.449241    3.917615
     25          7           0       -6.931375    2.576748   -0.755426
     26          6           0       -7.021069    3.890281   -0.418115
     27          6           0       -8.011164    4.494813   -1.270687
     28          6           0       -8.532086    3.599468   -2.122247
     29          6           0       -7.804279    2.333430   -1.823997
     30          6           0       -8.298262    5.885914   -1.207715
     31          6           0       -9.485940    3.866744   -3.271952
     32          6           0       -8.692125    4.040131   -4.633812
     33          7           0       -6.277010   -0.167644   -1.160184
     34          6           0       -7.311424   -0.100725   -2.170773
     35          6           0       -7.520875   -1.394942   -2.708107
     36          6           0       -6.653811   -2.190767   -2.075785
     37          6           0       -5.943042   -1.480235   -1.107332
     38          6           0       -8.441938   -1.696612   -3.896833
     39          6           0       -6.258929   -3.648767   -1.953546
     40          8           0       -6.531455   -4.565659   -2.677541
     41          6           0       -5.086181   -3.615877   -0.815048
     42          6           0       -5.300799   -4.617388    0.230356
     43          8           0       -5.654815   -4.475278    1.403983
     44          8           0       -5.020746   -5.804644   -0.302158
     45          6           0       -5.210814   -7.002575    0.592417
     46          6           0        2.341337   -4.876387    0.579475
     47          6           0        3.426218   -3.987192    0.980471
     48          6           0        4.043278   -3.285060    0.109477
     49          6           0        3.682598   -3.037699   -1.274500
     50          6           0        5.115481   -2.284212    0.625800
     51          6           0        6.502488   -2.671813    0.062077
     52          6           0        7.667385   -1.742078    0.490365
     53          6           0        8.985557   -1.948784   -0.323678
     54          6           0        9.511117   -3.401855   -0.231264
     55          6           0       10.044603   -0.976762    0.322642
     56          6           0       11.435419   -0.918680   -0.308810
     57          6           0       12.307691    0.164023    0.192400
     58          6           0       13.748903    0.376135   -0.401003
     59          6           0       14.707080   -0.829231   -0.210742
     60          6           0       14.272721    1.821050   -0.063931
     61          6           0       15.681332    2.131980   -0.773222
     62          6           0       16.098766    3.590738   -0.614329
     63          6           0       17.340534    3.964074   -1.381123
     64          6           0       17.128094    3.994759   -2.832312
     65          6           0       17.886203    5.331345   -0.785845
     66          1           0       -2.837581    1.185200    3.751009
     67          1           0       -6.530646    5.611024    0.795984
     68          1           0       -8.675531    0.982010   -3.241777
     69          1           0       -3.548597   -3.226791    2.139283
     70          1           0       -1.900351   -1.013259    2.739010
     71          1           0       -3.217821   -2.686398    4.388765
     72          1           0       -3.227081   -1.078757    4.802458
     73          1           0       -4.779866   -1.849818    3.819923
     74          1           0       -2.416995   -2.916937   -0.335345
     75          1           0       -1.382886   -1.621858    0.318774
     76          1           0       -0.702307   -2.939270    2.498674
     77          1           0       -1.453016   -4.524678    1.535832
     78          1           0       -1.849109    3.272810    3.836333
     79          1           0       -2.796963    4.962307    4.500609
     80          1           0       -2.880177    3.301094    5.245465
     81          1           0       -5.465087    6.711576    2.506638
     82          1           0      -10.163066    3.062469   -3.371598
     83          1           0       -9.914461    4.876386   -3.002439
     84          1           0       -9.469092    4.181728   -5.374351
     85          1           0       -7.707520    4.766687   -4.352116
     86          1           0       -8.127933    3.044451   -5.030806
     87          1           0       -8.020794   -1.379605   -4.942720
     88          1           0       -8.363182   -2.852940   -3.844904
     89          1           0       -9.431645   -1.467786   -3.662683
     90          1           0       -4.215883   -3.997048   -1.273357
     91          1           0        2.400936   -5.923779    1.137320
     92          1           0        2.421773   -5.112921   -0.487347
     93          1           0        3.471974   -3.901009    2.017704
     94          1           0        2.665213   -3.037408   -1.529568
     95          1           0        4.012029   -2.050583   -1.640253
     96          1           0        4.357274   -3.691478   -1.927730
     97          1           0        4.702559   -1.220019    0.428166
     98          1           0        5.118677   -2.464187    1.823436
     99          1           0        6.656669   -3.687149    0.314671
    100          1           0        6.474132   -2.763601   -0.936926
    101          1           0        7.317587   -0.777161    0.328547
    102          1           0        7.959746   -1.871934    1.690468
    103          1           0        8.663279   -1.753602   -1.265173
    104          1           0        8.740858   -4.140823   -0.656202
    105          1           0       10.383101   -3.714255   -0.751739
    106          1           0        9.669445   -3.534364    0.881423
    107          1           0        9.521079    0.101993    0.369224
    108          1           0       10.134014   -1.244576    1.546676
    109          1           0       11.995102   -1.915167   -0.044825
    110          1           0       11.270933   -1.001431   -1.262357
    111          1           0       11.950109    1.242685    0.253695
    112          1           0       12.474863   -0.056126    1.296489
    113          1           0       13.632955    0.287952   -1.546671
    114          1           0       14.981623   -0.816628    1.045988
    115          1           0       14.237364   -1.836774   -0.282903
    116          1           0       15.552158   -0.999513   -1.063432
    117          1           0       13.488149    2.460437   -0.341130
    118          1           0       14.123378    1.795604    1.004846
    119          1           0       16.449431    1.579602   -0.163263
    120          1           0       15.691661    1.914648   -1.805700
    121          1           0       15.358812    4.134222   -1.191405
    122          1           0       16.182411    3.802404    0.465561
    123          1           0       17.993442    3.279969   -1.309300
    124          1           0       16.380923    4.787932   -3.425527
    125          1           0       18.158685    4.026714   -3.457437
    126          1           0       16.578135    3.115061   -3.121445
    127          1           0       18.017784    5.225328    0.235948
    128          1           0       18.796645    5.472237   -1.322850
    129          1           0       17.204388    6.251220   -1.089709
    130          1           0       -4.935718   -7.876569    0.141646
    131          1           0       -6.271241   -7.161641    0.723206
    132          1           0       -4.588151   -6.868180    1.502836
    133          8           0       -8.029335    6.770810   -0.440984
    134          1           0       -9.104746    6.156728   -1.818913
 ---------------------------------------------------------------------

 SCF Done:  E(RCAM-B3LYP) =  -3043.49039828     A.U. after   15 cycles

 Excitation energies and oscillator strengths:

 Excited State   1:      Singlet-A      2.1002 eV  590.35 nm  f=0.1712  <S**2>=0.000
     243 -> 246        0.28484
     244 -> 245        0.63897
 This state for optimization and/or second-order correction.
 Total Energy, E(TD-HF/TD-DFT) =  -3043.41321775
 Copying the excited state density for this state as the 1-particle RhoCI density.

 The electronic state is 1-A.
 Alpha  occ. eigenvalues --  -46.80555 -19.23367 -19.22426 -19.18132 -19.17147
 Alpha  occ. eigenvalues --  -19.16586 -19.16272 -19.16142 -14.38678 -14.36752
 Alpha  occ. eigenvalues --  -14.36716 -14.35542 -10.34476 -10.34224 -10.32225
 Alpha  occ. eigenvalues --  -10.29821 -10.28615 -10.28266 -10.27544 -10.27267
 Alpha  occ. eigenvalues --  -10.26797 -10.26591 -10.26315 -10.26235 -10.25932
 Alpha  occ. eigenvalues --  -10.25457 -10.25362 -10.25016 -10.24892 -10.24764
 Alpha  occ. eigenvalues --  -10.24716 -10.24169 -10.24156 -10.24058 -10.24025
 Alpha  occ. eigenvalues --  -10.23989 -10.23934 -10.23721 -10.23698 -10.23295
 Alpha  occ. eigenvalues --  -10.23236 -10.23212 -10.23188 -10.23183 -10.23115
 Alpha  occ. eigenvalues --  -10.23017 -10.22965 -10.22836 -10.22328 -10.22203
 Alpha  occ. eigenvalues --  -10.21958 -10.21801 -10.21784 -10.21717 -10.21517
 Alpha  occ. eigenvalues --  -10.21407 -10.21026 -10.20889 -10.20750 -10.20729
 Alpha  occ. eigenvalues --  -10.20447 -10.20349 -10.20136 -10.19953 -10.19689
 Alpha  occ. eigenvalues --  -10.19660  -3.09194  -1.84130  -1.83665  -1.83609
 Alpha  occ. eigenvalues --   -1.14305  -1.12688  -1.09879  -1.08388  -1.07405
 Alpha  occ. eigenvalues --   -1.03143  -1.02899  -0.99608  -0.98886  -0.98628
 Alpha  occ. eigenvalues --   -0.97722  -0.87483  -0.87453  -0.85596  -0.85251
 Alpha  occ. eigenvalues --   -0.85184  -0.84858  -0.84351  -0.83589  -0.83209
 Alpha  occ. eigenvalues --   -0.83075  -0.82731  -0.81726  -0.80511  -0.79752
 Alpha  occ. eigenvalues --   -0.79041  -0.78290  -0.77668  -0.77063  -0.76457
 Alpha  occ. eigenvalues --   -0.75306  -0.74758  -0.74194  -0.73053  -0.71987
 Alpha  occ. eigenvalues --   -0.71440  -0.70981  -0.70118  -0.70049  -0.69635
 Alpha  occ. eigenvalues --   -0.68748  -0.68372  -0.67074  -0.66413  -0.66114
 Alpha  occ. eigenvalues --   -0.65846  -0.64634  -0.64030  -0.62975  -0.61914
 Alpha  occ. eigenvalues --   -0.61499  -0.60919  -0.60193  -0.59526  -0.59332
 Alpha  occ. eigenvalues --   -0.58898  -0.58043  -0.57884  -0.57444  -0.57322
 Alpha  occ. eigenvalues --   -0.57173  -0.56117  -0.55393  -0.55008  -0.54020
 Alpha  occ. eigenvalues --   -0.53682  -0.53470  -0.52526  -0.52309  -0.51688
 Alpha  occ. eigenvalues --   -0.51465  -0.51235  -0.51125  -0.50942  -0.50747
 Alpha  occ. eigenvalues --   -0.50445  -0.50090  -0.49587  -0.49524  -0.48893
 Alpha  occ. eigenvalues --   -0.48721  -0.48431  -0.48200  -0.47744  -0.47634
 Alpha  occ. eigenvalues --   -0.47527  -0.47489  -0.47101  -0.46935  -0.46788
 Alpha  occ. eigenvalues --   -0.46768  -0.46619  -0.46240  -0.45890  -0.45758
 Alpha  occ. eigenvalues --   -0.45463  -0.45404  -0.45211  -0.44838  -0.44735
 Alpha  occ. eigenvalues --   -0.44505  -0.43998  -0.43903  -0.43640  -0.43321
 Alpha  occ. eigenvalues --   -0.43294  -0.43110  -0.42758  -0.42645  -0.42549
 Alpha  occ. eigenvalues --   -0.42116  -0.41958  -0.41785  -0.41721  -0.41492
 Alpha  occ. eigenvalues --   -0.41285  -0.41186  -0.41077  -0.40953  -0.40676
 Alpha  occ. eigenvalues --   -0.40609  -0.40497  -0.40227  -0.39938  -0.39841
 Alpha  occ. eigenvalues --   -0.39783  -0.39519  -0.39330  -0.39323  -0.39153
 Alpha  occ. eigenvalues --   -0.39059  -0.38865  -0.38602  -0.38535  -0.38235
 Alpha  occ. eigenvalues --   -0.38147  -0.37927  -0.37882  -0.37270  -0.37245
 Alpha  occ. eigenvalues --   -0.36731  -0.36628  -0.36498  -0.36479  -0.35685
 Alpha  occ. eigenvalues --   -0.35225  -0.34975  -0.34834  -0.34697  -0.34445
 Alpha  occ. eigenvalues --   -0.34384  -0.34105  -0.33668  -0.33214  -0.33182
 Alpha  occ. eigenvalues --   -0.32937  -0.32765  -0.32177  -0.31816  -0.31703
 Alpha  occ. eigenvalues --   -0.31455  -0.30337  -0.30192  -0.30149  -0.29472
 Alpha  occ. eigenvalues --   -0.29065  -0.28218  -0.28022  -0.27955  -0.27787
 Alpha  occ. eigenvalues --   -0.26948  -0.26890  -0.22472  -0.21450
 Alpha virt. eigenvalues --   -0.08094  -0.05944  -0.01306  -0.00161   0.00954
 Alpha virt. eigenvalues --    0.03110   0.03517   0.03700   0.04049   0.04402
 Alpha virt. eigenvalues --    0.04819   0.06365   0.08222   0.08563   0.09374

 Mulliken charges:
               1
     1  Mg   0.813593
     2  C    0.056739
     3  C   -0.210923
     4  C   -0.191073
     5  C   -0.192602
     6  N   -0.619650
     7  C    0.329426
     8  C   -0.152932
     9  C   -0.151417
    10  C    0.337441
    11  C   -0.304294
    12  C   -0.163083
    13  C   -0.255245
    14  C    0.616945
    15  O   -0.500752
    16  O   -0.447792
    17  N   -0.727339
    18  C    0.370308
    19  C    0.072073
    20  C   -0.047385
    21  C    0.296040
    22  C   -0.421473
    23  C    0.262967
    24  O   -0.388154
    25  N   -0.704043
    26  C    0.326661
    27  C   -0.006817
    28  C    0.028261
    29  C    0.289195
    30  C    0.235695
    31  C   -0.232134
    32  C   -0.295023
    33  N   -0.736978
    34  C    0.264748
    35  C    0.008671
    36  C    0.005564
    37  C    0.304960
    38  C   -0.375382
    39  C    0.386828
    40  O   -0.423342
    41  C   -0.336520
    42  C    0.617072
    43  O   -0.504969
    44  O   -0.456203
    45  C   -0.089029
    46  C   -0.015382
    47  C   -0.110143
    48  C    0.159767
    49  C   -0.385523
    50  C   -0.231051
    51  C   -0.182342
    52  C   -0.156066
    53  C   -0.066859
    54  C   -0.303595
    55  C   -0.156709
    56  C   -0.156556
    57  C   -0.176598
    58  C   -0.045046
    59  C   -0.293799
    60  C   -0.190004
    61  C   -0.184129
    62  C   -0.170971
    63  C   -0.025302
    64  C   -0.317129
    65  C   -0.306123
    66  H    0.080255
    67  H    0.133267
    68  H    0.082624
    69  H    0.133756
    70  H    0.107086
    71  H    0.126063
    72  H    0.102821
    73  H    0.107638
    74  H    0.097264
    75  H    0.135358
    76  H    0.106282
    77  H    0.144458
    78  H    0.122031
    79  H    0.167198
    80  H    0.118376
    81  H    0.080478
    82  H    0.120324
    83  H    0.118249
    84  H    0.126495
    85  H    0.101510
    86  H    0.093309
    87  H    0.129444
    88  H    0.137056
    89  H    0.133614
    90  H    0.165627
    91  H    0.093184
    92  H    0.133424
    93  H    0.087628
    94  H    0.162311
    95  H    0.113252
    96  H    0.104859
    97  H    0.096038
    98  H    0.071586
    99  H    0.108299
   100  H    0.100008
   101  H    0.103189
   102  H    0.059603
   103  H    0.094135
   104  H    0.082767
   105  H    0.110177
   106  H    0.098200
   107  H    0.069518
   108  H    0.056079
   109  H    0.085455
   110  H    0.105762
   111  H    0.080322
   112  H    0.079830
   113  H    0.063304
   114  H    0.054032
   115  H    0.104625
   116  H    0.090644
   117  H    0.102577
   118  H    0.095485
   119  H    0.097786
   120  H    0.099431
   121  H    0.092128
   122  H    0.086561
   123  H    0.097434
   124  H    0.069910
   125  H    0.082247
   126  H    0.105095
   127  H    0.107500
   128  H    0.100371
   129  H    0.089047
   130  H    0.134650
   131  H    0.140309
   132  H    0.131735
   133  O   -0.426339
   134  H    0.040189
 Sum of Mulliken charges =  -0.00000

 Dipole moment (field-independent basis, Debye):
    X=              2.6912    Y=             -5.3853    Z=             -1.2581  Tot=              6.1504
 Quadrupole moment (field-independent basis, Debye-Ang):
   XX=           -388.3710   YY=           -427.7586   ZZ=           -392.1433
   XY=              6.6365   XZ=             15.4837   YZ=            -27.6753

 Normal termination of Gaussian 16 at Wed Oct  9 12:23:23 2019.
