 Gaussian 16, Revision A.03,
 Gaussian 16:  ES64L-G16RevA.03 25-Dec-2016

 ----------------------------------------------------------------------
 # td=(NStates=1) iop(3/107=0140000000,3/108=0140000000) iop(3/107=0140
 000000,3/108=0140000000) CAM-B3LYP/6-31G(d,p)
 ----------------------------------------------------------------------

 --
 TD
 --
 Symbolic Z-matrix:
 Charge =  0 Multiplicity = 1

                         Standard orientation:
 ---------------------------------------------------------------------
 Center     Atomic      Atomic             Coordinates (Angstroms)
 Number     Number       Type             X           Y           Z
 ---------------------------------------------------------------------
      1         12           0       -5.611798    1.162686    0.220428
      2          6           0       -5.031934   -2.085920   -0.406463
      3          6           0       -3.319938    1.144980    2.674572
      4          6           0       -6.245706    4.497330    0.744793
      5          6           0       -8.060111    1.197663   -2.333237
      6          7           0       -4.242237   -0.264642    0.925003
      7          6           0       -4.159652   -1.637964    0.588996
      8          6           0       -3.200137   -2.371668    1.389599
      9          6           0       -2.814363   -1.365301    2.563594
     10          6           0       -3.559001   -0.092292    2.033187
     11          6           0       -3.406818   -1.860204    3.857671
     12          6           0       -1.887678   -2.753770    0.577557
     13          6           0       -0.933611   -3.630945    1.371306
     14          6           0        0.264135   -4.045471    0.630021
     15          8           0        0.425414   -3.672888   -0.601943
     16          8           0        1.171279   -4.812626    1.220427
     17          7           0       -4.904955    2.573942    1.502007
     18          6           0       -4.010217    2.420972    2.470373
     19          6           0       -3.791316    3.573076    3.207421
     20          6           0       -4.659246    4.572263    2.656827
     21          6           0       -5.312921    3.879745    1.571155
     22          6           0       -2.878561    3.794901    4.455979
     23          6           0       -4.749707    5.926943    3.023795
     24          8           0       -3.947691    6.444266    3.909388
     25          7           0       -6.787502    2.677337   -0.767275
     26          6           0       -6.863784    3.906865   -0.355728
     27          6           0       -7.878809    4.649245   -1.157830
     28          6           0       -8.423927    3.675873   -2.017363
     29          6           0       -7.778580    2.434668   -1.696911
     30          6           0       -8.280719    6.063026   -1.076296
     31          6           0       -9.331860    3.955602   -3.129242
     32          6           0       -8.800118    4.229621   -4.518583
     33          7           0       -6.351003   -0.101840   -1.159083
     34          6           0       -7.380552    0.014957   -2.114091
     35          6           0       -7.552110   -1.320087   -2.710596
     36          6           0       -6.681781   -2.152817   -2.034952
     37          6           0       -6.028936   -1.370232   -1.086328
     38          6           0       -8.621660   -1.639815   -3.717555
     39          6           0       -6.215017   -3.512073   -2.049774
     40          8           0       -6.613258   -4.418425   -2.685337
     41          6           0       -5.068597   -3.459069   -0.974156
     42          6           0       -5.406834   -4.596895    0.043232
     43          8           0       -5.936174   -4.476063    1.185074
     44          8           0       -4.965894   -5.785007   -0.388175
     45          6           0       -5.356077   -6.978161    0.322934
     46          6           0        2.407066   -5.141987    0.648737
     47          6           0        3.510171   -4.263079    1.056534
     48          6           0        4.023176   -3.280679    0.220733
     49          6           0        3.534050   -3.036571   -1.230721
     50          6           0        5.200959   -2.475336    0.847899
     51          6           0        6.553705   -2.683042    0.054956
     52          6           0        7.646854   -1.837936    0.657952
     53          6           0        8.997330   -1.999980    0.147315
     54          6           0        9.577777   -3.332132    0.349392
     55          6           0       10.000294   -0.935114    0.661188
     56          6           0       11.323095   -0.817444   -0.216729
     57          6           0       12.329633    0.211938    0.143208
     58          6           0       13.592662    0.547213   -0.767276
     59          6           0       14.601567   -0.654172   -0.641812
     60          6           0       14.157184    1.826022   -0.253112
     61          6           0       15.365607    2.226617   -1.003586
     62          6           0       15.939421    3.609399   -0.685949
     63          6           0       17.239322    3.996928   -1.401811
     64          6           0       17.067291    4.065041   -2.895169
     65          6           0       17.856693    5.259081   -0.802872
     66          1           0       -2.576313    1.286016    3.369320
     67          1           0       -6.382458    5.574918    0.756904
     68          1           0       -9.008131    1.067763   -2.897285
     69          1           0       -3.448062   -3.268986    1.848613
     70          1           0       -1.756235   -1.179938    2.659873
     71          1           0       -3.116941   -2.816300    3.980908
     72          1           0       -3.111044   -1.111513    4.610073
     73          1           0       -4.347908   -2.004051    3.726685
     74          1           0       -2.234098   -3.232922   -0.413364
     75          1           0       -1.598392   -1.669964    0.266338
     76          1           0       -0.436579   -3.173262    2.178456
     77          1           0       -1.298496   -4.624317    1.816929
     78          1           0       -1.966146    3.700227    4.021931
     79          1           0       -2.925681    4.856003    4.890919
     80          1           0       -3.099314    2.950367    5.083994
     81          1           0       -5.625139    6.626079    2.717164
     82          1           0      -10.152188    3.216850   -3.228489
     83          1           0       -9.896639    4.800780   -2.811950
     84          1           0       -9.484782    4.421807   -5.202686
     85          1           0       -8.262548    5.004121   -4.504230
     86          1           0       -8.145670    3.298007   -4.824810
     87          1           0       -8.632499   -1.280083   -4.678716
     88          1           0       -8.545562   -2.575055   -4.128937
     89          1           0       -9.711305   -1.482233   -3.279321
     90          1           0       -4.150500   -3.801093   -1.569500
     91          1           0        2.451090   -6.258769    0.981386
     92          1           0        2.508578   -5.217833   -0.259439
     93          1           0        3.758375   -4.270574    2.165228
     94          1           0        2.678649   -3.562304   -1.594401
     95          1           0        3.715453   -1.811162   -1.414458
     96          1           0        4.413811   -3.612087   -1.890999
     97          1           0        4.784018   -1.539079    0.887331
     98          1           0        5.443497   -2.972875    1.675437
     99          1           0        6.962336   -3.737704    0.226935
    100          1           0        6.420628   -2.513158   -1.017609
    101          1           0        7.279881   -0.954002    0.709018
    102          1           0        7.651301   -2.063957    1.792297
    103          1           0        9.007753   -1.852300   -0.913281
    104          1           0        9.039969   -4.101489    0.062475
    105          1           0       10.498255   -3.639047   -0.254949
    106          1           0        9.793178   -3.361783    1.480840
    107          1           0        9.511750   -0.019157    0.446212
    108          1           0       10.398364   -1.297688    1.610608
    109          1           0       11.893556   -1.712586   -0.229817
    110          1           0       10.807079   -0.725384   -1.265757
    111          1           0       11.742888    1.136982    0.253234
    112          1           0       12.751361    0.164451    1.344693
    113          1           0       13.165693    0.743071   -1.675547
    114          1           0       15.108281   -0.669753    0.397883
    115          1           0       13.998001   -1.487457   -1.032881
    116          1           0       15.301992   -0.295796   -1.159851
    117          1           0       13.404737    2.579105   -0.349632
    118          1           0       14.400505    1.742263    0.775373
    119          1           0       16.132297    1.597070   -0.644853
    120          1           0       15.154135    1.960512   -2.226357
    121          1           0       15.053997    4.387482   -0.803633
    122          1           0       16.164473    3.780276    0.373055
    123          1           0       17.869877    3.014938   -1.284055
    124          1           0       16.513380    4.840707   -3.182506
    125          1           0       17.954829    4.134566   -3.496079
    126          1           0       16.585603    3.054160   -3.312567
    127          1           0       18.288103    5.295513    0.356883
    128          1           0       18.721098    5.711363   -1.258205
    129          1           0       17.180137    6.071992   -0.842899
    130          1           0       -4.904972   -7.727657   -0.184659
    131          1           0       -6.588778   -6.872294    0.428402
    132          1           0       -4.862474   -6.963898    1.407211
    133          8           0       -7.723970    6.963507   -0.405993
    134          1           0       -9.162530    6.255325   -1.642808
 ---------------------------------------------------------------------

 SCF Done:  E(RCAM-B3LYP) =  -3043.40440798     A.U. after   16 cycles

 Excitation energies and oscillator strengths:

 Excited State   1:      Singlet-A      2.0388 eV  608.13 nm  f=0.1288  <S**2>=0.000
     243 -> 246        0.29658
     244 -> 245        0.62490
 This state for optimization and/or second-order correction.
 Total Energy, E(TD-HF/TD-DFT) =  -3043.32948393
 Copying the excited state density for this state as the 1-particle RhoCI density.

 The electronic state is 1-A.
 Alpha  occ. eigenvalues --  -46.82234 -19.23066 -19.22973 -19.17718 -19.17018
 Alpha  occ. eigenvalues --  -19.16866 -19.15941 -19.15336 -14.39379 -14.36985
 Alpha  occ. eigenvalues --  -14.36847 -14.36734 -10.35630 -10.35156 -10.31212
 Alpha  occ. eigenvalues --  -10.30186 -10.30179 -10.29054 -10.27957 -10.27719
 Alpha  occ. eigenvalues --  -10.26389 -10.26352 -10.26266 -10.26209 -10.26195
 Alpha  occ. eigenvalues --  -10.25874 -10.25621 -10.25550 -10.25546 -10.25245
 Alpha  occ. eigenvalues --  -10.25188 -10.25066 -10.24472 -10.24462 -10.24375
 Alpha  occ. eigenvalues --  -10.24241 -10.24076 -10.24040 -10.23640 -10.22965
 Alpha  occ. eigenvalues --  -10.22927 -10.22811 -10.22720 -10.22662 -10.22378
 Alpha  occ. eigenvalues --  -10.22132 -10.21839 -10.21559 -10.21513 -10.21392
 Alpha  occ. eigenvalues --  -10.21299 -10.21293 -10.21016 -10.20988 -10.20963
 Alpha  occ. eigenvalues --  -10.20794 -10.20686 -10.20570 -10.20459 -10.20038
 Alpha  occ. eigenvalues --  -10.19927 -10.19533 -10.19472 -10.19364 -10.19304
 Alpha  occ. eigenvalues --  -10.18998  -3.10749  -1.85689  -1.85225  -1.85151
 Alpha  occ. eigenvalues --   -1.13988  -1.13180  -1.09816  -1.04665  -1.02451
 Alpha  occ. eigenvalues --   -1.02014  -1.01515  -1.00895  -1.00751  -1.00694
 Alpha  occ. eigenvalues --   -0.99970  -0.89508  -0.87113  -0.86715  -0.86192
 Alpha  occ. eigenvalues --   -0.85999  -0.85212  -0.84583  -0.83794  -0.83536
 Alpha  occ. eigenvalues --   -0.83449  -0.83050  -0.82915  -0.81196  -0.80406
 Alpha  occ. eigenvalues --   -0.79395  -0.79199  -0.78586  -0.77595  -0.77200
 Alpha  occ. eigenvalues --   -0.76143  -0.75554  -0.75271  -0.73510  -0.72984
 Alpha  occ. eigenvalues --   -0.72132  -0.71564  -0.71445  -0.70583  -0.70450
 Alpha  occ. eigenvalues --   -0.70082  -0.69542  -0.68254  -0.67847  -0.67170
 Alpha  occ. eigenvalues --   -0.66899  -0.65646  -0.64372  -0.63504  -0.62741
 Alpha  occ. eigenvalues --   -0.61827  -0.61363  -0.61323  -0.60173  -0.59151
 Alpha  occ. eigenvalues --   -0.58771  -0.58674  -0.58177  -0.58095  -0.57740
 Alpha  occ. eigenvalues --   -0.56878  -0.56258  -0.55984  -0.55734  -0.54616
 Alpha  occ. eigenvalues --   -0.53885  -0.53615  -0.53420  -0.53243  -0.52748
 Alpha  occ. eigenvalues --   -0.52468  -0.52365  -0.51699  -0.51486  -0.51364
 Alpha  occ. eigenvalues --   -0.50640  -0.50629  -0.49660  -0.49550  -0.49529
 Alpha  occ. eigenvalues --   -0.49158  -0.48915  -0.48785  -0.48487  -0.48173
 Alpha  occ. eigenvalues --   -0.47978  -0.47912  -0.47683  -0.47618  -0.47136
 Alpha  occ. eigenvalues --   -0.47076  -0.46863  -0.46554  -0.46082  -0.46059
 Alpha  occ. eigenvalues --   -0.45836  -0.45753  -0.45614  -0.45421  -0.45413
 Alpha  occ. eigenvalues --   -0.44467  -0.44432  -0.44307  -0.44183  -0.44081
 Alpha  occ. eigenvalues --   -0.43836  -0.43727  -0.43590  -0.43276  -0.42939
 Alpha  occ. eigenvalues --   -0.42830  -0.42581  -0.42489  -0.42172  -0.41989
 Alpha  occ. eigenvalues --   -0.41610  -0.41471  -0.41424  -0.41351  -0.41053
 Alpha  occ. eigenvalues --   -0.40898  -0.40588  -0.40457  -0.40190  -0.40115
 Alpha  occ. eigenvalues --   -0.39969  -0.39633  -0.39373  -0.39230  -0.39156
 Alpha  occ. eigenvalues --   -0.39105  -0.38983  -0.38847  -0.38665  -0.38087
 Alpha  occ. eigenvalues --   -0.38000  -0.37780  -0.37439  -0.37337  -0.37041
 Alpha  occ. eigenvalues --   -0.36941  -0.36760  -0.36526  -0.36292  -0.36161
 Alpha  occ. eigenvalues --   -0.35813  -0.35590  -0.35305  -0.35077  -0.34610
 Alpha  occ. eigenvalues --   -0.34255  -0.34155  -0.33604  -0.33202  -0.32767
 Alpha  occ. eigenvalues --   -0.32591  -0.32524  -0.32076  -0.31583  -0.31516
 Alpha  occ. eigenvalues --   -0.31479  -0.30694  -0.30362  -0.29788  -0.28982
 Alpha  occ. eigenvalues --   -0.28717  -0.28212  -0.28028  -0.27894  -0.27642
 Alpha  occ. eigenvalues --   -0.26821  -0.26793  -0.22914  -0.22076
 Alpha virt. eigenvalues --   -0.08890  -0.06932  -0.01862  -0.01329   0.00577
 Alpha virt. eigenvalues --    0.02325   0.02518   0.02984   0.03522   0.04031
 Alpha virt. eigenvalues --    0.05235   0.05419   0.08266   0.08499   0.09370

 Mulliken charges:
               1
     1  Mg   0.829829
     2  C    0.078842
     3  C   -0.185758
     4  C   -0.157936
     5  C   -0.163269
     6  N   -0.626520
     7  C    0.315530
     8  C   -0.170405
     9  C   -0.160269
    10  C    0.352747
    11  C   -0.285873
    12  C   -0.158415
    13  C   -0.253575
    14  C    0.573984
    15  O   -0.515768
    16  O   -0.438506
    17  N   -0.716058
    18  C    0.324935
    19  C    0.004395
    20  C    0.023344
    21  C    0.304955
    22  C   -0.365322
    23  C    0.181494
    24  O   -0.456593
    25  N   -0.684690
    26  C    0.327681
    27  C   -0.045229
    28  C    0.043175
    29  C    0.265759
    30  C    0.248840
    31  C   -0.273526
    32  C   -0.282669
    33  N   -0.741486
    34  C    0.262949
    35  C    0.007968
    36  C    0.038361
    37  C    0.340625
    38  C   -0.389167
    39  C    0.362384
    40  O   -0.424673
    41  C   -0.362052
    42  C    0.608617
    43  O   -0.505409
    44  O   -0.432927
    45  C   -0.065079
    46  C    0.046923
    47  C   -0.158267
    48  C    0.104215
    49  C   -0.344053
    50  C   -0.204444
    51  C   -0.203122
    52  C   -0.139258
    53  C   -0.059992
    54  C   -0.299293
    55  C   -0.165931
    56  C   -0.192188
    57  C   -0.157046
    58  C   -0.070444
    59  C   -0.295622
    60  C   -0.158260
    61  C   -0.169147
    62  C   -0.169275
    63  C   -0.034940
    64  C   -0.303457
    65  C   -0.324147
    66  H    0.066974
    67  H    0.135839
    68  H    0.107368
    69  H    0.119979
    70  H    0.109892
    71  H    0.112813
    72  H    0.108810
    73  H    0.133845
    74  H    0.119016
    75  H    0.115333
    76  H    0.148781
    77  H    0.137604
    78  H    0.137084
    79  H    0.171067
    80  H    0.117866
    81  H    0.101847
    82  H    0.101995
    83  H    0.107639
    84  H    0.119789
    85  H    0.125917
    86  H    0.092000
    87  H    0.131648
    88  H    0.144052
    89  H    0.115829
    90  H    0.161611
    91  H    0.088646
    92  H    0.116575
    93  H    0.076680
    94  H    0.166329
    95  H    0.095809
    96  H    0.088334
    97  H    0.113403
    98  H    0.117596
    99  H    0.094489
   100  H    0.095838
   101  H    0.095773
   102  H    0.062259
   103  H    0.078135
   104  H    0.106370
   105  H    0.091892
   106  H    0.083694
   107  H    0.095607
   108  H    0.095129
   109  H    0.097128
   110  H    0.067006
   111  H    0.073942
   112  H    0.040232
   113  H    0.094240
   114  H    0.090070
   115  H    0.106981
   116  H    0.118131
   117  H    0.089901
   118  H    0.092018
   119  H    0.102290
   120  H    0.058632
   121  H    0.061732
   122  H    0.096510
   123  H    0.072044
   124  H    0.112069
   125  H    0.101555
   126  H    0.080651
   127  H    0.073047
   128  H    0.107788
   129  H    0.114683
   130  H    0.139672
   131  H    0.127444
   132  H    0.109816
   133  O   -0.446908
   134  H    0.074680
 Sum of Mulliken charges =  -0.00000

 Dipole moment (field-independent basis, Debye):
    X=              1.2746    Y=             -5.6047    Z=             -1.6438  Tot=              5.9782
 Quadrupole moment (field-independent basis, Debye-Ang):
   XX=           -366.0114   YY=           -438.6053   ZZ=           -395.4915
   XY=             14.7359   XZ=             24.0137   YZ=            -34.6332

 Normal termination of Gaussian 16 at Thu Oct  3 16:20:23 2019.
