 Gaussian 16, Revision A.03,
 Gaussian 16:  ES64L-G16RevA.03 25-Dec-2016

 ----------------------------------------------------------------------
 # td=(NStates=1) iop(3/107=0140000000,3/108=0140000000) iop(3/107=0140
 000000,3/108=0140000000) CAM-B3LYP/6-31G(d,p)
 ----------------------------------------------------------------------

 --
 TD
 --
 Symbolic Z-matrix:
 Charge =  0 Multiplicity = 1

                         Standard orientation:
 ---------------------------------------------------------------------
 Center     Atomic      Atomic             Coordinates (Angstroms)
 Number     Number       Type             X           Y           Z
 ---------------------------------------------------------------------
      1         12           0       -5.646243    1.217769    0.228302
      2          6           0       -5.175304   -2.125595   -0.287669
      3          6           0       -3.440239    1.150924    2.854585
      4          6           0       -6.087105    4.546413    0.662604
      5          6           0       -8.042323    1.163670   -2.247833
      6          7           0       -4.342095   -0.252260    0.998664
      7          6           0       -4.389920   -1.635377    0.745887
      8          6           0       -3.282810   -2.334422    1.589793
      9          6           0       -2.980836   -1.381766    2.688895
     10          6           0       -3.585055   -0.107595    2.225815
     11          6           0       -3.528138   -1.869594    4.028649
     12          6           0       -2.086586   -2.660208    0.598912
     13          6           0       -0.988776   -3.566184    1.341008
     14          6           0        0.178030   -3.919989    0.447468
     15          8           0        0.368963   -3.448254   -0.698365
     16          8           0        1.028212   -4.738208    1.108869
     17          7           0       -4.806167    2.650785    1.484172
     18          6           0       -4.039810    2.394966    2.517572
     19          6           0       -3.647806    3.605509    3.158400
     20          6           0       -4.391115    4.615167    2.518431
     21          6           0       -5.151759    4.022254    1.493446
     22          6           0       -2.886698    3.738532    4.454774
     23          6           0       -4.604678    5.936640    2.945718
     24          8           0       -3.918031    6.544337    3.875044
     25          7           0       -6.866005    2.657760   -0.675381
     26          6           0       -6.896863    3.994876   -0.339114
     27          6           0       -7.830416    4.608377   -1.217790
     28          6           0       -8.356768    3.631668   -2.054212
     29          6           0       -7.734117    2.376247   -1.718414
     30          6           0       -8.180585    6.040501   -1.121535
     31          6           0       -9.291726    3.832840   -3.223866
     32          6           0       -8.680292    4.195042   -4.547869
     33          7           0       -6.480787   -0.089730   -1.061890
     34          6           0       -7.354868    0.020723   -2.116991
     35          6           0       -7.519051   -1.351728   -2.747864
     36          6           0       -6.605679   -2.127395   -2.094281
     37          6           0       -5.934439   -1.340245   -1.056402
     38          6           0       -8.539654   -1.641774   -3.778225
     39          6           0       -6.169073   -3.494879   -2.080912
     40          8           0       -6.548116   -4.481636   -2.720754
     41          6           0       -5.052855   -3.526683   -0.942637
     42          6           0       -5.243527   -4.630193    0.074364
     43          8           0       -5.639448   -4.520847    1.192148
     44          8           0       -4.848817   -5.840445   -0.412970
     45          6           0       -5.145850   -7.004669    0.453947
     46          6           0        2.257058   -5.050929    0.506102
     47          6           0        3.328809   -4.182270    0.898031
     48          6           0        3.939590   -3.217683    0.108241
     49          6           0        3.641477   -3.102722   -1.327974
     50          6           0        5.049438   -2.386087    0.774867
     51          6           0        6.477671   -2.797724    0.094673
     52          6           0        7.616940   -1.908393    0.719347
     53          6           0        8.862450   -2.045290    0.072059
     54          6           0        9.511305   -3.398380    0.274083
     55          6           0        9.904935   -0.818638    0.466492
     56          6           0       11.250091   -0.804462   -0.183360
     57          6           0       12.178804    0.413651    0.310403
     58          6           0       13.485418    0.441255   -0.464520
     59          6           0       14.411487   -0.743361   -0.318846
     60          6           0       14.379187    1.718968   -0.117594
     61          6           0       15.502148    2.005972   -0.999164
     62          6           0       16.101283    3.441808   -0.752319
     63          6           0       17.375412    3.823247   -1.411624
     64          6           0       17.104226    4.087199   -2.921901
     65          6           0       17.786336    5.252334   -0.907041
     66          1           0       -2.873839    1.102312    3.801624
     67          1           0       -6.455962    5.642640    0.726042
     68          1           0       -8.828073    1.272136   -3.019030
     69          1           0       -3.734849   -3.305020    1.620619
     70          1           0       -1.771017   -1.211110    2.842434
     71          1           0       -3.091566   -2.763163    4.650145
     72          1           0       -3.351369   -1.083640    4.783826
     73          1           0       -4.648881   -1.971556    3.944530
     74          1           0       -2.228686   -3.069891   -0.385363
     75          1           0       -1.608927   -1.686623    0.085107
     76          1           0       -0.544411   -3.032944    2.406673
     77          1           0       -1.443172   -4.362651    1.733997
     78          1           0       -1.885526    3.528057    4.330681
     79          1           0       -2.794630    4.855779    4.698653
     80          1           0       -3.082928    2.955476    5.092767
     81          1           0       -5.447153    6.342501    2.624612
     82          1           0       -9.934566    2.919164   -3.575067
     83          1           0       -9.980110    4.817743   -2.994800
     84          1           0       -9.584471    4.456619   -5.265233
     85          1           0       -8.023879    5.001865   -4.498397
     86          1           0       -8.141676    3.198720   -4.903540
     87          1           0       -8.023684   -1.117903   -4.801293
     88          1           0       -8.553528   -2.730064   -3.856742
     89          1           0       -9.495778   -1.222189   -3.510479
     90          1           0       -4.053191   -3.675907   -1.261326
     91          1           0        2.403740   -6.001829    0.896017
     92          1           0        2.015364   -5.132665   -0.699747
     93          1           0        3.703129   -4.317505    1.905136
     94          1           0        2.758408   -3.340524   -1.757352
     95          1           0        4.029301   -1.935333   -1.565620
     96          1           0        4.338753   -3.721769   -1.845409
     97          1           0        4.868164   -1.381733    0.572474
     98          1           0        5.141463   -2.583890    1.944848
     99          1           0        6.692061   -3.971941    0.189309
    100          1           0        6.141900   -2.415579   -0.882389
    101          1           0        7.162339   -0.903835    0.391297
    102          1           0        7.773238   -2.002654    1.745301
    103          1           0        8.787779   -1.967142   -0.929431
    104          1           0        8.881455   -4.346072   -0.154587
    105          1           0       10.407681   -3.326352   -0.248706
    106          1           0        9.719910   -3.505323    1.375109
    107          1           0        9.349880    0.197615    0.120071
    108          1           0       10.120030   -0.630571    1.673455
    109          1           0       11.871453   -1.766355   -0.135152
    110          1           0       11.101871   -0.753755   -1.327429
    111          1           0       11.629061    1.412301    0.092444
    112          1           0       12.386101    0.235445    1.443021
    113          1           0       13.114839    0.665537   -1.513535
    114          1           0       14.670457   -0.925899    0.704298
    115          1           0       13.891533   -1.481190   -0.998149
    116          1           0       15.344092   -0.528377   -0.715139
    117          1           0       13.589993    2.446964    0.008553
    118          1           0       14.601975    1.592906    0.935744
    119          1           0       16.265478    1.304661   -0.882963
    120          1           0       15.075319    2.020893   -2.019177
    121          1           0       15.356894    4.287237   -1.012846
    122          1           0       16.129585    3.347502    0.303627
    123          1           0       18.067922    3.073026   -1.227428
    124          1           0       16.360731    4.937410   -3.301967
    125          1           0       17.968803    4.208811   -3.530032
    126          1           0       16.724135    3.145223   -3.394670
    127          1           0       18.134593    5.267695    0.262456
    128          1           0       18.751250    5.626038   -1.450213
    129          1           0       16.906966    6.059277   -1.020160
    130          1           0       -4.618861   -7.809409    0.080119
    131          1           0       -6.225630   -7.293643    0.279680
    132          1           0       -4.795116   -6.850025    1.390320
    133          8           0       -7.655811    6.891314   -0.531018
    134          1           0       -9.075727    6.268014   -1.701482
 ---------------------------------------------------------------------

 SCF Done:  E(RCAM-B3LYP) =  -3043.48172214     A.U. after   16 cycles

 Excitation energies and oscillator strengths:

 Excited State   1:      Singlet-A      2.0582 eV  602.38 nm  f=0.1734  <S**2>=0.000
     243 -> 246       -0.26909
     244 -> 245        0.64682
 This state for optimization and/or second-order correction.
 Total Energy, E(TD-HF/TD-DFT) =  -3043.40608333
 Copying the excited state density for this state as the 1-particle RhoCI density.

 The electronic state is 1-A.
 Alpha  occ. eigenvalues --  -46.81310 -19.22495 -19.22147 -19.17901 -19.17702
 Alpha  occ. eigenvalues --  -19.17627 -19.17517 -19.15629 -14.39347 -14.36910
 Alpha  occ. eigenvalues --  -14.36686 -14.36113 -10.35724 -10.35214 -10.32208
 Alpha  occ. eigenvalues --  -10.29890 -10.28341 -10.28329 -10.28127 -10.27068
 Alpha  occ. eigenvalues --  -10.26696 -10.26441 -10.26383 -10.26375 -10.26232
 Alpha  occ. eigenvalues --  -10.26179 -10.25872 -10.25607 -10.25495 -10.25347
 Alpha  occ. eigenvalues --  -10.25097 -10.24982 -10.24725 -10.24680 -10.24580
 Alpha  occ. eigenvalues --  -10.24253 -10.24164 -10.24146 -10.23812 -10.23769
 Alpha  occ. eigenvalues --  -10.23631 -10.23620 -10.23473 -10.23461 -10.23104
 Alpha  occ. eigenvalues --  -10.22833 -10.22820 -10.22799 -10.22779 -10.22540
 Alpha  occ. eigenvalues --  -10.22380 -10.22190 -10.22151 -10.21792 -10.21613
 Alpha  occ. eigenvalues --  -10.21333 -10.20758 -10.20739 -10.20652 -10.20570
 Alpha  occ. eigenvalues --  -10.20522 -10.20364 -10.20167 -10.20097 -10.19467
 Alpha  occ. eigenvalues --  -10.19358  -3.09824  -1.84778  -1.84296  -1.84217
 Alpha  occ. eigenvalues --   -1.13679  -1.13466  -1.10608  -1.06554  -1.04986
 Alpha  occ. eigenvalues --   -1.03869  -1.01344  -1.00476  -1.00098  -0.98619
 Alpha  occ. eigenvalues --   -0.97822  -0.89672  -0.86314  -0.85658  -0.85618
 Alpha  occ. eigenvalues --   -0.85477  -0.84989  -0.84486  -0.83967  -0.83773
 Alpha  occ. eigenvalues --   -0.83396  -0.83100  -0.82209  -0.80767  -0.79722
 Alpha  occ. eigenvalues --   -0.79402  -0.78450  -0.78151  -0.77797  -0.76909
 Alpha  occ. eigenvalues --   -0.75886  -0.75583  -0.74660  -0.74195  -0.72856
 Alpha  occ. eigenvalues --   -0.71786  -0.70734  -0.70118  -0.69988  -0.69684
 Alpha  occ. eigenvalues --   -0.69603  -0.68491  -0.68303  -0.67278  -0.66468
 Alpha  occ. eigenvalues --   -0.65679  -0.64541  -0.64414  -0.62981  -0.62725
 Alpha  occ. eigenvalues --   -0.62082  -0.60773  -0.60102  -0.59189  -0.58907
 Alpha  occ. eigenvalues --   -0.58761  -0.58321  -0.58014  -0.57563  -0.57178
 Alpha  occ. eigenvalues --   -0.56286  -0.56060  -0.55815  -0.55431  -0.55120
 Alpha  occ. eigenvalues --   -0.54700  -0.54012  -0.53448  -0.52653  -0.52387
 Alpha  occ. eigenvalues --   -0.52148  -0.51573  -0.51290  -0.51108  -0.51045
 Alpha  occ. eigenvalues --   -0.50589  -0.50230  -0.50124  -0.49602  -0.49392
 Alpha  occ. eigenvalues --   -0.49162  -0.48659  -0.48459  -0.48353  -0.48311
 Alpha  occ. eigenvalues --   -0.47827  -0.47779  -0.47483  -0.47285  -0.46900
 Alpha  occ. eigenvalues --   -0.46422  -0.46410  -0.46272  -0.46087  -0.46025
 Alpha  occ. eigenvalues --   -0.45658  -0.45613  -0.45391  -0.45147  -0.44930
 Alpha  occ. eigenvalues --   -0.44836  -0.44573  -0.44381  -0.44237  -0.43779
 Alpha  occ. eigenvalues --   -0.43517  -0.43343  -0.43145  -0.42948  -0.42843
 Alpha  occ. eigenvalues --   -0.42566  -0.42501  -0.42390  -0.42237  -0.41691
 Alpha  occ. eigenvalues --   -0.41582  -0.41535  -0.41368  -0.41127  -0.41082
 Alpha  occ. eigenvalues --   -0.40769  -0.40745  -0.40443  -0.40258  -0.39702
 Alpha  occ. eigenvalues --   -0.39537  -0.39323  -0.39102  -0.39058  -0.38948
 Alpha  occ. eigenvalues --   -0.38650  -0.38512  -0.38338  -0.38268  -0.38027
 Alpha  occ. eigenvalues --   -0.37884  -0.37653  -0.37585  -0.37214  -0.36960
 Alpha  occ. eigenvalues --   -0.36689  -0.36461  -0.36339  -0.35994  -0.35881
 Alpha  occ. eigenvalues --   -0.35866  -0.35520  -0.35309  -0.34819  -0.34540
 Alpha  occ. eigenvalues --   -0.34441  -0.34163  -0.34100  -0.33873  -0.33573
 Alpha  occ. eigenvalues --   -0.33094  -0.32697  -0.32368  -0.32043  -0.31564
 Alpha  occ. eigenvalues --   -0.31413  -0.31306  -0.30950  -0.30157  -0.29397
 Alpha  occ. eigenvalues --   -0.29011  -0.28545  -0.27943  -0.27808  -0.27151
 Alpha  occ. eigenvalues --   -0.26681  -0.26183  -0.23433  -0.21781
 Alpha virt. eigenvalues --   -0.08443  -0.06665  -0.02391  -0.00961   0.00338
 Alpha virt. eigenvalues --    0.01621   0.03163   0.03347   0.03445   0.03755
 Alpha virt. eigenvalues --    0.04775   0.05737   0.07061   0.08457   0.08678

 Mulliken charges:
               1
     1  Mg   0.811169
     2  C    0.048992
     3  C   -0.187606
     4  C   -0.178966
     5  C   -0.169748
     6  N   -0.620633
     7  C    0.275414
     8  C   -0.111993
     9  C   -0.151103
    10  C    0.328880
    11  C   -0.307148
    12  C   -0.204561
    13  C   -0.240484
    14  C    0.606254
    15  O   -0.488785
    16  O   -0.444432
    17  N   -0.706013
    18  C    0.345192
    19  C    0.032547
    20  C   -0.005422
    21  C    0.314799
    22  C   -0.398545
    23  C    0.233797
    24  O   -0.471601
    25  N   -0.723741
    26  C    0.297691
    27  C   -0.042004
    28  C    0.030755
    29  C    0.313391
    30  C    0.265202
    31  C   -0.262398
    32  C   -0.275866
    33  N   -0.731097
    34  C    0.281681
    35  C    0.028874
    36  C    0.016621
    37  C    0.346565
    38  C   -0.363787
    39  C    0.368498
    40  O   -0.463847
    41  C   -0.317505
    42  C    0.618779
    43  O   -0.454604
    44  O   -0.474590
    45  C   -0.086031
    46  C    0.009275
    47  C   -0.125766
    48  C    0.141642
    49  C   -0.360616
    50  C   -0.244226
    51  C   -0.188554
    52  C   -0.131158
    53  C   -0.049329
    54  C   -0.302124
    55  C   -0.163579
    56  C   -0.181711
    57  C   -0.164668
    58  C   -0.065684
    59  C   -0.301438
    60  C   -0.187185
    61  C   -0.175033
    62  C   -0.148468
    63  C   -0.049423
    64  C   -0.314582
    65  C   -0.281861
    66  H    0.077387
    67  H    0.136889
    68  H    0.078083
    69  H    0.132385
    70  H    0.108369
    71  H    0.110146
    72  H    0.106347
    73  H    0.125702
    74  H    0.130757
    75  H    0.106748
    76  H    0.105601
    77  H    0.145506
    78  H    0.131534
    79  H    0.169201
    80  H    0.124460
    81  H    0.094686
    82  H    0.102158
    83  H    0.090149
    84  H    0.097524
    85  H    0.124598
    86  H    0.087402
    87  H    0.114177
    88  H    0.155539
    89  H    0.138922
    90  H    0.166925
    91  H    0.108514
    92  H    0.096239
    93  H    0.078171
    94  H    0.155836
    95  H    0.069289
    96  H    0.135379
    97  H    0.113372
    98  H    0.087225
    99  H    0.087643
   100  H    0.103131
   101  H    0.074682
   102  H    0.095201
   103  H    0.092061
   104  H    0.079409
   105  H    0.111466
   106  H    0.093053
   107  H    0.071570
   108  H    0.058641
   109  H    0.095822
   110  H    0.077300
   111  H    0.085940
   112  H    0.078772
   113  H    0.073651
   114  H    0.105265
   115  H    0.096533
   116  H    0.107491
   117  H    0.081499
   118  H    0.078954
   119  H    0.098345
   120  H    0.094117
   121  H    0.074308
   122  H    0.091266
   123  H    0.093368
   124  H    0.092291
   125  H    0.107070
   126  H    0.090408
   127  H    0.068606
   128  H    0.089740
   129  H    0.093295
   130  H    0.131096
   131  H    0.132225
   132  H    0.140377
   133  O   -0.390132
   134  H    0.042216
 Sum of Mulliken charges =  -0.00000

 Dipole moment (field-independent basis, Debye):
    X=              1.9406    Y=             -6.7645    Z=             -1.1876  Tot=              7.1368
 Quadrupole moment (field-independent basis, Debye-Ang):
   XX=           -364.0125   YY=           -444.1174   ZZ=           -395.5549
   XY=              8.5637   XZ=             17.2318   YZ=            -39.1492

 Normal termination of Gaussian 16 at Thu Oct 10 12:57:59 2019.
