 Gaussian 16, Revision A.03,
 Gaussian 16:  ES64L-G16RevA.03 25-Dec-2016

 ----------------------------------------------------------------------
 # td=(NStates=1) iop(3/107=0140000000,3/108=0140000000) iop(3/107=0140
 000000,3/108=0140000000) CAM-B3LYP/6-31G(d,p)
 ----------------------------------------------------------------------

 --
 TD
 --
 Symbolic Z-matrix:
 Charge =  0 Multiplicity = 1

                         Standard orientation:
 ---------------------------------------------------------------------
 Center     Atomic      Atomic             Coordinates (Angstroms)
 Number     Number       Type             X           Y           Z
 ---------------------------------------------------------------------
      1         12           0       -5.700600    1.276582    0.217512
      2          6           0       -5.096246   -2.051699   -0.348320
      3          6           0       -3.382709    1.085418    2.759927
      4          6           0       -6.167737    4.458386    0.560752
      5          6           0       -8.085015    1.152839   -2.341092
      6          7           0       -4.500084   -0.236729    1.135010
      7          6           0       -4.338406   -1.667926    0.741216
      8          6           0       -3.168925   -2.309845    1.453237
      9          6           0       -2.867804   -1.289256    2.567203
     10          6           0       -3.551005   -0.045283    2.177915
     11          6           0       -3.405751   -1.664567    4.010841
     12          6           0       -1.962244   -2.668286    0.506558
     13          6           0       -0.914213   -3.375356    1.467246
     14          6           0        0.249101   -3.880884    0.532559
     15          8           0        0.444052   -3.474217   -0.568733
     16          8           0        1.040280   -4.828241    1.077802
     17          7           0       -4.898003    2.568760    1.485482
     18          6           0       -3.916622    2.401785    2.438243
     19          6           0       -3.636303    3.678658    3.094130
     20          6           0       -4.391382    4.612478    2.461020
     21          6           0       -5.169504    3.850372    1.471879
     22          6           0       -2.596376    3.844572    4.149563
     23          6           0       -4.412370    6.052117    2.771653
     24          8           0       -3.852645    6.578290    3.753589
     25          7           0       -6.881466    2.644150   -0.666216
     26          6           0       -6.909757    3.953968   -0.495247
     27          6           0       -7.952829    4.645452   -1.163803
     28          6           0       -8.537667    3.651158   -1.893372
     29          6           0       -7.863963    2.380974   -1.651994
     30          6           0       -8.418757    6.021529   -0.999430
     31          6           0       -9.564052    3.769966   -3.021217
     32          6           0       -8.799525    4.104311   -4.341960
     33          7           0       -6.482994   -0.115489   -1.084231
     34          6           0       -7.438302   -0.049420   -2.097968
     35          6           0       -7.574667   -1.305420   -2.672553
     36          6           0       -6.661916   -2.140641   -2.067732
     37          6           0       -6.028722   -1.341495   -1.093624
     38          6           0       -8.504017   -1.694025   -3.860339
     39          6           0       -6.205551   -3.519791   -1.979334
     40          8           0       -6.467578   -4.466951   -2.594153
     41          6           0       -5.053255   -3.475697   -0.878801
     42          6           0       -5.385286   -4.587885    0.151222
     43          8           0       -5.982504   -4.495442    1.210961
     44          8           0       -5.093672   -5.812385   -0.414634
     45          6           0       -5.554613   -6.929533    0.508399
     46          6           0        2.310690   -5.197113    0.438986
     47          6           0        3.318826   -4.194116    0.873655
     48          6           0        4.039504   -3.364866    0.190974
     49          6           0        3.823487   -3.240123   -1.347459
     50          6           0        5.147077   -2.454495    0.618557
     51          6           0        6.578719   -2.657387    0.048891
     52          6           0        7.702729   -1.923423    0.734548
     53          6           0        9.111343   -2.027101    0.145903
     54          6           0        9.569570   -3.500610    0.427281
     55          6           0       10.044746   -0.959594    0.550075
     56          6           0       11.383576   -0.937005   -0.266801
     57          6           0       12.197166    0.300170    0.181867
     58          6           0       13.568568    0.532163   -0.511401
     59          6           0       14.434324   -0.684880   -0.530618
     60          6           0       14.342592    1.835975   -0.157393
     61          6           0       15.528127    2.118031   -1.000646
     62          6           0       16.090675    3.548000   -0.630749
     63          6           0       17.314755    3.872720   -1.328313
     64          6           0       17.065417    4.109458   -2.966205
     65          6           0       17.926125    5.204827   -0.895273
     66          1           0       -2.575604    1.063627    3.578339
     67          1           0       -6.180065    5.540178    0.777400
     68          1           0       -8.924427    1.063476   -3.056394
     69          1           0       -3.516509   -3.347661    1.924155
     70          1           0       -1.771198   -1.163395    2.591204
     71          1           0       -2.801028   -2.522152    4.297354
     72          1           0       -3.257250   -0.891145    4.729248
     73          1           0       -4.525278   -1.991293    4.047020
     74          1           0       -2.185537   -3.286284   -0.229271
     75          1           0       -1.659651   -1.719890    0.052499
     76          1           0       -0.520160   -2.957274    2.451973
     77          1           0       -1.212312   -4.348696    1.993410
     78          1           0       -1.693652    3.563040    3.850471
     79          1           0       -2.807018    4.802208    4.533927
     80          1           0       -2.862199    3.308754    5.063268
     81          1           0       -5.046086    6.741231    1.986721
     82          1           0      -10.027262    2.907254   -3.104688
     83          1           0      -10.249467    4.514340   -2.783665
     84          1           0       -9.378620    4.077371   -5.209697
     85          1           0       -8.361559    5.218010   -4.459546
     86          1           0       -8.124854    3.287039   -4.506517
     87          1           0       -7.981965   -0.966359   -4.619548
     88          1           0       -8.535147   -2.796126   -4.090214
     89          1           0       -9.572755   -1.219549   -3.580966
     90          1           0       -4.166112   -3.957320   -1.347790
     91          1           0        2.498101   -6.161174    0.955802
     92          1           0        2.279533   -5.089157   -0.699316
     93          1           0        3.615362   -4.485215    2.057297
     94          1           0        2.730331   -3.361466   -1.531990
     95          1           0        3.755612   -2.208921   -1.745576
     96          1           0        4.449518   -3.922986   -2.028824
     97          1           0        4.594693   -1.348048    0.573411
     98          1           0        5.342157   -2.741624    1.809323
     99          1           0        6.826388   -3.853890    0.481721
    100          1           0        6.688100   -2.594890   -1.021503
    101          1           0        7.508644   -0.845067    0.688708
    102          1           0        7.751809   -2.003870    1.765161
    103          1           0        8.904770   -1.936977   -0.968134
    104          1           0        9.089141   -4.430082   -0.232179
    105          1           0       10.762176   -3.702581    0.185013
    106          1           0        9.667507   -3.613932    1.550076
    107          1           0        9.477382   -0.025181    0.552146
    108          1           0       10.242430   -0.999422    1.631477
    109          1           0       12.039926   -1.690299   -0.014289
    110          1           0       11.184236   -0.877030   -1.249582
    111          1           0       11.497903    1.257764    0.260899
    112          1           0       12.351044    0.422422    1.381242
    113          1           0       13.230022    0.635163   -1.529159
    114          1           0       14.972514   -0.603518    0.355812
    115          1           0       13.994538   -1.470840   -0.791592
    116          1           0       15.206930   -0.302604   -1.367280
    117          1           0       13.512966    2.525376   -0.615206
    118          1           0       14.634909    1.669644    0.940491
    119          1           0       16.426631    1.418594   -0.819402
    120          1           0       15.201109    1.715813   -1.942653
    121          1           0       15.073692    4.057419   -0.886877
    122          1           0       16.052374    3.675481    0.384664
    123          1           0       18.064186    3.045541   -1.359056
    124          1           0       16.171131    4.768064   -2.923793
    125          1           0       17.964588    4.600344   -3.486671
    126          1           0       16.782094    3.205458   -3.425221
    127          1           0       18.137595    5.274564    0.107168
    128          1           0       19.000235    5.548333   -1.312775
    129          1           0       16.983664    5.853008   -1.085137
    130          1           0       -5.463983   -7.741836   -0.293038
    131          1           0       -6.640277   -6.592084    0.801333
    132          1           0       -5.203914   -6.890593    1.435906
    133          8           0       -7.793821    6.891234   -0.397009
    134          1           0       -9.419647    6.133183   -1.676061
 ---------------------------------------------------------------------

 SCF Done:  E(RCAM-B3LYP) =  -3043.40568621     A.U. after   16 cycles

 Excitation energies and oscillator strengths:

 Excited State   1:      Singlet-A      2.0337 eV  609.66 nm  f=0.1837  <S**2>=0.000
     243 -> 246        0.26150
     244 -> 245        0.64645
 This state for optimization and/or second-order correction.
 Total Energy, E(TD-HF/TD-DFT) =  -3043.33094992
 Copying the excited state density for this state as the 1-particle RhoCI density.

 The electronic state is 1-A.
 Alpha  occ. eigenvalues --  -46.80959 -19.21838 -19.21434 -19.18183 -19.17548
 Alpha  occ. eigenvalues --  -19.17304 -19.17139 -19.16900 -14.38224 -14.37264
 Alpha  occ. eigenvalues --  -14.37106 -14.36099 -10.34774 -10.34545 -10.31972
 Alpha  occ. eigenvalues --  -10.31637 -10.30977 -10.28367 -10.27639 -10.27127
 Alpha  occ. eigenvalues --  -10.26877 -10.26871 -10.26851 -10.25954 -10.25832
 Alpha  occ. eigenvalues --  -10.25701 -10.25624 -10.25488 -10.25385 -10.25266
 Alpha  occ. eigenvalues --  -10.25136 -10.24816 -10.24813 -10.24744 -10.24426
 Alpha  occ. eigenvalues --  -10.24422 -10.24100 -10.23823 -10.23793 -10.23767
 Alpha  occ. eigenvalues --  -10.23467 -10.23435 -10.23191 -10.23184 -10.22852
 Alpha  occ. eigenvalues --  -10.22681 -10.22415 -10.22412 -10.22357 -10.22296
 Alpha  occ. eigenvalues --  -10.22295 -10.22244 -10.22102 -10.21898 -10.21570
 Alpha  occ. eigenvalues --  -10.21426 -10.21208 -10.21072 -10.21054 -10.20844
 Alpha  occ. eigenvalues --  -10.20720 -10.20426 -10.20417 -10.20202 -10.19751
 Alpha  occ. eigenvalues --  -10.18661  -3.09672  -1.84604  -1.84162  -1.84080
 Alpha  occ. eigenvalues --   -1.13303  -1.11666  -1.10319  -1.06846  -1.05377
 Alpha  occ. eigenvalues --   -1.04794  -1.03107  -1.01625  -1.01210  -1.00330
 Alpha  occ. eigenvalues --   -0.96338  -0.88590  -0.86475  -0.86015  -0.85926
 Alpha  occ. eigenvalues --   -0.85342  -0.85044  -0.84423  -0.84151  -0.83738
 Alpha  occ. eigenvalues --   -0.83619  -0.82923  -0.81098  -0.80576  -0.79580
 Alpha  occ. eigenvalues --   -0.79360  -0.78515  -0.77588  -0.76963  -0.76424
 Alpha  occ. eigenvalues --   -0.75403  -0.75071  -0.73662  -0.72725  -0.71763
 Alpha  occ. eigenvalues --   -0.71001  -0.70634  -0.70028  -0.69834  -0.69751
 Alpha  occ. eigenvalues --   -0.69735  -0.69506  -0.68048  -0.67704  -0.66775
 Alpha  occ. eigenvalues --   -0.66291  -0.66144  -0.64293  -0.62673  -0.62468
 Alpha  occ. eigenvalues --   -0.61496  -0.61004  -0.60018  -0.59643  -0.59235
 Alpha  occ. eigenvalues --   -0.58728  -0.58321  -0.57944  -0.57292  -0.56758
 Alpha  occ. eigenvalues --   -0.56288  -0.55796  -0.54977  -0.54592  -0.54203
 Alpha  occ. eigenvalues --   -0.53487  -0.53194  -0.52638  -0.51783  -0.51727
 Alpha  occ. eigenvalues --   -0.51614  -0.51320  -0.50880  -0.50784  -0.50648
 Alpha  occ. eigenvalues --   -0.50229  -0.49908  -0.49847  -0.49208  -0.48990
 Alpha  occ. eigenvalues --   -0.48817  -0.48665  -0.48419  -0.48159  -0.47853
 Alpha  occ. eigenvalues --   -0.47794  -0.47429  -0.47425  -0.47189  -0.47011
 Alpha  occ. eigenvalues --   -0.46737  -0.46614  -0.46363  -0.46241  -0.46123
 Alpha  occ. eigenvalues --   -0.45978  -0.45835  -0.45505  -0.45337  -0.45249
 Alpha  occ. eigenvalues --   -0.45037  -0.44730  -0.44368  -0.44210  -0.43970
 Alpha  occ. eigenvalues --   -0.43837  -0.43668  -0.43234  -0.42900  -0.42811
 Alpha  occ. eigenvalues --   -0.42608  -0.42504  -0.42426  -0.42027  -0.41834
 Alpha  occ. eigenvalues --   -0.41702  -0.41568  -0.41154  -0.40952  -0.40759
 Alpha  occ. eigenvalues --   -0.40755  -0.40606  -0.40490  -0.40251  -0.40098
 Alpha  occ. eigenvalues --   -0.39994  -0.39780  -0.39697  -0.39370  -0.39306
 Alpha  occ. eigenvalues --   -0.39034  -0.38893  -0.38654  -0.38386  -0.38022
 Alpha  occ. eigenvalues --   -0.37872  -0.37744  -0.37616  -0.37230  -0.37107
 Alpha  occ. eigenvalues --   -0.37049  -0.36779  -0.36560  -0.36290  -0.35900
 Alpha  occ. eigenvalues --   -0.35477  -0.35185  -0.35123  -0.35018  -0.34381
 Alpha  occ. eigenvalues --   -0.34057  -0.33753  -0.33424  -0.32769  -0.32762
 Alpha  occ. eigenvalues --   -0.32530  -0.32328  -0.31776  -0.31660  -0.30995
 Alpha  occ. eigenvalues --   -0.30820  -0.30777  -0.30558  -0.30469  -0.29930
 Alpha  occ. eigenvalues --   -0.29198  -0.28947  -0.28612  -0.28607  -0.28164
 Alpha  occ. eigenvalues --   -0.27814  -0.27690  -0.22701  -0.21952
 Alpha virt. eigenvalues --   -0.08874  -0.06414  -0.01137  -0.00843   0.00809
 Alpha virt. eigenvalues --    0.03133   0.03427   0.03987   0.04276   0.04763
 Alpha virt. eigenvalues --    0.05009   0.06078   0.08158   0.08417   0.09069

 Mulliken charges:
               1
     1  Mg   0.820596
     2  C    0.066803
     3  C   -0.213680
     4  C   -0.176069
     5  C   -0.187420
     6  N   -0.630721
     7  C    0.282645
     8  C   -0.160140
     9  C   -0.148930
    10  C    0.406721
    11  C   -0.313193
    12  C   -0.146378
    13  C   -0.293147
    14  C    0.591316
    15  O   -0.450732
    16  O   -0.474711
    17  N   -0.694723
    18  C    0.262288
    19  C    0.030505
    20  C   -0.004695
    21  C    0.309017
    22  C   -0.377257
    23  C    0.234621
    24  O   -0.422578
    25  N   -0.679858
    26  C    0.305404
    27  C    0.042595
    28  C   -0.030849
    29  C    0.289198
    30  C    0.252317
    31  C   -0.220390
    32  C   -0.315073
    33  N   -0.751045
    34  C    0.300946
    35  C   -0.019518
    36  C    0.019877
    37  C    0.346153
    38  C   -0.354449
    39  C    0.373403
    40  O   -0.408922
    41  C   -0.347744
    42  C    0.602602
    43  O   -0.484126
    44  O   -0.466637
    45  C   -0.095001
    46  C   -0.001045
    47  C   -0.106887
    48  C    0.152511
    49  C   -0.403650
    50  C   -0.202033
    51  C   -0.153807
    52  C   -0.166023
    53  C   -0.044603
    54  C   -0.301358
    55  C   -0.186872
    56  C   -0.160639
    57  C   -0.180570
    58  C   -0.102267
    59  C   -0.267838
    60  C   -0.171684
    61  C   -0.187890
    62  C   -0.149682
    63  C   -0.076632
    64  C   -0.313929
    65  C   -0.291430
    66  H    0.073690
    67  H    0.109367
    68  H    0.093649
    69  H    0.109140
    70  H    0.109374
    71  H    0.105275
    72  H    0.124465
    73  H    0.125498
    74  H    0.134469
    75  H    0.131781
    76  H    0.141045
    77  H    0.130742
    78  H    0.135109
    79  H    0.159412
    80  H    0.117523
    81  H    0.075890
    82  H    0.113499
    83  H    0.112152
    84  H    0.116957
    85  H    0.102169
    86  H    0.116559
    87  H    0.127741
    88  H    0.153411
    89  H    0.107456
    90  H    0.153881
    91  H    0.126030
    92  H    0.130392
    93  H    0.053362
    94  H    0.139765
    95  H    0.110428
    96  H    0.118165
    97  H    0.087227
    98  H    0.067096
    99  H    0.065348
   100  H    0.103858
   101  H    0.078363
   102  H    0.096468
   103  H    0.072087
   104  H    0.096325
   105  H    0.063461
   106  H    0.101838
   107  H    0.096415
   108  H    0.090577
   109  H    0.118443
   110  H    0.108107
   111  H    0.063533
   112  H    0.050892
   113  H    0.079719
   114  H    0.106131
   115  H    0.102044
   116  H    0.071754
   117  H    0.096372
   118  H    0.088847
   119  H    0.077393
   120  H    0.102959
   121  H    0.079351
   122  H    0.110635
   123  H    0.088719
   124  H    0.098952
   125  H    0.097941
   126  H    0.106185
   127  H    0.104413
   128  H    0.082557
   129  H    0.090313
   130  H    0.136350
   131  H    0.129064
   132  H    0.147017
   133  O   -0.421263
   134  H    0.053420
 Sum of Mulliken charges =  -0.00000

 Dipole moment (field-independent basis, Debye):
    X=              1.7626    Y=             -4.7490    Z=             -1.1981  Tot=              5.2053
 Quadrupole moment (field-independent basis, Debye-Ang):
   XX=           -373.7663   YY=           -447.1537   ZZ=           -393.4565
   XY=              2.2072   XZ=             27.5614   YZ=            -32.2281

 Normal termination of Gaussian 16 at Tue Oct  8 03:45:02 2019.
