 Gaussian 16, Revision A.03,
 Gaussian 16:  ES64L-G16RevA.03 25-Dec-2016

 ----------------------------------------------------------------------
 # td=(NStates=1) iop(3/107=0140000000,3/108=0140000000) iop(3/107=0140
 000000,3/108=0140000000) CAM-B3LYP/6-31G(d,p)
 ----------------------------------------------------------------------

 --
 TD
 --
 Symbolic Z-matrix:
 Charge =  0 Multiplicity = 1

                         Standard orientation:
 ---------------------------------------------------------------------
 Center     Atomic      Atomic             Coordinates (Angstroms)
 Number     Number       Type             X           Y           Z
 ---------------------------------------------------------------------
      1         12           0       -5.648972    1.182693    0.248391
      2          6           0       -5.028822   -2.166542   -0.372473
      3          6           0       -3.455117    1.151612    2.807128
      4          6           0       -6.344036    4.582380    0.721802
      5          6           0       -7.959706    1.149605   -2.470254
      6          7           0       -4.454445   -0.289587    1.132579
      7          6           0       -4.243195   -1.619729    0.757160
      8          6           0       -3.245688   -2.341270    1.497313
      9          6           0       -2.993686   -1.317480    2.734488
     10          6           0       -3.606427   -0.088119    2.192756
     11          6           0       -3.501827   -1.752481    4.073429
     12          6           0       -1.897060   -2.569328    0.708411
     13          6           0       -0.963038   -3.564284    1.308082
     14          6           0        0.217539   -3.899073    0.508555
     15          8           0        0.476141   -3.351488   -0.542605
     16          8           0        1.008567   -4.810649    1.181343
     17          7           0       -4.967121    2.611541    1.422283
     18          6           0       -4.124687    2.409290    2.473850
     19          6           0       -3.873977    3.673598    3.200191
     20          6           0       -4.646762    4.600671    2.569395
     21          6           0       -5.368934    4.028263    1.594028
     22          6           0       -2.883542    3.768052    4.369654
     23          6           0       -4.826504    5.996674    2.966261
     24          8           0       -4.229731    6.525332    3.954319
     25          7           0       -6.888982    2.652319   -0.667295
     26          6           0       -6.953551    3.928289   -0.307475
     27          6           0       -7.817129    4.633293   -1.283683
     28          6           0       -8.389740    3.636226   -2.100454
     29          6           0       -7.715258    2.410825   -1.741978
     30          6           0       -8.228231    6.055922   -1.344869
     31          6           0       -9.274162    3.795455   -3.330276
     32          6           0       -8.687653    4.080585   -4.597102
     33          7           0       -6.398714   -0.063679   -1.068018
     34          6           0       -7.299625   -0.077479   -2.066463
     35          6           0       -7.421918   -1.376645   -2.761506
     36          6           0       -6.728581   -2.245655   -2.006067
     37          6           0       -6.012695   -1.421181   -1.017273
     38          6           0       -8.445584   -1.579351   -3.875708
     39          6           0       -6.165132   -3.635363   -1.973420
     40          8           0       -6.548315   -4.514979   -2.579469
     41          6           0       -5.047221   -3.597668   -0.959377
     42          6           0       -5.360757   -4.699118    0.081504
     43          8           0       -5.864334   -4.584374    1.110817
     44          8           0       -4.976625   -5.869006   -0.472525
     45          6           0       -5.280832   -7.030852    0.360823
     46          6           0        2.311737   -4.983765    0.576028
     47          6           0        3.380310   -4.088040    1.009454
     48          6           0        3.990060   -3.187943    0.209431
     49          6           0        3.641587   -3.016142   -1.235041
     50          6           0        5.076733   -2.279970    0.777460
     51          6           0        6.496775   -2.611033    0.122516
     52          6           0        7.622630   -1.772619    0.635604
     53          6           0        8.987394   -1.862740   -0.074625
     54          6           0        9.578514   -3.396523    0.202201
     55          6           0        9.937497   -0.881756    0.481380
     56          6           0       11.336897   -0.874112   -0.152803
     57          6           0       12.129458    0.346800    0.285574
     58          6           0       13.638884    0.460916   -0.577437
     59          6           0       14.529800   -0.723408   -0.385776
     60          6           0       14.348896    1.722450   -0.187251
     61          6           0       15.569582    2.124748   -1.070780
     62          6           0       16.044403    3.563707   -0.723964
     63          6           0       17.450381    3.806466   -1.434494
     64          6           0       17.309620    4.017491   -2.920476
     65          6           0       18.135055    5.038731   -0.781025
     66          1           0       -2.938302    1.237751    3.732092
     67          1           0       -6.645750    5.685205    0.862002
     68          1           0       -8.598039    1.202323   -3.308835
     69          1           0       -3.509542   -3.172604    2.000371
     70          1           0       -1.903554   -0.873944    2.701681
     71          1           0       -3.071333   -2.696901    4.293420
     72          1           0       -3.265642   -1.121773    4.959980
     73          1           0       -4.586614   -1.763037    4.155057
     74          1           0       -2.034561   -3.144039   -0.395050
     75          1           0       -1.489158   -1.631270    0.478489
     76          1           0       -0.479083   -2.995880    2.140670
     77          1           0       -1.430119   -4.493234    1.849684
     78          1           0       -1.884700    3.387831    4.089980
     79          1           0       -3.017954    4.708484    4.735688
     80          1           0       -3.167615    3.046966    5.026541
     81          1           0       -5.572701    6.439097    2.348288
     82          1           0       -9.924887    2.799047   -3.586449
     83          1           0      -10.049288    4.570850   -3.051864
     84          1           0       -9.336168    4.061861   -5.500676
     85          1           0       -8.023353    4.999684   -4.482016
     86          1           0       -8.007404    3.302117   -5.075988
     87          1           0       -8.301407   -0.842996   -4.720304
     88          1           0       -8.558370   -2.698837   -4.064591
     89          1           0       -9.368595   -1.140067   -3.485384
     90          1           0       -4.247957   -4.061558   -1.466711
     91          1           0        2.591261   -5.866589    0.850033
     92          1           0        2.149346   -5.226046   -0.477495
     93          1           0        3.497050   -4.188852    2.114890
     94          1           0        2.831577   -3.521592   -1.568339
     95          1           0        3.669617   -1.849279   -1.524416
     96          1           0        4.604288   -3.502456   -1.846762
     97          1           0        4.994928   -1.323327    0.543705
     98          1           0        5.224527   -2.482869    1.829379
     99          1           0        6.550291   -3.621887    0.331599
    100          1           0        6.282950   -2.666741   -1.049547
    101          1           0        7.239303   -0.617289    0.576864
    102          1           0        7.730030   -2.094112    1.830062
    103          1           0        8.690138   -1.654468   -1.021583
    104          1           0        8.877250   -4.063827   -0.134009
    105          1           0       10.559109   -3.560190   -0.374872
    106          1           0        9.886444   -3.167906    1.277714
    107          1           0        9.595248    0.123847    0.515230
    108          1           0       10.135914   -1.104599    1.555847
    109          1           0       11.848697   -1.736823    0.086208
    110          1           0       11.229649   -0.870488   -1.188720
    111          1           0       11.584461    1.158029   -0.056627
    112          1           0       12.510105    0.483118    1.354056
    113          1           0       13.245250    0.348385   -1.652210
    114          1           0       15.068352   -0.775631    0.628418
    115          1           0       13.998154   -1.717228   -0.416919
    116          1           0       15.225794   -0.673619   -1.120229
    117          1           0       13.661830    2.594267   -0.312164
    118          1           0       14.548894    1.475979    0.838762
    119          1           0       16.426301    1.426039   -0.764404
    120          1           0       15.415370    1.942084   -2.101710
    121          1           0       15.265364    4.497546   -0.849204
    122          1           0       16.386198    3.520532    0.280855
    123          1           0       17.947065    2.847981   -1.036368
    124          1           0       16.691445    4.826259   -2.968733
    125          1           0       18.308259    4.139734   -3.202754
    126          1           0       16.740745    3.142736   -3.281638
    127          1           0       18.312060    4.778928    0.334606
    128          1           0       19.146726    5.499372   -0.953656
    129          1           0       17.514970    5.847258   -0.993599
    130          1           0       -5.149189   -7.914083   -0.338531
    131          1           0       -6.252015   -7.108500    0.785665
    132          1           0       -4.646776   -7.162419    1.208579
    133          8           0       -7.726588    6.876571   -0.573641
    134          1           0       -8.741373    6.341645   -2.122071
 ---------------------------------------------------------------------

 SCF Done:  E(RCAM-B3LYP) =  -3043.49212437     A.U. after   16 cycles

 Excitation energies and oscillator strengths:

 Excited State   1:      Singlet-A      1.9829 eV  625.27 nm  f=0.1498  <S**2>=0.000
     243 -> 246       -0.27196
     244 -> 245        0.64412
 This state for optimization and/or second-order correction.
 Total Energy, E(TD-HF/TD-DFT) =  -3043.41925502
 Copying the excited state density for this state as the 1-particle RhoCI density.

 The electronic state is 1-A.
 Alpha  occ. eigenvalues --  -46.80446 -19.23166 -19.22376 -19.18313 -19.18022
 Alpha  occ. eigenvalues --  -19.17870 -19.16848 -19.16444 -14.39516 -14.37105
 Alpha  occ. eigenvalues --  -14.36361 -14.36094 -10.35258 -10.35121 -10.31442
 Alpha  occ. eigenvalues --  -10.29770 -10.28963 -10.28815 -10.27503 -10.26970
 Alpha  occ. eigenvalues --  -10.26496 -10.26480 -10.26124 -10.26031 -10.25535
 Alpha  occ. eigenvalues --  -10.25357 -10.25273 -10.25081 -10.24976 -10.24975
 Alpha  occ. eigenvalues --  -10.24717 -10.24712 -10.24687 -10.24460 -10.24367
 Alpha  occ. eigenvalues --  -10.24264 -10.23700 -10.23669 -10.23627 -10.23498
 Alpha  occ. eigenvalues --  -10.23435 -10.23391 -10.22679 -10.22621 -10.22436
 Alpha  occ. eigenvalues --  -10.22343 -10.22160 -10.22140 -10.21908 -10.21743
 Alpha  occ. eigenvalues --  -10.21662 -10.21479 -10.21404 -10.21370 -10.21356
 Alpha  occ. eigenvalues --  -10.21315 -10.21252 -10.20752 -10.20748 -10.20447
 Alpha  occ. eigenvalues --  -10.20106 -10.20043 -10.19935 -10.19633 -10.19260
 Alpha  occ. eigenvalues --  -10.18684  -3.09239  -1.84156  -1.83703  -1.83685
 Alpha  occ. eigenvalues --   -1.15803  -1.12856  -1.12843  -1.07350  -1.05635
 Alpha  occ. eigenvalues --   -1.05375  -1.03506  -1.00455  -0.99620  -0.98962
 Alpha  occ. eigenvalues --   -0.97367  -0.88687  -0.86737  -0.86176  -0.85248
 Alpha  occ. eigenvalues --   -0.85006  -0.84527  -0.84336  -0.83527  -0.83160
 Alpha  occ. eigenvalues --   -0.82843  -0.82594  -0.81878  -0.80843  -0.80387
 Alpha  occ. eigenvalues --   -0.78921  -0.78592  -0.78099  -0.76878  -0.76702
 Alpha  occ. eigenvalues --   -0.75779  -0.75188  -0.74580  -0.73678  -0.71699
 Alpha  occ. eigenvalues --   -0.71467  -0.71076  -0.70366  -0.70102  -0.69731
 Alpha  occ. eigenvalues --   -0.69578  -0.68758  -0.67817  -0.66862  -0.66661
 Alpha  occ. eigenvalues --   -0.65435  -0.65088  -0.64134  -0.62992  -0.62729
 Alpha  occ. eigenvalues --   -0.61403  -0.60978  -0.60946  -0.59658  -0.59065
 Alpha  occ. eigenvalues --   -0.58956  -0.58176  -0.57811  -0.57327  -0.56949
 Alpha  occ. eigenvalues --   -0.56758  -0.56686  -0.55302  -0.55004  -0.54651
 Alpha  occ. eigenvalues --   -0.54469  -0.53808  -0.53025  -0.52512  -0.52233
 Alpha  occ. eigenvalues --   -0.52081  -0.51945  -0.51872  -0.51546  -0.51074
 Alpha  occ. eigenvalues --   -0.50847  -0.50233  -0.50089  -0.49624  -0.49592
 Alpha  occ. eigenvalues --   -0.49273  -0.49002  -0.48652  -0.48170  -0.48082
 Alpha  occ. eigenvalues --   -0.47706  -0.47542  -0.47396  -0.47074  -0.46962
 Alpha  occ. eigenvalues --   -0.46617  -0.46459  -0.46350  -0.46110  -0.45673
 Alpha  occ. eigenvalues --   -0.45490  -0.45434  -0.45346  -0.45011  -0.44996
 Alpha  occ. eigenvalues --   -0.44798  -0.44660  -0.44305  -0.44060  -0.44045
 Alpha  occ. eigenvalues --   -0.43894  -0.43743  -0.43693  -0.43632  -0.43283
 Alpha  occ. eigenvalues --   -0.43014  -0.42783  -0.42537  -0.42422  -0.42098
 Alpha  occ. eigenvalues --   -0.42064  -0.41928  -0.41664  -0.41540  -0.41276
 Alpha  occ. eigenvalues --   -0.40842  -0.40740  -0.40597  -0.40489  -0.40263
 Alpha  occ. eigenvalues --   -0.40240  -0.40052  -0.39845  -0.39785  -0.39755
 Alpha  occ. eigenvalues --   -0.39226  -0.39070  -0.38675  -0.38583  -0.38502
 Alpha  occ. eigenvalues --   -0.38293  -0.37931  -0.37292  -0.37134  -0.36917
 Alpha  occ. eigenvalues --   -0.36670  -0.36385  -0.36144  -0.36103  -0.35675
 Alpha  occ. eigenvalues --   -0.35481  -0.35427  -0.35090  -0.34937  -0.34742
 Alpha  occ. eigenvalues --   -0.34531  -0.34245  -0.34132  -0.34025  -0.33664
 Alpha  occ. eigenvalues --   -0.33371  -0.33081  -0.32372  -0.32181  -0.31433
 Alpha  occ. eigenvalues --   -0.31386  -0.31319  -0.30737  -0.29641  -0.29147
 Alpha  occ. eigenvalues --   -0.28776  -0.28420  -0.27730  -0.27581  -0.27346
 Alpha  occ. eigenvalues --   -0.27068  -0.26867  -0.22609  -0.20691
 Alpha virt. eigenvalues --   -0.07752  -0.06276  -0.01654  -0.00868   0.00949
 Alpha virt. eigenvalues --    0.02685   0.03605   0.03783   0.04321   0.04694
 Alpha virt. eigenvalues --    0.04865   0.05662   0.08054   0.08302   0.09500

 Mulliken charges:
               1
     1  Mg   0.819698
     2  C    0.025038
     3  C   -0.188364
     4  C   -0.185785
     5  C   -0.163229
     6  N   -0.620439
     7  C    0.321149
     8  C   -0.156995
     9  C   -0.156711
    10  C    0.339818
    11  C   -0.317920
    12  C   -0.152645
    13  C   -0.267945
    14  C    0.621650
    15  O   -0.462022
    16  O   -0.489457
    17  N   -0.706003
    18  C    0.315713
    19  C   -0.002548
    20  C    0.013112
    21  C    0.247151
    22  C   -0.361678
    23  C    0.269210
    24  O   -0.452178
    25  N   -0.698418
    26  C    0.338951
    27  C   -0.072659
    28  C    0.016675
    29  C    0.292270
    30  C    0.271027
    31  C   -0.233695
    32  C   -0.291903
    33  N   -0.694169
    34  C    0.279410
    35  C    0.027710
    36  C   -0.022386
    37  C    0.282908
    38  C   -0.384357
    39  C    0.382598
    40  O   -0.384693
    41  C   -0.316804
    42  C    0.605331
    43  O   -0.427016
    44  O   -0.450940
    45  C   -0.108618
    46  C    0.025666
    47  C   -0.165223
    48  C    0.153925
    49  C   -0.337581
    50  C   -0.218068
    51  C   -0.193712
    52  C   -0.145359
    53  C   -0.058819
    54  C   -0.313320
    55  C   -0.175003
    56  C   -0.176397
    57  C   -0.190754
    58  C   -0.080926
    59  C   -0.306657
    60  C   -0.152415
    61  C   -0.191622
    62  C   -0.165408
    63  C   -0.079539
    64  C   -0.285500
    65  C   -0.313845
    66  H    0.067886
    67  H    0.153467
    68  H    0.078977
    69  H    0.117788
    70  H    0.107417
    71  H    0.119357
    72  H    0.118102
    73  H    0.133266
    74  H    0.089290
    75  H    0.130562
    76  H    0.141214
    77  H    0.127873
    78  H    0.122091
    79  H    0.155234
    80  H    0.128508
    81  H    0.092577
    82  H    0.078336
    83  H    0.107414
    84  H    0.111973
    85  H    0.102083
    86  H    0.100626
    87  H    0.124441
    88  H    0.142445
    89  H    0.137663
    90  H    0.164996
    91  H    0.111812
    92  H    0.109270
    93  H    0.086779
    94  H    0.144001
    95  H    0.104092
    96  H    0.082280
    97  H    0.110020
    98  H    0.100532
    99  H    0.109978
   100  H    0.068337
   101  H    0.062984
   102  H    0.057910
   103  H    0.091165
   104  H    0.117299
   105  H    0.095280
   106  H    0.106741
   107  H    0.088628
   108  H    0.082282
   109  H    0.101403
   110  H    0.096087
   111  H    0.100366
   112  H    0.080781
   113  H    0.063993
   114  H    0.080007
   115  H    0.092584
   116  H    0.118825
   117  H    0.086517
   118  H    0.095929
   119  H    0.087255
   120  H    0.103874
   121  H    0.064786
   122  H    0.103441
   123  H    0.071949
   124  H    0.110420
   125  H    0.114329
   126  H    0.093820
   127  H    0.083403
   128  H    0.092912
   129  H    0.108225
   130  H    0.124308
   131  H    0.143613
   132  H    0.127211
   133  O   -0.434647
   134  H    0.076354
 Sum of Mulliken charges =  -0.00000

 Dipole moment (field-independent basis, Debye):
    X=              2.1311    Y=             -7.1946    Z=             -1.1455  Tot=              7.5905
 Quadrupole moment (field-independent basis, Debye-Ang):
   XX=           -382.1403   YY=           -435.0436   ZZ=           -391.8677
   XY=             19.1012   XZ=             22.1661   YZ=            -36.4139

 Normal termination of Gaussian 16 at Tue Oct  8 10:28:53 2019.
