 Gaussian 16, Revision A.03,
 Gaussian 16:  ES64L-G16RevA.03 25-Dec-2016

 ----------------------------------------------------------------------
 # td=(NStates=1) iop(3/107=0140000000,3/108=0140000000) iop(3/107=0140
 000000,3/108=0140000000) CAM-B3LYP/6-31G(d,p)
 ----------------------------------------------------------------------

 --
 TD
 --
 Symbolic Z-matrix:
 Charge =  0 Multiplicity = 1

                         Standard orientation:
 ---------------------------------------------------------------------
 Center     Atomic      Atomic             Coordinates (Angstroms)
 Number     Number       Type             X           Y           Z
 ---------------------------------------------------------------------
      1         12           0       -5.644985    1.233591    0.102988
      2          6           0       -5.020050   -2.107134   -0.370955
      3          6           0       -3.500172    1.122239    2.834505
      4          6           0       -6.248977    4.507415    0.688106
      5          6           0       -8.035094    1.155019   -2.420257
      6          7           0       -4.354667   -0.304389    0.991194
      7          6           0       -4.236668   -1.600241    0.599151
      8          6           0       -3.191093   -2.335229    1.444017
      9          6           0       -2.909309   -1.335689    2.578578
     10          6           0       -3.617578   -0.042127    2.100812
     11          6           0       -3.571858   -1.783457    3.878550
     12          6           0       -2.010061   -2.749897    0.530395
     13          6           0       -0.946898   -3.508745    1.372890
     14          6           0        0.284530   -3.874968    0.682840
     15          8           0        0.590631   -3.303729   -0.363491
     16          8           0        1.033593   -4.781049    1.290757
     17          7           0       -4.965811    2.577365    1.482418
     18          6           0       -4.054817    2.407176    2.462140
     19          6           0       -3.868481    3.692296    3.204071
     20          6           0       -4.561065    4.610182    2.644742
     21          6           0       -5.289950    3.889931    1.547831
     22          6           0       -2.899772    3.783737    4.367146
     23          6           0       -4.605934    5.973017    2.877205
     24          8           0       -3.985154    6.531609    3.805722
     25          7           0       -6.900272    2.643664   -0.765194
     26          6           0       -7.030166    3.945686   -0.343994
     27          6           0       -7.990719    4.555735   -1.117114
     28          6           0       -8.413126    3.645265   -2.079857
     29          6           0       -7.709307    2.423694   -1.711762
     30          6           0       -8.418502    5.930478   -1.095909
     31          6           0       -9.523470    3.839516   -3.208596
     32          6           0       -8.767552    4.079815   -4.533162
     33          7           0       -6.365240   -0.085257   -1.108113
     34          6           0       -7.481850   -0.043118   -2.103128
     35          6           0       -7.588067   -1.320067   -2.730328
     36          6           0       -6.675085   -2.150467   -2.115157
     37          6           0       -6.006385   -1.425271   -1.190841
     38          6           0       -8.632498   -1.704096   -3.753660
     39          6           0       -6.277741   -3.534632   -2.084571
     40          8           0       -6.656750   -4.603294   -2.528543
     41          6           0       -5.010447   -3.489471   -0.929717
     42          6           0       -5.192815   -4.612006    0.150475
     43          8           0       -5.836318   -4.527837    1.196925
     44          8           0       -4.820953   -5.777261   -0.264938
     45          6           0       -5.206813   -6.926442    0.485671
     46          6           0        2.282800   -5.133539    0.680794
     47          6           0        3.347770   -4.108340    0.950197
     48          6           0        4.007213   -3.304788    0.103034
     49          6           0        3.877756   -3.315264   -1.399106
     50          6           0        5.259644   -2.483148    0.672431
     51          6           0        6.597139   -2.681064    0.042853
     52          6           0        7.670760   -1.829404    0.609005
     53          6           0        9.170257   -1.988399   -0.034552
     54          6           0        9.655626   -3.295569    0.326604
     55          6           0       10.071939   -0.869814    0.391437
     56          6           0       11.488796   -0.864100   -0.266825
     57          6           0       12.295631    0.259251    0.164541
     58          6           0       13.634522    0.473359   -0.560898
     59          6           0       14.428642   -0.676473   -0.315568
     60          6           0       14.304499    1.780753   -0.157563
     61          6           0       15.506933    2.245438   -1.009022
     62          6           0       16.042179    3.621615   -0.593788
     63          6           0       17.323080    3.940816   -1.355475
     64          6           0       17.199820    4.063619   -2.911556
     65          6           0       17.868562    5.343602   -0.878402
     66          1           0       -2.879317    0.891812    3.688121
     67          1           0       -6.267902    5.597376    0.751120
     68          1           0       -8.629750    1.260507   -3.360142
     69          1           0       -3.488404   -3.237171    1.968345
     70          1           0       -1.758907   -1.033362    2.819119
     71          1           0       -2.884636   -2.520656    4.469989
     72          1           0       -3.404758   -0.891793    4.643578
     73          1           0       -4.585645   -2.032777    3.789462
     74          1           0       -2.227784   -3.430061   -0.360366
     75          1           0       -1.635297   -1.688448    0.220436
     76          1           0       -0.723306   -2.868357    2.235511
     77          1           0       -1.393082   -4.364856    1.772617
     78          1           0       -2.009050    3.401612    4.206038
     79          1           0       -2.811628    4.863685    4.725290
     80          1           0       -3.437539    3.313708    5.087902
     81          1           0       -5.488559    6.599983    2.380895
     82          1           0      -10.337718    3.044884   -3.255369
     83          1           0      -10.138352    4.642851   -2.972753
     84          1           0       -9.571207    4.073575   -5.461457
     85          1           0       -8.287868    5.067517   -4.466147
     86          1           0       -8.092759    3.276591   -4.705020
     87          1           0       -8.652952   -1.000423   -4.634079
     88          1           0       -8.299136   -2.709754   -4.268755
     89          1           0       -9.591037   -1.858088   -3.251214
     90          1           0       -4.038909   -3.764027   -1.427112
     91          1           0        2.358057   -6.023191    1.111861
     92          1           0        2.011401   -5.125549   -0.175349
     93          1           0        3.651836   -3.887770    2.017542
     94          1           0        2.953626   -3.918754   -1.806238
     95          1           0        3.775302   -2.175560   -1.653126
     96          1           0        4.905116   -3.594267   -2.069083
     97          1           0        4.930844   -1.446323    0.512718
     98          1           0        5.203031   -2.821617    1.748256
     99          1           0        6.924024   -3.766211    0.128244
    100          1           0        6.721777   -2.437338   -1.180895
    101          1           0        7.380446   -0.802857    0.703457
    102          1           0        7.744100   -2.266202    1.598876
    103          1           0        8.890783   -2.017498   -1.135019
    104          1           0        9.248976   -4.291715   -0.008870
    105          1           0       10.517525   -3.524322   -0.313588
    106          1           0        9.802361   -3.361874    1.523344
    107          1           0        9.702399    0.139778    0.055753
    108          1           0       10.226878   -0.789255    1.459318
    109          1           0       11.998323   -1.750509    0.183908
    110          1           0       11.368996   -0.792509   -1.457685
    111          1           0       11.621017    1.183920    0.212516
    112          1           0       12.410138    0.009982    1.188327
    113          1           0       13.445860    0.646966   -1.497573
    114          1           0       14.677320   -0.875133    0.646510
    115          1           0       13.753449   -1.526081   -0.771181
    116          1           0       15.348104   -0.596138   -0.985748
    117          1           0       13.738669    2.694437   -0.155783
    118          1           0       14.590743    1.573272    1.003289
    119          1           0       16.338729    1.351607   -0.846967
    120          1           0       15.111294    2.150245   -2.035513
    121          1           0       15.204391    4.225038   -0.759395
    122          1           0       16.230957    3.631066    0.493904
    123          1           0       17.989824    3.091649   -1.120802
    124          1           0       16.401699    4.909769   -2.993899
    125          1           0       18.079809    4.190061   -3.583604
    126          1           0       16.594211    3.153239   -3.400517
    127          1           0       17.855289    5.166963    0.245906
    128          1           0       19.041281    5.647849   -1.137949
    129          1           0       17.187751    6.195801   -1.288381
    130          1           0       -4.957217   -7.744487   -0.162426
    131          1           0       -6.234873   -6.873635    0.563625
    132          1           0       -4.766045   -6.933348    1.525991
    133          8           0       -7.995660    6.772349   -0.316224
    134          1           0       -9.090721    6.456944   -1.688974
 ---------------------------------------------------------------------

 SCF Done:  E(RCAM-B3LYP) =  -3043.47894064     A.U. after   15 cycles

 Excitation energies and oscillator strengths:

 Excited State   1:      Singlet-A      2.0550 eV  603.32 nm  f=0.1523  <S**2>=0.000
     243 -> 245       -0.11690
     243 -> 246        0.24902
     244 -> 245        0.62789
     244 -> 246        0.14063
 This state for optimization and/or second-order correction.
 Total Energy, E(TD-HF/TD-DFT) =  -3043.40341953
 Copying the excited state density for this state as the 1-particle RhoCI density.

 The electronic state is 1-A.
 Alpha  occ. eigenvalues --  -46.81481 -19.22184 -19.21811 -19.18539 -19.16991
 Alpha  occ. eigenvalues --  -19.15775 -19.15581 -19.15157 -14.38343 -14.38055
 Alpha  occ. eigenvalues --  -14.36848 -14.36615 -10.33873 -10.33820 -10.32780
 Alpha  occ. eigenvalues --  -10.30469 -10.28852 -10.27790 -10.27147 -10.26980
 Alpha  occ. eigenvalues --  -10.26941 -10.26580 -10.26504 -10.26396 -10.26073
 Alpha  occ. eigenvalues --  -10.26044 -10.25749 -10.25703 -10.25265 -10.25102
 Alpha  occ. eigenvalues --  -10.24604 -10.24370 -10.24229 -10.24134 -10.24035
 Alpha  occ. eigenvalues --  -10.23965 -10.23852 -10.23592 -10.23553 -10.23514
 Alpha  occ. eigenvalues --  -10.23246 -10.23047 -10.23021 -10.22992 -10.22901
 Alpha  occ. eigenvalues --  -10.22655 -10.22610 -10.22524 -10.22498 -10.22444
 Alpha  occ. eigenvalues --  -10.22384 -10.22324 -10.22163 -10.21876 -10.21812
 Alpha  occ. eigenvalues --  -10.21738 -10.21309 -10.21274 -10.21269 -10.20877
 Alpha  occ. eigenvalues --  -10.20735 -10.20152 -10.19866 -10.19668 -10.19620
 Alpha  occ. eigenvalues --  -10.19465  -3.10154  -1.85079  -1.84616  -1.84588
 Alpha  occ. eigenvalues --   -1.14843  -1.13895  -1.07687  -1.06178  -1.05267
 Alpha  occ. eigenvalues --   -1.03589  -1.02554  -1.02455  -1.01278  -0.99919
 Alpha  occ. eigenvalues --   -0.98366  -0.87970  -0.87289  -0.86033  -0.85774
 Alpha  occ. eigenvalues --   -0.85591  -0.84806  -0.84623  -0.84191  -0.83841
 Alpha  occ. eigenvalues --   -0.83774  -0.83472  -0.82265  -0.80835  -0.79951
 Alpha  occ. eigenvalues --   -0.79729  -0.78891  -0.77991  -0.77735  -0.77313
 Alpha  occ. eigenvalues --   -0.76422  -0.76075  -0.74256  -0.72637  -0.72002
 Alpha  occ. eigenvalues --   -0.70723  -0.70402  -0.70292  -0.70064  -0.69521
 Alpha  occ. eigenvalues --   -0.68777  -0.68720  -0.67915  -0.67165  -0.66144
 Alpha  occ. eigenvalues --   -0.66066  -0.64582  -0.64497  -0.62452  -0.61807
 Alpha  occ. eigenvalues --   -0.60989  -0.60840  -0.59870  -0.59653  -0.59590
 Alpha  occ. eigenvalues --   -0.58935  -0.58635  -0.58485  -0.58356  -0.57452
 Alpha  occ. eigenvalues --   -0.57274  -0.55843  -0.55710  -0.55041  -0.54934
 Alpha  occ. eigenvalues --   -0.53929  -0.53379  -0.53079  -0.52655  -0.52286
 Alpha  occ. eigenvalues --   -0.52202  -0.52008  -0.51548  -0.51075  -0.50724
 Alpha  occ. eigenvalues --   -0.50233  -0.50189  -0.49700  -0.49531  -0.49515
 Alpha  occ. eigenvalues --   -0.48977  -0.48856  -0.48725  -0.48572  -0.48172
 Alpha  occ. eigenvalues --   -0.48021  -0.47700  -0.47598  -0.47273  -0.47019
 Alpha  occ. eigenvalues --   -0.46960  -0.46516  -0.46298  -0.46201  -0.45997
 Alpha  occ. eigenvalues --   -0.45910  -0.45638  -0.45354  -0.45165  -0.44945
 Alpha  occ. eigenvalues --   -0.44540  -0.44406  -0.44110  -0.44086  -0.43673
 Alpha  occ. eigenvalues --   -0.43531  -0.43430  -0.43357  -0.43046  -0.42687
 Alpha  occ. eigenvalues --   -0.42558  -0.42410  -0.42026  -0.41899  -0.41831
 Alpha  occ. eigenvalues --   -0.41475  -0.41283  -0.41140  -0.41023  -0.40880
 Alpha  occ. eigenvalues --   -0.40585  -0.40508  -0.40396  -0.40200  -0.40028
 Alpha  occ. eigenvalues --   -0.39944  -0.39774  -0.39430  -0.39278  -0.39138
 Alpha  occ. eigenvalues --   -0.38945  -0.38815  -0.38521  -0.38192  -0.38097
 Alpha  occ. eigenvalues --   -0.37726  -0.37584  -0.37417  -0.37209  -0.36881
 Alpha  occ. eigenvalues --   -0.36865  -0.36481  -0.36183  -0.35967  -0.35817
 Alpha  occ. eigenvalues --   -0.35173  -0.34987  -0.34755  -0.34628  -0.34454
 Alpha  occ. eigenvalues --   -0.34223  -0.33913  -0.33902  -0.33251  -0.33041
 Alpha  occ. eigenvalues --   -0.32555  -0.32466  -0.32357  -0.32075  -0.31504
 Alpha  occ. eigenvalues --   -0.31401  -0.30632  -0.30197  -0.30106  -0.29687
 Alpha  occ. eigenvalues --   -0.29219  -0.28636  -0.28400  -0.28099  -0.27580
 Alpha  occ. eigenvalues --   -0.27218  -0.26809  -0.23158  -0.21659
 Alpha virt. eigenvalues --   -0.08583  -0.06662  -0.01891  -0.01048   0.00787
 Alpha virt. eigenvalues --    0.03405   0.03552   0.03746   0.04288   0.04418
 Alpha virt. eigenvalues --    0.05112   0.05685   0.07956   0.08301   0.09234

 Mulliken charges:
               1
     1  Mg   0.837038
     2  C    0.122410
     3  C   -0.174372
     4  C   -0.177970
     5  C   -0.170068
     6  N   -0.640681
     7  C    0.311179
     8  C   -0.147263
     9  C   -0.165424
    10  C    0.347914
    11  C   -0.302302
    12  C   -0.157220
    13  C   -0.262161
    14  C    0.595316
    15  O   -0.492476
    16  O   -0.476189
    17  N   -0.671839
    18  C    0.292154
    19  C   -0.003805
    20  C    0.100912
    21  C    0.279148
    22  C   -0.369474
    23  C    0.184228
    24  O   -0.427109
    25  N   -0.690388
    26  C    0.295114
    27  C   -0.010782
    28  C   -0.013145
    29  C    0.301507
    30  C    0.221101
    31  C   -0.234078
    32  C   -0.299778
    33  N   -0.743003
    34  C    0.268590
    35  C    0.020807
    36  C    0.097135
    37  C    0.270744
    38  C   -0.383038
    39  C    0.357107
    40  O   -0.444349
    41  C   -0.365919
    42  C    0.588785
    43  O   -0.506301
    44  O   -0.412395
    45  C   -0.083506
    46  C    0.090906
    47  C   -0.159155
    48  C    0.146863
    49  C   -0.346697
    50  C   -0.216288
    51  C   -0.155836
    52  C   -0.166787
    53  C   -0.044376
    54  C   -0.302858
    55  C   -0.174111
    56  C   -0.180807
    57  C   -0.164967
    58  C   -0.027981
    59  C   -0.297428
    60  C   -0.165870
    61  C   -0.180092
    62  C   -0.164831
    63  C   -0.052274
    64  C   -0.299696
    65  C   -0.286960
    66  H    0.083193
    67  H    0.125357
    68  H    0.105227
    69  H    0.125117
    70  H    0.093137
    71  H    0.102495
    72  H    0.089109
    73  H    0.148118
    74  H    0.114066
    75  H    0.109185
    76  H    0.133300
    77  H    0.127181
    78  H    0.128990
    79  H    0.153037
    80  H    0.136443
    81  H    0.084430
    82  H    0.106123
    83  H    0.119123
    84  H    0.079001
    85  H    0.123691
    86  H    0.121783
    87  H    0.122696
    88  H    0.134233
    89  H    0.150744
    90  H    0.135014
    91  H    0.118537
    92  H    0.097134
    93  H    0.068932
    94  H    0.121294
    95  H    0.107330
    96  H    0.094012
    97  H    0.107992
    98  H    0.094095
    99  H    0.094876
   100  H    0.052804
   101  H    0.086769
   102  H    0.083970
   103  H    0.077821
   104  H    0.100031
   105  H    0.103400
   106  H    0.082305
   107  H    0.088132
   108  H    0.094423
   109  H    0.104282
   110  H    0.066229
   111  H    0.065520
   112  H    0.087116
   113  H    0.085724
   114  H    0.111638
   115  H    0.092075
   116  H    0.088226
   117  H    0.083603
   118  H    0.048177
   119  H    0.060626
   120  H    0.096787
   121  H    0.099367
   122  H    0.101926
   123  H    0.092572
   124  H    0.084846
   125  H    0.112639
   126  H    0.074300
   127  H    0.091763
   128  H    0.075881
   129  H    0.098325
   130  H    0.126915
   131  H    0.144649
   132  H    0.122623
   133  O   -0.432531
   134  H    0.075165
 Sum of Mulliken charges =  -0.00000

 Dipole moment (field-independent basis, Debye):
    X=              1.7646    Y=             -4.8583    Z=             -1.6789  Tot=              5.4347
 Quadrupole moment (field-independent basis, Debye-Ang):
   XX=           -382.6422   YY=           -437.6165   ZZ=           -390.5724
   XY=              2.9218   XZ=             30.1192   YZ=            -32.0242

 Normal termination of Gaussian 16 at Tue Oct  8 09:24:10 2019.
