 Gaussian 16, Revision A.03,
 Gaussian 16:  ES64L-G16RevA.03 25-Dec-2016

 ----------------------------------------------------------------------
 # td=(NStates=1) iop(3/107=0140000000,3/108=0140000000) iop(3/107=0140
 000000,3/108=0140000000) CAM-B3LYP/6-31G(d,p)
 ----------------------------------------------------------------------

 --
 TD
 --
 Symbolic Z-matrix:
 Charge =  0 Multiplicity = 1

                         Standard orientation:
 ---------------------------------------------------------------------
 Center     Atomic      Atomic             Coordinates (Angstroms)
 Number     Number       Type             X           Y           Z
 ---------------------------------------------------------------------
      1         12           0       -5.686442    1.198139    0.167887
      2          6           0       -5.110548   -2.118458   -0.280397
      3          6           0       -3.466278    1.275173    2.810156
      4          6           0       -6.279444    4.506740    0.694427
      5          6           0       -7.960539    1.175396   -2.319435
      6          7           0       -4.407728   -0.251233    1.065168
      7          6           0       -4.268507   -1.523056    0.718425
      8          6           0       -3.143941   -2.261742    1.524635
      9          6           0       -2.889986   -1.308710    2.672010
     10          6           0       -3.594181    0.022309    2.168352
     11          6           0       -3.386614   -1.728592    4.037823
     12          6           0       -1.886706   -2.600699    0.723363
     13          6           0       -0.986602   -3.575136    1.425333
     14          6           0        0.328274   -3.855483    0.551441
     15          8           0        0.423039   -3.502310   -0.582529
     16          8           0        1.176061   -4.594755    1.216916
     17          7           0       -4.903095    2.616376    1.467261
     18          6           0       -4.000302    2.454084    2.437417
     19          6           0       -3.721326    3.676566    3.086204
     20          6           0       -4.504645    4.648351    2.493615
     21          6           0       -5.340160    3.971126    1.444157
     22          6           0       -2.702567    3.972532    4.250411
     23          6           0       -4.568959    6.086125    2.755105
     24          8           0       -4.132574    6.658799    3.652192
     25          7           0       -6.862060    2.576145   -0.630430
     26          6           0       -6.989422    3.886208   -0.356436
     27          6           0       -7.990330    4.506366   -1.189706
     28          6           0       -8.511412    3.540856   -2.032278
     29          6           0       -7.790872    2.377651   -1.766165
     30          6           0       -8.372352    5.916131   -1.117361
     31          6           0       -9.473319    3.797273   -3.120561
     32          6           0       -8.762148    3.995474   -4.486207
     33          7           0       -6.461091   -0.128579   -1.032109
     34          6           0       -7.341678   -0.109802   -2.053768
     35          6           0       -7.471736   -1.328999   -2.832981
     36          6           0       -6.581993   -2.196667   -2.035775
     37          6           0       -5.980447   -1.488315   -0.979306
     38          6           0       -8.314395   -1.708688   -3.929688
     39          6           0       -6.134462   -3.603804   -1.997728
     40          8           0       -6.376891   -4.600969   -2.640374
     41          6           0       -4.958177   -3.538424   -0.913655
     42          6           0       -5.245263   -4.667217    0.042390
     43          8           0       -5.819041   -4.439488    1.186802
     44          8           0       -4.940615   -5.917194   -0.347307
     45          6           0       -5.262010   -7.023058    0.485330
     46          6           0        2.286996   -5.097553    0.606111
     47          6           0        3.507763   -4.191693    1.052459
     48          6           0        4.102495   -3.348315    0.210879
     49          6           0        3.719908   -3.222147   -1.230656
     50          6           0        5.187813   -2.465425    0.773871
     51          6           0        6.551345   -2.669804   -0.003528
     52          6           0        7.629236   -1.787628    0.554126
     53          6           0        8.948265   -1.995994    0.020792
     54          6           0        9.493200   -3.498917    0.262394
     55          6           0        9.995485   -0.936070    0.524637
     56          6           0       11.458761   -0.855057   -0.250046
     57          6           0       12.219960    0.293513    0.030715
     58          6           0       13.669816    0.452625   -0.596927
     59          6           0       14.480087   -0.713949   -0.449642
     60          6           0       14.281074    1.730486   -0.230596
     61          6           0       15.453926    2.082009   -0.984221
     62          6           0       15.890505    3.599396   -0.621799
     63          6           0       17.149000    4.052190   -1.309126
     64          6           0       16.868631    4.234298   -2.949189
     65          6           0       17.679065    5.402910   -0.801019
     66          1           0       -2.440294    1.425971    3.460063
     67          1           0       -6.314061    5.486229    0.790341
     68          1           0       -8.689816    1.147084   -3.309188
     69          1           0       -3.565558   -3.201922    1.986418
     70          1           0       -1.827729   -1.096148    2.869098
     71          1           0       -2.801820   -2.669067    4.374544
     72          1           0       -3.147472   -0.997846    4.969777
     73          1           0       -4.446616   -2.040101    4.062414
     74          1           0       -2.206982   -3.136073   -0.229888
     75          1           0       -1.528177   -1.632962    0.620063
     76          1           0       -0.621629   -3.205265    2.331286
     77          1           0       -1.230828   -4.724505    1.854227
     78          1           0       -1.806279    3.692667    4.003391
     79          1           0       -2.708785    4.923228    4.659318
     80          1           0       -3.001229    3.134668    5.260200
     81          1           0       -5.283478    6.534667    2.001839
     82          1           0      -10.010151    2.781677   -3.229918
     83          1           0      -10.372285    4.477878   -2.806185
     84          1           0       -9.521560    4.189677   -5.278254
     85          1           0       -8.235497    4.910674   -4.528559
     86          1           0       -8.142908    3.269119   -4.788091
     87          1           0       -7.902010   -1.191319   -4.918000
     88          1           0       -8.170938   -2.802552   -4.213828
     89          1           0       -9.310473   -1.510774   -3.800335
     90          1           0       -3.927294   -3.618665   -1.335138
     91          1           0        2.579936   -6.048266    1.063885
     92          1           0        2.176336   -5.066959   -0.613108
     93          1           0        3.610089   -4.187082    2.082862
     94          1           0        2.661828   -3.452335   -1.228466
     95          1           0        3.696847   -2.089923   -1.481584
     96          1           0        4.473386   -3.926166   -1.870556
     97          1           0        4.926628   -1.414150    0.821396
     98          1           0        5.673955   -2.696094    1.816618
     99          1           0        6.835432   -3.672212    0.401261
    100          1           0        6.519712   -2.522148   -1.076795
    101          1           0        7.264337   -0.917432    0.333617
    102          1           0        7.643624   -1.768596    1.803366
    103          1           0        8.825223   -1.767095   -1.089971
    104          1           0        8.900517   -4.184878   -0.342328
    105          1           0       10.508342   -3.478627   -0.253735
    106          1           0        9.630107   -3.627944    1.404941
    107          1           0        9.646557    0.169032    0.525827
    108          1           0       10.252687   -1.254197    1.569613
    109          1           0       11.786364   -1.823651    0.214980
    110          1           0       11.186240   -1.070744   -1.230968
    111          1           0       11.561413    1.071629   -0.065993
    112          1           0       12.124284    0.191083    1.091780
    113          1           0       13.410523    0.704768   -1.675922
    114          1           0       14.808340   -0.950379    0.654524
    115          1           0       14.063732   -1.791216   -0.871882
    116          1           0       15.518333   -0.578122   -0.933229
    117          1           0       13.582931    2.581465   -0.235808
    118          1           0       14.503757    1.755162    0.989532
    119          1           0       16.307667    1.306729   -0.704142
    120          1           0       15.246526    2.028060   -2.175364
    121          1           0       15.094309    4.130284   -0.889894
    122          1           0       16.029944    3.681088    0.375619
    123          1           0       17.764121    3.252755   -1.286421
    124          1           0       16.279784    5.286112   -3.069479
    125          1           0       17.954817    4.220685   -3.445639
    126          1           0       16.098450    3.542435   -3.547043
    127          1           0       17.877607    5.264363    0.258046
    128          1           0       18.607208    5.820267   -1.398282
    129          1           0       16.756618    6.107891   -0.871123
    130          1           0       -5.084316   -7.870956   -0.268256
    131          1           0       -6.284035   -6.764533    0.895761
    132          1           0       -4.570484   -7.060205    1.354633
    133          8           0       -7.938269    6.790510   -0.385047
    134          1           0       -9.156067    6.082082   -1.857256
 ---------------------------------------------------------------------

 SCF Done:  E(RCAM-B3LYP) =  -3043.41351739     A.U. after   16 cycles

 Excitation energies and oscillator strengths:

 Excited State   1:      Singlet-A      2.0279 eV  611.40 nm  f=0.2295  <S**2>=0.000
     243 -> 246        0.22521
     244 -> 245        0.66470
 This state for optimization and/or second-order correction.
 Total Energy, E(TD-HF/TD-DFT) =  -3043.33899415
 Copying the excited state density for this state as the 1-particle RhoCI density.

 The electronic state is 1-A.
 Alpha  occ. eigenvalues --  -46.80163 -19.23668 -19.22812 -19.17675 -19.17443
 Alpha  occ. eigenvalues --  -19.17404 -19.17231 -19.15905 -14.39769 -14.36836
 Alpha  occ. eigenvalues --  -14.36231 -14.36206 -10.35482 -10.35295 -10.31635
 Alpha  occ. eigenvalues --  -10.29965 -10.29656 -10.28563 -10.28512 -10.28217
 Alpha  occ. eigenvalues --  -10.28009 -10.26640 -10.26274 -10.26006 -10.25867
 Alpha  occ. eigenvalues --  -10.25829 -10.25659 -10.25502 -10.25350 -10.25204
 Alpha  occ. eigenvalues --  -10.25075 -10.24788 -10.24707 -10.24609 -10.24593
 Alpha  occ. eigenvalues --  -10.24242 -10.23764 -10.23653 -10.23600 -10.23547
 Alpha  occ. eigenvalues --  -10.23243 -10.22997 -10.22911 -10.22808 -10.22661
 Alpha  occ. eigenvalues --  -10.22557 -10.22464 -10.22374 -10.22341 -10.22269
 Alpha  occ. eigenvalues --  -10.22173 -10.21996 -10.21869 -10.21862 -10.21847
 Alpha  occ. eigenvalues --  -10.21846 -10.21572 -10.21387 -10.21257 -10.21064
 Alpha  occ. eigenvalues --  -10.20940 -10.20524 -10.19784 -10.19592 -10.18987
 Alpha  occ. eigenvalues --  -10.18923  -3.09028  -1.83941  -1.83533  -1.83435
 Alpha  occ. eigenvalues --   -1.16969  -1.12750  -1.10706  -1.07375  -1.07348
 Alpha  occ. eigenvalues --   -1.06518  -1.00868  -1.00519  -0.99440  -0.99009
 Alpha  occ. eigenvalues --   -0.98038  -0.89353  -0.86949  -0.86825  -0.86716
 Alpha  occ. eigenvalues --   -0.86220  -0.84853  -0.84583  -0.83561  -0.83494
 Alpha  occ. eigenvalues --   -0.82933  -0.82523  -0.81873  -0.81202  -0.80332
 Alpha  occ. eigenvalues --   -0.79158  -0.78938  -0.78278  -0.77300  -0.76759
 Alpha  occ. eigenvalues --   -0.75703  -0.74815  -0.73869  -0.73532  -0.72351
 Alpha  occ. eigenvalues --   -0.71290  -0.70615  -0.70398  -0.70009  -0.69550
 Alpha  occ. eigenvalues --   -0.69310  -0.68216  -0.68053  -0.67474  -0.66589
 Alpha  occ. eigenvalues --   -0.66119  -0.64919  -0.63988  -0.62586  -0.62514
 Alpha  occ. eigenvalues --   -0.61509  -0.60095  -0.59973  -0.59710  -0.58974
 Alpha  occ. eigenvalues --   -0.58715  -0.58041  -0.57901  -0.57368  -0.57208
 Alpha  occ. eigenvalues --   -0.56129  -0.55719  -0.55435  -0.54662  -0.54482
 Alpha  occ. eigenvalues --   -0.54389  -0.53680  -0.53320  -0.52766  -0.52342
 Alpha  occ. eigenvalues --   -0.52277  -0.51822  -0.51588  -0.51194  -0.50836
 Alpha  occ. eigenvalues --   -0.50404  -0.50097  -0.49904  -0.49666  -0.49200
 Alpha  occ. eigenvalues --   -0.49132  -0.48828  -0.48363  -0.48154  -0.47879
 Alpha  occ. eigenvalues --   -0.47602  -0.47441  -0.47402  -0.47188  -0.47152
 Alpha  occ. eigenvalues --   -0.47062  -0.46704  -0.46425  -0.46248  -0.46172
 Alpha  occ. eigenvalues --   -0.46089  -0.45553  -0.45170  -0.45089  -0.45021
 Alpha  occ. eigenvalues --   -0.44829  -0.44687  -0.44425  -0.44294  -0.44233
 Alpha  occ. eigenvalues --   -0.43813  -0.43614  -0.43477  -0.43453  -0.43084
 Alpha  occ. eigenvalues --   -0.42718  -0.42451  -0.42323  -0.42055  -0.41796
 Alpha  occ. eigenvalues --   -0.41686  -0.41482  -0.41346  -0.41006  -0.40970
 Alpha  occ. eigenvalues --   -0.40719  -0.40328  -0.40058  -0.39853  -0.39680
 Alpha  occ. eigenvalues --   -0.39593  -0.39565  -0.39479  -0.39404  -0.38972
 Alpha  occ. eigenvalues --   -0.38853  -0.38601  -0.38531  -0.38345  -0.38124
 Alpha  occ. eigenvalues --   -0.37809  -0.37476  -0.37421  -0.37317  -0.37193
 Alpha  occ. eigenvalues --   -0.37072  -0.36869  -0.36796  -0.36176  -0.35981
 Alpha  occ. eigenvalues --   -0.35718  -0.35349  -0.35126  -0.34770  -0.34755
 Alpha  occ. eigenvalues --   -0.34349  -0.33488  -0.33166  -0.32790  -0.32647
 Alpha  occ. eigenvalues --   -0.32579  -0.32329  -0.32202  -0.32143  -0.31622
 Alpha  occ. eigenvalues --   -0.31493  -0.30980  -0.30733  -0.30103  -0.29353
 Alpha  occ. eigenvalues --   -0.28592  -0.28032  -0.27916  -0.27674  -0.27558
 Alpha  occ. eigenvalues --   -0.27288  -0.27187  -0.24017  -0.20928
 Alpha virt. eigenvalues --   -0.08202  -0.06907  -0.02378  -0.00154   0.00793
 Alpha virt. eigenvalues --    0.02621   0.03923   0.04202   0.04241   0.04893
 Alpha virt. eigenvalues --    0.05040   0.06238   0.07697   0.07961   0.08884

 Mulliken charges:
               1
     1  Mg   0.816423
     2  C    0.085711
     3  C   -0.195534
     4  C   -0.125850
     5  C   -0.218653
     6  N   -0.602708
     7  C    0.306577
     8  C   -0.163810
     9  C   -0.126808
    10  C    0.295618
    11  C   -0.310463
    12  C   -0.142357
    13  C   -0.273946
    14  C    0.587372
    15  O   -0.452824
    16  O   -0.395712
    17  N   -0.727716
    18  C    0.369377
    19  C    0.028677
    20  C   -0.042385
    21  C    0.305782
    22  C   -0.342243
    23  C    0.253240
    24  O   -0.374516
    25  N   -0.706709
    26  C    0.328042
    27  C   -0.030846
    28  C    0.080051
    29  C    0.301709
    30  C    0.259737
    31  C   -0.271519
    32  C   -0.311832
    33  N   -0.744532
    34  C    0.275029
    35  C    0.094066
    36  C   -0.037396
    37  C    0.321782
    38  C   -0.408960
    39  C    0.372243
    40  O   -0.452283
    41  C   -0.341635
    42  C    0.614282
    43  O   -0.519529
    44  O   -0.432483
    45  C   -0.084424
    46  C   -0.035930
    47  C   -0.135097
    48  C    0.142138
    49  C   -0.370715
    50  C   -0.231519
    51  C   -0.197759
    52  C   -0.127599
    53  C   -0.057402
    54  C   -0.322654
    55  C   -0.208230
    56  C   -0.185524
    57  C   -0.164679
    58  C   -0.016099
    59  C   -0.308117
    60  C   -0.147073
    61  C   -0.178250
    62  C   -0.162507
    63  C   -0.049490
    64  C   -0.308993
    65  C   -0.301309
    66  H    0.079831
    67  H    0.095413
    68  H    0.075181
    69  H    0.126968
    70  H    0.103187
    71  H    0.097120
    72  H    0.100635
    73  H    0.133325
    74  H    0.115497
    75  H    0.124819
    76  H    0.135595
    77  H    0.116390
    78  H    0.138095
    79  H    0.158731
    80  H    0.065259
    81  H    0.054655
    82  H    0.102348
    83  H    0.118988
    84  H    0.108555
    85  H    0.124408
    86  H    0.129668
    87  H    0.114082
    88  H    0.152143
    89  H    0.145075
    90  H    0.158548
    91  H    0.115444
    92  H    0.113934
    93  H    0.088351
    94  H    0.150215
    95  H    0.103551
    96  H    0.110522
    97  H    0.097574
    98  H    0.087033
    99  H    0.103914
   100  H    0.096286
   101  H    0.101883
   102  H    0.039253
   103  H    0.070906
   104  H    0.117404
   105  H    0.102238
   106  H    0.101824
   107  H    0.071610
   108  H    0.084701
   109  H    0.089245
   110  H    0.087104
   111  H    0.089563
   112  H    0.089387
   113  H    0.081550
   114  H    0.090510
   115  H    0.090941
   116  H    0.096841
   117  H    0.091650
   118  H    0.050006
   119  H    0.079752
   120  H    0.074280
   121  H    0.099715
   122  H    0.095874
   123  H    0.100787
   124  H    0.076389
   125  H    0.088110
   126  H    0.086544
   127  H    0.105305
   128  H    0.097434
   129  H    0.094976
   130  H    0.131894
   131  H    0.144768
   132  H    0.123435
   133  O   -0.431473
   134  H    0.053020
 Sum of Mulliken charges =  -0.00000

 Dipole moment (field-independent basis, Debye):
    X=              2.6751    Y=             -4.0458    Z=             -1.3103  Tot=              5.0241
 Quadrupole moment (field-independent basis, Debye-Ang):
   XX=           -391.8430   YY=           -438.0398   ZZ=           -393.0192
   XY=              8.0042   XZ=             35.3327   YZ=            -33.1052

 Normal termination of Gaussian 16 at Mon Oct  7 20:54:03 2019.
