 Gaussian 16, Revision A.03,
 Gaussian 16:  ES64L-G16RevA.03 25-Dec-2016

 ----------------------------------------------------------------------
 # td=(NStates=1) iop(3/107=0140000000,3/108=0140000000) iop(3/107=0140
 000000,3/108=0140000000) CAM-B3LYP/6-31G(d,p)
 ----------------------------------------------------------------------

 --
 TD
 --
 Symbolic Z-matrix:
 Charge =  0 Multiplicity = 1

                         Standard orientation:
 ---------------------------------------------------------------------
 Center     Atomic      Atomic             Coordinates (Angstroms)
 Number     Number       Type             X           Y           Z
 ---------------------------------------------------------------------
      1         12           0       -5.578932    1.224571    0.164861
      2          6           0       -4.842245   -2.122284   -0.417209
      3          6           0       -3.474990    1.141534    2.821138
      4          6           0       -6.200355    4.604896    0.587852
      5          6           0       -7.943272    1.107991   -2.376512
      6          7           0       -4.350215   -0.285344    1.047102
      7          6           0       -4.178717   -1.620295    0.655893
      8          6           0       -3.185012   -2.375207    1.444038
      9          6           0       -2.859513   -1.302231    2.616364
     10          6           0       -3.633188   -0.104190    2.152426
     11          6           0       -3.507038   -1.845569    3.926950
     12          6           0       -1.875187   -2.747064    0.671656
     13          6           0       -1.008717   -3.545377    1.431958
     14          6           0        0.283521   -3.923888    0.761946
     15          8           0        0.502481   -3.623139   -0.415860
     16          8           0        1.095808   -4.696139    1.504398
     17          7           0       -5.061874    2.632583    1.434162
     18          6           0       -4.048754    2.400024    2.410329
     19          6           0       -3.782308    3.591005    3.132202
     20          6           0       -4.641870    4.578137    2.497764
     21          6           0       -5.310499    3.957861    1.528999
     22          6           0       -2.759195    3.901406    4.194793
     23          6           0       -4.495763    5.976054    2.888724
     24          8           0       -3.973938    6.535849    3.759585
     25          7           0       -6.827271    2.652409   -0.802256
     26          6           0       -6.976939    3.978226   -0.418214
     27          6           0       -8.097483    4.550029   -1.117145
     28          6           0       -8.653250    3.559933   -1.982861
     29          6           0       -7.762871    2.336220   -1.714779
     30          6           0       -8.532754    5.977629   -0.967025
     31          6           0       -9.653225    3.712300   -2.962742
     32          6           0       -9.028515    4.083296   -4.399378
     33          7           0       -6.286021   -0.226284   -1.055387
     34          6           0       -7.208790   -0.139178   -2.107336
     35          6           0       -7.424351   -1.376035   -2.715376
     36          6           0       -6.522042   -2.186756   -2.145393
     37          6           0       -5.862696   -1.417352   -1.116087
     38          6           0       -8.531467   -1.496013   -3.728290
     39          6           0       -6.042391   -3.440429   -2.208726
     40          8           0       -6.238550   -4.422452   -2.768616
     41          6           0       -5.041931   -3.560359   -0.971092
     42          6           0       -5.242044   -4.601908    0.010491
     43          8           0       -5.689792   -4.444235    1.139973
     44          8           0       -5.021419   -5.855065   -0.528614
     45          6           0       -5.326072   -6.978215    0.382173
     46          6           0        2.309306   -5.090136    0.820867
     47          6           0        3.489133   -4.105586    1.110932
     48          6           0        4.052557   -3.341127    0.160195
     49          6           0        3.722875   -3.144622   -1.298124
     50          6           0        5.179053   -2.434860    0.698015
     51          6           0        6.557547   -2.740891    0.064018
     52          6           0        7.693849   -1.855382    0.592192
     53          6           0        9.099439   -1.976452   -0.052336
     54          6           0        9.632386   -3.408054    0.025337
     55          6           0       10.104925   -0.941387    0.438116
     56          6           0       11.408891   -0.797446   -0.425522
     57          6           0       12.280792    0.309540    0.262190
     58          6           0       13.591114    0.581831   -0.489672
     59          6           0       14.514560   -0.647041   -0.344602
     60          6           0       14.191826    1.897796   -0.033110
     61          6           0       15.397189    2.211955   -0.900419
     62          6           0       15.868724    3.699285   -0.699056
     63          6           0       17.099177    4.022955   -1.430953
     64          6           0       16.947242    4.131225   -3.008397
     65          6           0       17.804598    5.286337   -0.950996
     66          1           0       -2.687157    1.043836    3.442539
     67          1           0       -6.296540    5.636910    0.908797
     68          1           0       -8.633784    1.002570   -3.193711
     69          1           0       -3.694132   -3.264926    1.708153
     70          1           0       -1.810336   -1.348957    2.590918
     71          1           0       -2.837642   -2.820128    4.344332
     72          1           0       -3.569151   -1.016845    4.786892
     73          1           0       -4.486486   -2.191250    3.907902
     74          1           0       -2.167019   -3.317856   -0.219341
     75          1           0       -1.294527   -1.883484    0.534744
     76          1           0       -0.464018   -3.007052    2.300525
     77          1           0       -1.212417   -4.594782    1.806403
     78          1           0       -1.818631    3.281551    3.865456
     79          1           0       -2.718980    4.884382    4.365087
     80          1           0       -3.095338    3.484825    5.179542
     81          1           0       -5.188624    6.562463    2.235536
     82          1           0      -10.447117    2.916828   -3.033285
     83          1           0      -10.326419    4.532912   -2.775186
     84          1           0       -9.700947    4.243323   -5.169967
     85          1           0       -8.358917    4.908947   -4.437044
     86          1           0       -8.286951    3.329661   -4.800308
     87          1           0       -8.239877   -0.944971   -4.635677
     88          1           0       -8.483854   -2.535111   -4.133753
     89          1           0       -9.614518   -1.451050   -3.278585
     90          1           0       -4.017975   -3.865785   -1.310331
     91          1           0        2.740319   -5.779810    1.523809
     92          1           0        2.201254   -5.376438   -0.206140
     93          1           0        3.633872   -4.083236    2.084571
     94          1           0        2.617000   -3.546754   -1.569902
     95          1           0        4.000053   -2.122502   -1.616159
     96          1           0        4.432703   -3.839890   -1.642666
     97          1           0        4.998947   -1.466783    0.680916
     98          1           0        5.407985   -2.697584    1.779661
     99          1           0        6.902872   -3.873679    0.223319
    100          1           0        6.541396   -2.480882   -1.104187
    101          1           0        7.323142   -0.759228    0.491513
    102          1           0        8.013235   -2.013353    1.750329
    103          1           0        8.932674   -1.800556   -1.194523
    104          1           0        8.999140   -4.089355   -0.414148
    105          1           0       10.594993   -3.482974   -0.217912
    106          1           0        9.826484   -3.589359    1.065598
    107          1           0        9.479017    0.030843    0.484158
    108          1           0       10.339173   -1.303689    1.388043
    109          1           0       11.649436   -1.905348   -0.333164
    110          1           0       11.184471   -0.454138   -1.400491
    111          1           0       11.261389    1.092471    0.440018
    112          1           0       12.502399   -0.099750    1.312964
    113          1           0       13.241624    0.526632   -1.484679
    114          1           0       14.706538   -0.782225    0.720654
    115          1           0       14.143587   -1.566339   -0.624752
    116          1           0       15.499957   -0.450977   -0.651596
    117          1           0       13.466685    2.715512   -0.228681
    118          1           0       14.483386    1.966037    1.146329
    119          1           0       16.198130    1.464991   -0.588939
    120          1           0       14.829287    2.199951   -1.904662
    121          1           0       15.067796    4.439479   -1.050640
    122          1           0       16.138256    3.974181    0.461234
    123          1           0       18.089823    3.365818   -1.209069
    124          1           0       16.020785    4.794973   -3.273631
    125          1           0       17.965068    4.687301   -3.409238
    126          1           0       16.758086    3.038838   -3.437476
    127          1           0       18.031419    5.155951    0.049462
    128          1           0       18.698255    5.616114   -1.367808
    129          1           0       17.092256    6.090891   -1.347131
    130          1           0       -4.718202   -7.823986   -0.075217
    131          1           0       -6.556944   -7.119078    0.154224
    132          1           0       -5.037418   -6.635851    1.440199
    133          8           0       -8.122205    6.769218   -0.227764
    134          1           0       -9.494776    6.184301   -1.719576
 ---------------------------------------------------------------------

 SCF Done:  E(RCAM-B3LYP) =  -3043.42006350     A.U. after   16 cycles

 Excitation energies and oscillator strengths:

 Excited State   1:      Singlet-A      1.9528 eV  634.90 nm  f=0.1986  <S**2>=0.000
     243 -> 245        0.10478
     243 -> 246        0.21285
     244 -> 245        0.65677
 This state for optimization and/or second-order correction.
 Total Energy, E(TD-HF/TD-DFT) =  -3043.34829906
 Copying the excited state density for this state as the 1-particle RhoCI density.

 The electronic state is 1-A.
 Alpha  occ. eigenvalues --  -46.81608 -19.23061 -19.21413 -19.18424 -19.17288
 Alpha  occ. eigenvalues --  -19.16581 -19.16573 -19.16518 -14.39095 -14.37200
 Alpha  occ. eigenvalues --  -14.36731 -14.36465 -10.34691 -10.34260 -10.31508
 Alpha  occ. eigenvalues --  -10.29918 -10.29540 -10.29153 -10.27436 -10.27066
 Alpha  occ. eigenvalues --  -10.26934 -10.26882 -10.26713 -10.26698 -10.26024
 Alpha  occ. eigenvalues --  -10.25718 -10.25544 -10.25280 -10.25109 -10.24482
 Alpha  occ. eigenvalues --  -10.24451 -10.24205 -10.24182 -10.24140 -10.24069
 Alpha  occ. eigenvalues --  -10.23900 -10.23881 -10.23466 -10.23395 -10.23263
 Alpha  occ. eigenvalues --  -10.23240 -10.23152 -10.23115 -10.22946 -10.22670
 Alpha  occ. eigenvalues --  -10.22623 -10.22595 -10.22570 -10.22428 -10.22015
 Alpha  occ. eigenvalues --  -10.22009 -10.22002 -10.21813 -10.21774 -10.21701
 Alpha  occ. eigenvalues --  -10.21686 -10.21599 -10.21537 -10.21266 -10.21037
 Alpha  occ. eigenvalues --  -10.21034 -10.20595 -10.20315 -10.19110 -10.18869
 Alpha  occ. eigenvalues --  -10.18279  -3.10221  -1.85156  -1.84702  -1.84628
 Alpha  occ. eigenvalues --   -1.13560  -1.11660  -1.11033  -1.10673  -1.10144
 Alpha  occ. eigenvalues --   -1.03927  -1.03252  -1.02692  -1.00331  -0.99642
 Alpha  occ. eigenvalues --   -0.98753  -0.88500  -0.87555  -0.86019  -0.85913
 Alpha  occ. eigenvalues --   -0.85512  -0.85281  -0.84490  -0.83975  -0.83297
 Alpha  occ. eigenvalues --   -0.83256  -0.82931  -0.82264  -0.80364  -0.79799
 Alpha  occ. eigenvalues --   -0.79130  -0.78570  -0.77316  -0.76952  -0.76657
 Alpha  occ. eigenvalues --   -0.75700  -0.75515  -0.74449  -0.72551  -0.71962
 Alpha  occ. eigenvalues --   -0.71559  -0.71149  -0.70684  -0.70426  -0.69674
 Alpha  occ. eigenvalues --   -0.69565  -0.68842  -0.67424  -0.67080  -0.66761
 Alpha  occ. eigenvalues --   -0.65956  -0.65052  -0.64561  -0.63110  -0.62360
 Alpha  occ. eigenvalues --   -0.61270  -0.60574  -0.59454  -0.58675  -0.58572
 Alpha  occ. eigenvalues --   -0.58488  -0.57840  -0.57465  -0.57012  -0.56916
 Alpha  occ. eigenvalues --   -0.56484  -0.56357  -0.56023  -0.55834  -0.54310
 Alpha  occ. eigenvalues --   -0.54106  -0.53492  -0.52972  -0.52686  -0.52122
 Alpha  occ. eigenvalues --   -0.51608  -0.51390  -0.51266  -0.51199  -0.50589
 Alpha  occ. eigenvalues --   -0.50145  -0.49738  -0.49537  -0.49315  -0.49277
 Alpha  occ. eigenvalues --   -0.49182  -0.48871  -0.48440  -0.48110  -0.48002
 Alpha  occ. eigenvalues --   -0.47880  -0.47621  -0.47326  -0.47164  -0.47124
 Alpha  occ. eigenvalues --   -0.46855  -0.46754  -0.46685  -0.46289  -0.46174
 Alpha  occ. eigenvalues --   -0.45984  -0.45793  -0.45598  -0.45123  -0.45020
 Alpha  occ. eigenvalues --   -0.44848  -0.44720  -0.44451  -0.44337  -0.44123
 Alpha  occ. eigenvalues --   -0.43873  -0.43639  -0.43478  -0.43435  -0.43093
 Alpha  occ. eigenvalues --   -0.42846  -0.42646  -0.42466  -0.42363  -0.42326
 Alpha  occ. eigenvalues --   -0.42021  -0.41777  -0.41730  -0.41480  -0.41184
 Alpha  occ. eigenvalues --   -0.41080  -0.40973  -0.40823  -0.40644  -0.40441
 Alpha  occ. eigenvalues --   -0.40376  -0.40083  -0.39748  -0.39645  -0.39476
 Alpha  occ. eigenvalues --   -0.39440  -0.38950  -0.38699  -0.38639  -0.38447
 Alpha  occ. eigenvalues --   -0.38159  -0.37692  -0.37646  -0.37522  -0.37400
 Alpha  occ. eigenvalues --   -0.37348  -0.36493  -0.36089  -0.35630  -0.35556
 Alpha  occ. eigenvalues --   -0.35316  -0.34984  -0.34766  -0.34620  -0.34457
 Alpha  occ. eigenvalues --   -0.34250  -0.33724  -0.33545  -0.33142  -0.32819
 Alpha  occ. eigenvalues --   -0.32265  -0.32056  -0.31806  -0.31699  -0.31206
 Alpha  occ. eigenvalues --   -0.30780  -0.30718  -0.30241  -0.29986  -0.29771
 Alpha  occ. eigenvalues --   -0.29064  -0.28348  -0.28052  -0.27431  -0.27296
 Alpha  occ. eigenvalues --   -0.26948  -0.26908  -0.22875  -0.21516
 Alpha virt. eigenvalues --   -0.09241  -0.06183  -0.01066   0.00254   0.01457
 Alpha virt. eigenvalues --    0.03185   0.03354   0.04114   0.04478   0.04680
 Alpha virt. eigenvalues --    0.04954   0.05922   0.08448   0.08910   0.09349

 Mulliken charges:
               1
     1  Mg   0.831483
     2  C    0.073903
     3  C   -0.152570
     4  C   -0.167989
     5  C   -0.160638
     6  N   -0.621306
     7  C    0.297862
     8  C   -0.161101
     9  C   -0.152791
    10  C    0.336205
    11  C   -0.297984
    12  C   -0.155919
    13  C   -0.254985
    14  C    0.591180
    15  O   -0.489990
    16  O   -0.463831
    17  N   -0.734289
    18  C    0.268196
    19  C    0.040746
    20  C   -0.032901
    21  C    0.321683
    22  C   -0.362454
    23  C    0.262685
    24  O   -0.390146
    25  N   -0.685532
    26  C    0.300237
    27  C   -0.033740
    28  C    0.059200
    29  C    0.317927
    30  C    0.267064
    31  C   -0.289343
    32  C   -0.330871
    33  N   -0.719026
    34  C    0.217349
    35  C    0.082466
    36  C    0.060008
    37  C    0.327022
    38  C   -0.395591
    39  C    0.293537
    40  O   -0.398421
    41  C   -0.345797
    42  C    0.608449
    43  O   -0.491172
    44  O   -0.463118
    45  C   -0.078826
    46  C    0.007516
    47  C   -0.159831
    48  C    0.136130
    49  C   -0.371824
    50  C   -0.221754
    51  C   -0.175756
    52  C   -0.145310
    53  C   -0.064209
    54  C   -0.312467
    55  C   -0.186107
    56  C   -0.178463
    57  C   -0.148469
    58  C   -0.055745
    59  C   -0.330297
    60  C   -0.167189
    61  C   -0.163482
    62  C   -0.149499
    63  C   -0.039152
    64  C   -0.296705
    65  C   -0.303714
    66  H    0.078128
    67  H    0.125300
    68  H    0.098218
    69  H    0.134309
    70  H    0.108654
    71  H    0.079141
    72  H    0.090369
    73  H    0.148613
    74  H    0.124714
    75  H    0.122340
    76  H    0.122821
    77  H    0.135989
    78  H    0.107262
    79  H    0.158083
    80  H    0.125553
    81  H    0.031512
    82  H    0.113463
    83  H    0.126961
    84  H    0.120941
    85  H    0.125817
    86  H    0.102826
    87  H    0.139660
    88  H    0.136480
    89  H    0.134775
    90  H    0.142002
    91  H    0.112771
    92  H    0.129695
    93  H    0.087544
    94  H    0.141865
    95  H    0.118190
    96  H    0.139574
    97  H    0.110617
    98  H    0.094150
    99  H    0.084561
   100  H    0.074909
   101  H    0.073844
   102  H    0.058716
   103  H    0.055867
   104  H    0.112035
   105  H    0.107239
   106  H    0.089373
   107  H    0.074236
   108  H    0.097896
   109  H    0.086138
   110  H    0.103283
   111  H    0.056614
   112  H    0.079168
   113  H    0.093727
   114  H    0.096980
   115  H    0.116712
   116  H    0.108615
   117  H    0.093910
   118  H    0.069464
   119  H    0.101464
   120  H    0.096223
   121  H    0.084619
   122  H    0.064859
   123  H    0.058879
   124  H    0.087762
   125  H    0.085195
   126  H    0.096685
   127  H    0.102547
   128  H    0.106029
   129  H    0.076997
   130  H    0.129707
   131  H    0.115463
   132  H    0.142576
   133  O   -0.367484
   134  H    0.016312
 Sum of Mulliken charges =  -0.00000

 Dipole moment (field-independent basis, Debye):
    X=              1.4823    Y=             -4.1977    Z=             -1.6580  Tot=              4.7504
 Quadrupole moment (field-independent basis, Debye-Ang):
   XX=           -368.1393   YY=           -440.7681   ZZ=           -397.0466
   XY=              1.3027   XZ=             31.1314   YZ=            -34.9519

 Normal termination of Gaussian 16 at Mon Oct  7 13:29:33 2019.
