 Gaussian 16, Revision A.03,
 Gaussian 16:  ES64L-G16RevA.03 25-Dec-2016

 ----------------------------------------------------------------------
 # td=(NStates=1) iop(3/107=0140000000,3/108=0140000000) iop(3/107=0140
 000000,3/108=0140000000) CAM-B3LYP/6-31G(d,p)
 ----------------------------------------------------------------------

 --
 TD
 --
 Symbolic Z-matrix:
 Charge =  0 Multiplicity = 1

                         Standard orientation:
 ---------------------------------------------------------------------
 Center     Atomic      Atomic             Coordinates (Angstroms)
 Number     Number       Type             X           Y           Z
 ---------------------------------------------------------------------
      1         12           0       -5.581841    1.165016    0.110457
      2          6           0       -5.117667   -2.147860   -0.319175
      3          6           0       -3.384147    1.177730    2.680135
      4          6           0       -6.167285    4.558770    0.644533
      5          6           0       -8.034623    1.232538   -2.393830
      6          7           0       -4.420977   -0.222221    1.032621
      7          6           0       -4.317500   -1.531840    0.620036
      8          6           0       -3.272246   -2.397463    1.373899
      9          6           0       -2.966924   -1.385887    2.547468
     10          6           0       -3.578747   -0.013940    2.060214
     11          6           0       -3.508009   -1.853450    3.935946
     12          6           0       -2.008750   -2.758691    0.566684
     13          6           0       -0.980445   -3.516800    1.399812
     14          6           0        0.295230   -3.898232    0.646943
     15          8           0        0.459434   -3.576243   -0.535081
     16          8           0        1.179728   -4.677247    1.339533
     17          7           0       -4.877333    2.620698    1.463017
     18          6           0       -3.930737    2.362839    2.455964
     19          6           0       -3.683212    3.626335    3.106252
     20          6           0       -4.501490    4.551122    2.594545
     21          6           0       -5.300481    3.944481    1.615418
     22          6           0       -2.692849    3.839023    4.238082
     23          6           0       -4.586235    6.039678    2.826133
     24          8           0       -4.035598    6.617348    3.797255
     25          7           0       -6.952419    2.652721   -0.749476
     26          6           0       -6.977106    3.948793   -0.333413
     27          6           0       -7.974357    4.673242   -1.218257
     28          6           0       -8.450231    3.618967   -2.001626
     29          6           0       -7.837795    2.474254   -1.751179
     30          6           0       -8.343653    6.055153   -1.030337
     31          6           0       -9.568774    3.789571   -3.059809
     32          6           0       -8.933501    4.101117   -4.442398
     33          7           0       -6.460759   -0.160563   -1.056512
     34          6           0       -7.416574   -0.045505   -2.077383
     35          6           0       -7.711731   -1.322464   -2.635251
     36          6           0       -6.782229   -2.211086   -1.984322
     37          6           0       -6.103313   -1.407810   -1.082701
     38          6           0       -8.760559   -1.639783   -3.719435
     39          6           0       -6.262197   -3.566078   -1.922880
     40          8           0       -6.672748   -4.571843   -2.541620
     41          6           0       -5.136745   -3.529981   -0.940564
     42          6           0       -5.341134   -4.638286    0.139631
     43          8           0       -5.697175   -4.463808    1.298150
     44          8           0       -5.076098   -5.804335   -0.375523
     45          6           0       -5.395840   -6.942384    0.481016
     46          6           0        2.308719   -5.056676    0.663001
     47          6           0        3.529737   -4.098417    0.969328
     48          6           0        3.983746   -3.185527    0.035856
     49          6           0        3.641202   -3.025933   -1.244494
     50          6           0        5.225576   -2.346651    0.614234
     51          6           0        6.544118   -2.620416   -0.044642
     52          6           0        7.668722   -1.813247    0.548073
     53          6           0        9.123718   -1.991573   -0.142599
     54          6           0        9.593347   -3.415101    0.137108
     55          6           0       10.022531   -0.908521    0.534371
     56          6           0       11.508762   -0.914511   -0.127903
     57          6           0       12.336947    0.224208    0.254147
     58          6           0       13.645295    0.394623   -0.572042
     59          6           0       14.614477   -0.675265   -0.402636
     60          6           0       14.210574    1.815271   -0.179482
     61          6           0       15.617195    2.062307   -0.864955
     62          6           0       16.156229    3.548064   -0.527281
     63          6           0       17.473798    3.874213   -1.400208
     64          6           0       17.173909    3.965662   -2.989889
     65          6           0       18.009495    5.272858   -0.912460
     66          1           0       -2.577336    1.210848    3.479532
     67          1           0       -6.204482    5.628462    0.911766
     68          1           0       -8.686864    1.102957   -3.166778
     69          1           0       -3.620295   -3.351354    1.823512
     70          1           0       -1.872153   -1.163202    2.704565
     71          1           0       -3.110185   -2.822918    4.322161
     72          1           0       -3.396139   -1.010696    4.653420
     73          1           0       -4.522740   -2.313845    3.749359
     74          1           0       -2.022807   -3.326337   -0.327341
     75          1           0       -1.436652   -1.909660    0.271220
     76          1           0       -0.767117   -2.872236    2.147351
     77          1           0       -1.372740   -4.374490    1.832688
     78          1           0       -1.770053    3.595937    3.850783
     79          1           0       -2.790379    4.795998    4.697460
     80          1           0       -2.843194    3.022768    4.955773
     81          1           0       -5.335069    6.607983    2.142333
     82          1           0      -10.346381    3.104067   -3.208824
     83          1           0      -10.264333    4.634626   -2.751486
     84          1           0       -9.825134    4.215228   -5.147035
     85          1           0       -8.293107    5.050659   -4.390766
     86          1           0       -8.365942    3.257497   -5.046873
     87          1           0       -8.476815   -1.218166   -4.748260
     88          1           0       -8.545996   -2.673423   -3.979024
     89          1           0       -9.828383   -1.519128   -3.368981
     90          1           0       -4.223756   -3.927459   -1.621293
     91          1           0        2.545856   -6.051122    0.996752
     92          1           0        2.384649   -5.226212   -0.479238
     93          1           0        3.802978   -3.994636    2.096269
     94          1           0        2.672041   -3.296448   -1.520173
     95          1           0        3.614452   -1.900781   -1.417864
     96          1           0        4.401754   -3.543016   -1.820147
     97          1           0        4.881060   -1.402401    0.501758
     98          1           0        5.352548   -2.535456    1.648485
     99          1           0        6.731369   -3.792867    0.051162
    100          1           0        6.520373   -2.614372   -1.079639
    101          1           0        7.411869   -0.696583    0.360432
    102          1           0        7.679747   -1.868573    1.514744
    103          1           0        9.173785   -1.996949   -1.281213
    104          1           0        8.957173   -4.067356   -0.252122
    105          1           0       10.542233   -3.566989   -0.197577
    106          1           0        9.647173   -3.767482    1.291570
    107          1           0        9.352072    0.139715    0.354181
    108          1           0       10.215153   -1.099461    1.646984
    109          1           0       11.947697   -2.046979   -0.035718
    110          1           0       11.407932   -0.791354   -1.167047
    111          1           0       11.676417    1.157903    0.049036
    112          1           0       12.541192    0.248021    1.311959
    113          1           0       13.461883    0.707812   -1.587171
    114          1           0       15.067698   -0.928155    0.580208
    115          1           0       14.094173   -1.696612   -0.657655
    116          1           0       15.526294   -0.601438   -0.954787
    117          1           0       13.513605    2.768513   -0.496800
    118          1           0       14.215727    2.036446    0.906911
    119          1           0       16.514638    1.310866   -0.685068
    120          1           0       15.523748    2.110134   -1.885768
    121          1           0       15.550719    4.284490   -0.864937
    122          1           0       16.638961    3.424331    0.483983
    123          1           0       18.100916    3.124669   -0.900001
    124          1           0       16.421310    4.827594   -3.050127
    125          1           0       18.064311    4.555167   -3.419791
    126          1           0       16.989206    3.002830   -3.286122
    127          1           0       18.372912    5.134650    0.182786
    128          1           0       18.944571    5.350777   -1.464841
    129          1           0       17.332232    6.011910   -1.080507
    130          1           0       -5.221776   -7.909451   -0.081123
    131          1           0       -6.410428   -7.023159    0.776563
    132          1           0       -4.731652   -7.104589    1.255519
    133          8           0       -7.867471    6.876427   -0.331561
    134          1           0       -9.226047    6.416794   -1.697449
 ---------------------------------------------------------------------

 SCF Done:  E(RCAM-B3LYP) =  -3043.50335864     A.U. after   15 cycles

 Excitation energies and oscillator strengths:

 Excited State   1:      Singlet-A      2.1077 eV  588.24 nm  f=0.1623  <S**2>=0.000
     243 -> 246        0.27777
     244 -> 245        0.63879
 This state for optimization and/or second-order correction.
 Total Energy, E(TD-HF/TD-DFT) =  -3043.42590092
 Copying the excited state density for this state as the 1-particle RhoCI density.

 The electronic state is 1-A.
 Alpha  occ. eigenvalues --  -46.81745 -19.24094 -19.23624 -19.17845 -19.17674
 Alpha  occ. eigenvalues --  -19.17224 -19.16867 -19.16379 -14.39615 -14.36672
 Alpha  occ. eigenvalues --  -14.36602 -14.36387 -10.35931 -10.35619 -10.31775
 Alpha  occ. eigenvalues --  -10.31040 -10.30039 -10.28222 -10.27940 -10.27499
 Alpha  occ. eigenvalues --  -10.27262 -10.27004 -10.26629 -10.26316 -10.26308
 Alpha  occ. eigenvalues --  -10.26297 -10.25893 -10.25353 -10.25336 -10.25297
 Alpha  occ. eigenvalues --  -10.25251 -10.24871 -10.24310 -10.24256 -10.24102
 Alpha  occ. eigenvalues --  -10.24046 -10.23715 -10.23512 -10.23483 -10.23168
 Alpha  occ. eigenvalues --  -10.23119 -10.22952 -10.22865 -10.22812 -10.22627
 Alpha  occ. eigenvalues --  -10.22562 -10.22245 -10.22158 -10.22090 -10.21934
 Alpha  occ. eigenvalues --  -10.21503 -10.21484 -10.21441 -10.21346 -10.21136
 Alpha  occ. eigenvalues --  -10.21065 -10.21012 -10.20827 -10.20573 -10.20389
 Alpha  occ. eigenvalues --  -10.20287 -10.20015 -10.19955 -10.19838 -10.19652
 Alpha  occ. eigenvalues --  -10.18827  -3.10307  -1.85248  -1.84785  -1.84708
 Alpha  occ. eigenvalues --   -1.15407  -1.14478  -1.08766  -1.05046  -1.05003
 Alpha  occ. eigenvalues --   -1.04901  -1.04787  -1.01639  -1.00591  -1.00409
 Alpha  occ. eigenvalues --   -0.98905  -0.89150  -0.86607  -0.86309  -0.85821
 Alpha  occ. eigenvalues --   -0.85034  -0.84664  -0.83556  -0.83485  -0.83455
 Alpha  occ. eigenvalues --   -0.82886  -0.82205  -0.81772  -0.80356  -0.79834
 Alpha  occ. eigenvalues --   -0.79030  -0.78184  -0.77767  -0.77569  -0.77199
 Alpha  occ. eigenvalues --   -0.75722  -0.75155  -0.74155  -0.73987  -0.72847
 Alpha  occ. eigenvalues --   -0.72000  -0.70579  -0.70541  -0.70040  -0.70023
 Alpha  occ. eigenvalues --   -0.69554  -0.68790  -0.67747  -0.66552  -0.65858
 Alpha  occ. eigenvalues --   -0.65458  -0.64757  -0.64479  -0.62868  -0.62492
 Alpha  occ. eigenvalues --   -0.62328  -0.61749  -0.60170  -0.59902  -0.59665
 Alpha  occ. eigenvalues --   -0.58946  -0.58217  -0.57827  -0.57561  -0.57432
 Alpha  occ. eigenvalues --   -0.56488  -0.56145  -0.55829  -0.55242  -0.55078
 Alpha  occ. eigenvalues --   -0.54232  -0.53775  -0.53569  -0.53148  -0.52827
 Alpha  occ. eigenvalues --   -0.52270  -0.51665  -0.51468  -0.51198  -0.50573
 Alpha  occ. eigenvalues --   -0.50345  -0.50086  -0.49708  -0.49511  -0.48930
 Alpha  occ. eigenvalues --   -0.48818  -0.48486  -0.48306  -0.48157  -0.48004
 Alpha  occ. eigenvalues --   -0.47917  -0.47631  -0.47349  -0.47320  -0.47094
 Alpha  occ. eigenvalues --   -0.46835  -0.46669  -0.46542  -0.46325  -0.46257
 Alpha  occ. eigenvalues --   -0.45934  -0.45867  -0.45547  -0.45163  -0.44962
 Alpha  occ. eigenvalues --   -0.44733  -0.44689  -0.44232  -0.44122  -0.43940
 Alpha  occ. eigenvalues --   -0.43889  -0.43613  -0.43514  -0.43210  -0.42737
 Alpha  occ. eigenvalues --   -0.42641  -0.42426  -0.42332  -0.42315  -0.41923
 Alpha  occ. eigenvalues --   -0.41796  -0.41702  -0.41575  -0.41360  -0.40934
 Alpha  occ. eigenvalues --   -0.40746  -0.40725  -0.40709  -0.40576  -0.40394
 Alpha  occ. eigenvalues --   -0.40206  -0.39875  -0.39766  -0.39271  -0.39167
 Alpha  occ. eigenvalues --   -0.38901  -0.38831  -0.38730  -0.38720  -0.38039
 Alpha  occ. eigenvalues --   -0.37917  -0.37723  -0.37108  -0.37065  -0.36701
 Alpha  occ. eigenvalues --   -0.36527  -0.36177  -0.36109  -0.36005  -0.35688
 Alpha  occ. eigenvalues --   -0.35617  -0.35108  -0.34974  -0.34760  -0.34744
 Alpha  occ. eigenvalues --   -0.34253  -0.34101  -0.33943  -0.33570  -0.33248
 Alpha  occ. eigenvalues --   -0.32839  -0.32189  -0.32080  -0.31817  -0.31166
 Alpha  occ. eigenvalues --   -0.31032  -0.30863  -0.30447  -0.30229  -0.28940
 Alpha  occ. eigenvalues --   -0.28696  -0.28366  -0.28010  -0.27790  -0.27760
 Alpha  occ. eigenvalues --   -0.27288  -0.26045  -0.23392  -0.22397
 Alpha virt. eigenvalues --   -0.09011  -0.06994  -0.01924  -0.00866   0.00453
 Alpha virt. eigenvalues --    0.02688   0.02837   0.03181   0.04396   0.04493
 Alpha virt. eigenvalues --    0.05042   0.05594   0.08366   0.08832   0.09733

 Mulliken charges:
               1
     1  Mg   0.832461
     2  C    0.110351
     3  C   -0.222649
     4  C   -0.149717
     5  C   -0.137990
     6  N   -0.664443
     7  C    0.304848
     8  C   -0.147181
     9  C   -0.154319
    10  C    0.369632
    11  C   -0.316741
    12  C   -0.181160
    13  C   -0.269051
    14  C    0.592696
    15  O   -0.468864
    16  O   -0.427842
    17  N   -0.706293
    18  C    0.360439
    19  C    0.018703
    20  C   -0.000141
    21  C    0.257375
    22  C   -0.372958
    23  C    0.241637
    24  O   -0.424786
    25  N   -0.690796
    26  C    0.279018
    27  C   -0.008933
    28  C    0.006559
    29  C    0.363124
    30  C    0.238188
    31  C   -0.246340
    32  C   -0.305679
    33  N   -0.750901
    34  C    0.242048
    35  C    0.005811
    36  C    0.040926
    37  C    0.310738
    38  C   -0.393744
    39  C    0.359708
    40  O   -0.487427
    41  C   -0.335770
    42  C    0.629701
    43  O   -0.488854
    44  O   -0.412189
    45  C   -0.103000
    46  C   -0.010074
    47  C   -0.162945
    48  C    0.136637
    49  C   -0.383741
    50  C   -0.208268
    51  C   -0.178339
    52  C   -0.152837
    53  C   -0.060884
    54  C   -0.297793
    55  C   -0.157959
    56  C   -0.178497
    57  C   -0.166558
    58  C   -0.038578
    59  C   -0.309728
    60  C   -0.181945
    61  C   -0.189351
    62  C   -0.165599
    63  C   -0.095163
    64  C   -0.309768
    65  C   -0.307473
    66  H    0.079287
    67  H    0.117182
    68  H    0.088185
    69  H    0.128883
    70  H    0.097906
    71  H    0.113153
    72  H    0.114576
    73  H    0.129878
    74  H    0.123868
    75  H    0.117392
    76  H    0.141024
    77  H    0.131664
    78  H    0.132568
    79  H    0.161314
    80  H    0.116721
    81  H    0.100173
    82  H    0.117176
    83  H    0.107964
    84  H    0.098807
    85  H    0.115987
    86  H    0.099654
    87  H    0.123911
    88  H    0.155881
    89  H    0.134814
    90  H    0.164162
    91  H    0.106047
    92  H    0.112880
    93  H    0.074109
    94  H    0.154627
    95  H    0.103852
    96  H    0.127952
    97  H    0.100422
    98  H    0.096049
    99  H    0.068578
   100  H    0.099318
   101  H    0.067634
   102  H    0.104450
   103  H    0.083724
   104  H    0.111749
   105  H    0.104758
   106  H    0.064366
   107  H    0.058905
   108  H    0.092550
   109  H    0.072599
   110  H    0.099885
   111  H    0.080924
   112  H    0.091805
   113  H    0.098624
   114  H    0.101768
   115  H    0.083567
   116  H    0.109334
   117  H    0.062305
   118  H    0.089161
   119  H    0.072347
   120  H    0.102267
   121  H    0.091821
   122  H    0.090405
   123  H    0.081852
   124  H    0.099086
   125  H    0.098524
   126  H    0.123509
   127  H    0.084638
   128  H    0.101631
   129  H    0.109646
   130  H    0.118447
   131  H    0.148642
   132  H    0.136125
   133  O   -0.400472
   134  H    0.030132
 Sum of Mulliken charges =  -0.00000

 Dipole moment (field-independent basis, Debye):
    X=              1.9881    Y=             -5.0875    Z=             -1.4056  Tot=              5.6401
 Quadrupole moment (field-independent basis, Debye-Ang):
   XX=           -383.1622   YY=           -438.0908   ZZ=           -395.3250
   XY=             14.8800   XZ=             16.3398   YZ=            -33.1853

 Normal termination of Gaussian 16 at Tue Oct  8 16:02:28 2019.
