 Gaussian 16, Revision A.03,
 Gaussian 16:  ES64L-G16RevA.03 25-Dec-2016

 ----------------------------------------------------------------------
 # td=(NStates=1) iop(3/107=0140000000,3/108=0140000000) iop(3/107=0140
 000000,3/108=0140000000) CAM-B3LYP/6-31G(d,p)
 ----------------------------------------------------------------------

 --
 TD
 --
 Symbolic Z-matrix:
 Charge =  0 Multiplicity = 1

                         Standard orientation:
 ---------------------------------------------------------------------
 Center     Atomic      Atomic             Coordinates (Angstroms)
 Number     Number       Type             X           Y           Z
 ---------------------------------------------------------------------
      1         12           0       -5.572909    1.269465    0.077801
      2          6           0       -5.112961   -2.097645   -0.379785
      3          6           0       -3.448851    1.035945    2.791496
      4          6           0       -6.037971    4.592498    0.771262
      5          6           0       -7.920360    1.318634   -2.419200
      6          7           0       -4.239403   -0.257626    1.073047
      7          6           0       -4.262480   -1.540380    0.612751
      8          6           0       -3.280785   -2.418325    1.380281
      9          6           0       -2.939318   -1.456319    2.641745
     10          6           0       -3.513353   -0.160199    2.121283
     11          6           0       -3.470239   -2.021377    3.928831
     12          6           0       -2.016412   -2.715939    0.541889
     13          6           0       -1.006620   -3.612381    1.220819
     14          6           0        0.208473   -3.992635    0.407938
     15          8           0        0.302235   -3.613808   -0.733060
     16          8           0        1.129745   -4.754281    1.105287
     17          7           0       -4.865292    2.510759    1.510108
     18          6           0       -4.043705    2.278183    2.540294
     19          6           0       -3.701020    3.492457    3.302835
     20          6           0       -4.523392    4.434438    2.649978
     21          6           0       -5.223653    3.929037    1.586386
     22          6           0       -2.848428    3.604381    4.418220
     23          6           0       -4.583472    5.920453    2.993325
     24          8           0       -3.923868    6.538265    3.889740
     25          7           0       -6.750619    2.669905   -0.750154
     26          6           0       -6.801432    3.955344   -0.390434
     27          6           0       -7.768808    4.658676   -1.171409
     28          6           0       -8.367588    3.749772   -1.994923
     29          6           0       -7.653343    2.521298   -1.793917
     30          6           0       -8.097931    6.129414   -0.993933
     31          6           0       -9.321729    3.990937   -3.164184
     32          6           0       -8.394761    4.204959   -4.461837
     33          7           0       -6.316899   -0.049544   -1.181085
     34          6           0       -7.295540    0.094352   -2.186612
     35          6           0       -7.660175   -1.168641   -2.662873
     36          6           0       -6.820129   -2.114276   -2.096896
     37          6           0       -6.044274   -1.401504   -1.188596
     38          6           0       -8.643681   -1.377620   -3.745305
     39          6           0       -6.417960   -3.533411   -2.049984
     40          8           0       -6.830870   -4.471316   -2.551445
     41          6           0       -5.157501   -3.509348   -0.898969
     42          6           0       -5.366231   -4.630179    0.185332
     43          8           0       -5.768374   -4.414546    1.269363
     44          8           0       -5.239484   -5.895103   -0.295994
     45          6           0       -5.483656   -6.932185    0.683717
     46          6           0        2.346792   -5.144749    0.350405
     47          6           0        3.445532   -4.130315    0.934206
     48          6           0        4.065219   -3.190897    0.167486
     49          6           0        3.696618   -2.967038   -1.322260
     50          6           0        5.211392   -2.343958    0.731538
     51          6           0        6.521784   -2.685946    0.029788
     52          6           0        7.649040   -1.834858    0.573630
     53          6           0        9.001469   -1.975241   -0.102610
     54          6           0        9.570279   -3.382063    0.224874
     55          6           0        9.873747   -0.943464    0.459482
     56          6           0       11.307601   -0.752690   -0.292330
     57          6           0       12.145880    0.358189    0.276456
     58          6           0       13.573765    0.352492   -0.590137
     59          6           0       14.470812   -0.865037   -0.435249
     60          6           0       14.255621    1.661338   -0.147057
     61          6           0       15.508754    2.060910   -1.053528
     62          6           0       16.008554    3.504050   -0.619155
     63          6           0       17.311212    3.988273   -1.301150
     64          6           0       17.102978    4.163479   -2.789763
     65          6           0       17.813449    5.224771   -0.590946
     66          1           0       -2.842240    1.011953    3.730181
     67          1           0       -6.325784    5.619402    0.943506
     68          1           0       -8.727025    1.423531   -3.260834
     69          1           0       -3.666527   -3.236679    1.617737
     70          1           0       -1.953829   -1.405440    2.695064
     71          1           0       -2.871985   -2.813930    4.316548
     72          1           0       -3.439884   -1.165661    4.565031
     73          1           0       -4.431894   -2.379521    3.962642
     74          1           0       -2.443210   -3.104647   -0.383570
     75          1           0       -1.632062   -1.768377    0.163802
     76          1           0       -0.628441   -3.065347    2.115463
     77          1           0       -1.604861   -4.488098    1.560544
     78          1           0       -1.856304    3.228313    4.020089
     79          1           0       -2.889354    4.673467    4.431543
     80          1           0       -3.015361    2.989270    5.284510
     81          1           0       -5.552584    6.436768    2.468452
     82          1           0      -10.048357    2.979481   -3.307739
     83          1           0       -9.852354    5.066736   -2.959150
     84          1           0       -8.981892    4.505717   -5.168682
     85          1           0       -7.956947    5.071211   -4.193118
     86          1           0       -7.856536    3.255039   -4.547599
     87          1           0       -8.355995   -0.839158   -4.943147
     88          1           0       -8.584529   -2.510132   -4.093239
     89          1           0       -9.604938   -1.152186   -3.469509
     90          1           0       -4.311354   -3.771706   -1.488515
     91          1           0        2.627665   -6.216533    0.711643
     92          1           0        1.964126   -5.125990   -0.670019
     93          1           0        3.800470   -4.133811    1.924399
     94          1           0        2.810269   -3.392242   -1.685323
     95          1           0        3.928173   -1.856636   -1.592530
     96          1           0        4.355882   -3.704421   -1.981417
     97          1           0        4.849886   -1.270904    0.815527
     98          1           0        5.336110   -2.908413    1.705879
     99          1           0        6.625811   -3.823105    0.146269
    100          1           0        6.344124   -2.777652   -0.944130
    101          1           0        7.440993   -0.705777    0.278736
    102          1           0        7.868598   -1.901741    1.795205
    103          1           0        8.853897   -1.934118   -1.207048
    104          1           0        8.868463   -4.175357   -0.175872
    105          1           0       10.607380   -3.527242   -0.253191
    106          1           0        9.718520   -3.401553    1.484414
    107          1           0        9.420043    0.166368    0.412962
    108          1           0       10.200245   -1.280807    1.517517
    109          1           0       11.658293   -1.794305   -0.044716
    110          1           0       11.127193   -0.881450   -1.393307
    111          1           0       11.594449    1.336707   -0.207153
    112          1           0       12.278520    0.329228    1.439029
    113          1           0       13.267182    0.436528   -1.736668
    114          1           0       14.603277   -0.946420    0.620727
    115          1           0       13.798810   -1.690075   -0.824983
    116          1           0       15.256889   -0.897842   -1.028100
    117          1           0       13.640736    2.412620   -0.246665
    118          1           0       14.618563    1.329031    0.829340
    119          1           0       16.247460    1.373989   -0.859765
    120          1           0       15.036085    1.892638   -2.067662
    121          1           0       15.221778    4.266353   -0.608609
    122          1           0       16.253541    3.272059    0.420294
    123          1           0       18.051098    3.184097   -1.223087
    124          1           0       16.424577    4.907601   -3.229461
    125          1           0       18.004693    4.395892   -3.403229
    126          1           0       16.772274    3.193363   -3.253348
    127          1           0       18.312891    4.832251    0.392657
    128          1           0       18.704895    5.656183   -1.051344
    129          1           0       16.999351    5.896164   -0.342295
    130          1           0       -5.229439   -7.819169    0.323983
    131          1           0       -6.539759   -6.967888    0.676717
    132          1           0       -4.904013   -6.735816    1.662409
    133          8           0       -7.615316    6.950518   -0.316508
    134          1           0       -8.905201    6.408365   -1.723104
 ---------------------------------------------------------------------

 SCF Done:  E(RCAM-B3LYP) =  -3043.45780419     A.U. after   15 cycles

 Excitation energies and oscillator strengths:

 Excited State   1:      Singlet-A      2.1841 eV  567.67 nm  f=0.1297  <S**2>=0.000
     243 -> 246       -0.29162
     244 -> 245        0.62202
 This state for optimization and/or second-order correction.
 Total Energy, E(TD-HF/TD-DFT) =  -3043.37754044
 Copying the excited state density for this state as the 1-particle RhoCI density.

 The electronic state is 1-A.
 Alpha  occ. eigenvalues --  -46.80808 -19.21785 -19.21654 -19.18530 -19.18406
 Alpha  occ. eigenvalues --  -19.18218 -19.17388 -19.16771 -14.38044 -14.36936
 Alpha  occ. eigenvalues --  -14.36385 -14.36098 -10.35071 -10.34450 -10.32138
 Alpha  occ. eigenvalues --  -10.32085 -10.31028 -10.29328 -10.27090 -10.26919
 Alpha  occ. eigenvalues --  -10.26519 -10.26468 -10.26391 -10.26232 -10.25771
 Alpha  occ. eigenvalues --  -10.25540 -10.25432 -10.25368 -10.25297 -10.24951
 Alpha  occ. eigenvalues --  -10.24514 -10.24366 -10.24356 -10.24320 -10.24033
 Alpha  occ. eigenvalues --  -10.23839 -10.23590 -10.23539 -10.23505 -10.23140
 Alpha  occ. eigenvalues --  -10.22967 -10.22778 -10.22664 -10.22557 -10.22356
 Alpha  occ. eigenvalues --  -10.22326 -10.22114 -10.22031 -10.21975 -10.21834
 Alpha  occ. eigenvalues --  -10.21826 -10.21821 -10.21545 -10.21500 -10.21498
 Alpha  occ. eigenvalues --  -10.21324 -10.21088 -10.21021 -10.20624 -10.20507
 Alpha  occ. eigenvalues --  -10.20407 -10.20247 -10.20170 -10.19601 -10.19133
 Alpha  occ. eigenvalues --  -10.18765  -3.09510  -1.84437  -1.84023  -1.83891
 Alpha  occ. eigenvalues --   -1.13771  -1.12220  -1.12002  -1.10523  -1.05248
 Alpha  occ. eigenvalues --   -1.04673  -1.04300  -1.01715  -1.00554  -0.99134
 Alpha  occ. eigenvalues --   -0.98653  -0.87789  -0.86206  -0.85884  -0.85391
 Alpha  occ. eigenvalues --   -0.84621  -0.84557  -0.84513  -0.84064  -0.83664
 Alpha  occ. eigenvalues --   -0.83241  -0.82720  -0.81919  -0.80206  -0.79371
 Alpha  occ. eigenvalues --   -0.78948  -0.77955  -0.77568  -0.76979  -0.76023
 Alpha  occ. eigenvalues --   -0.75419  -0.75067  -0.73560  -0.73085  -0.72043
 Alpha  occ. eigenvalues --   -0.71058  -0.70792  -0.70583  -0.69656  -0.69176
 Alpha  occ. eigenvalues --   -0.68728  -0.68240  -0.67512  -0.66419  -0.66343
 Alpha  occ. eigenvalues --   -0.65663  -0.64494  -0.63997  -0.63406  -0.62532
 Alpha  occ. eigenvalues --   -0.62156  -0.60436  -0.59492  -0.58656  -0.58421
 Alpha  occ. eigenvalues --   -0.58204  -0.57794  -0.57784  -0.56931  -0.56757
 Alpha  occ. eigenvalues --   -0.56165  -0.55484  -0.55126  -0.54794  -0.54422
 Alpha  occ. eigenvalues --   -0.53775  -0.53348  -0.52891  -0.52288  -0.52169
 Alpha  occ. eigenvalues --   -0.51915  -0.51814  -0.51717  -0.50738  -0.50551
 Alpha  occ. eigenvalues --   -0.50497  -0.50303  -0.49581  -0.49350  -0.49276
 Alpha  occ. eigenvalues --   -0.49030  -0.48870  -0.48617  -0.48586  -0.48153
 Alpha  occ. eigenvalues --   -0.47930  -0.47811  -0.47554  -0.47388  -0.47095
 Alpha  occ. eigenvalues --   -0.46877  -0.46790  -0.46605  -0.46320  -0.46087
 Alpha  occ. eigenvalues --   -0.45929  -0.45509  -0.45245  -0.45161  -0.45039
 Alpha  occ. eigenvalues --   -0.44880  -0.44725  -0.44397  -0.44238  -0.43926
 Alpha  occ. eigenvalues --   -0.43888  -0.43777  -0.43656  -0.43473  -0.43264
 Alpha  occ. eigenvalues --   -0.42889  -0.42745  -0.42437  -0.42296  -0.42070
 Alpha  occ. eigenvalues --   -0.41718  -0.41573  -0.41480  -0.41149  -0.41090
 Alpha  occ. eigenvalues --   -0.40838  -0.40742  -0.40566  -0.40112  -0.39772
 Alpha  occ. eigenvalues --   -0.39641  -0.39598  -0.39539  -0.39470  -0.39196
 Alpha  occ. eigenvalues --   -0.38868  -0.38707  -0.38351  -0.38018  -0.37949
 Alpha  occ. eigenvalues --   -0.37850  -0.37824  -0.37622  -0.37453  -0.37296
 Alpha  occ. eigenvalues --   -0.36987  -0.36647  -0.35998  -0.35776  -0.35478
 Alpha  occ. eigenvalues --   -0.35369  -0.35219  -0.34915  -0.34584  -0.34559
 Alpha  occ. eigenvalues --   -0.34414  -0.34140  -0.33868  -0.33536  -0.33020
 Alpha  occ. eigenvalues --   -0.32941  -0.32427  -0.32349  -0.32190  -0.31619
 Alpha  occ. eigenvalues --   -0.31317  -0.30814  -0.30689  -0.29528  -0.29124
 Alpha  occ. eigenvalues --   -0.28757  -0.28425  -0.28104  -0.27921  -0.27883
 Alpha  occ. eigenvalues --   -0.27373  -0.26808  -0.22981  -0.21717
 Alpha virt. eigenvalues --   -0.07979  -0.06539  -0.01681  -0.00636   0.01370
 Alpha virt. eigenvalues --    0.03461   0.03740   0.04150   0.04478   0.04680
 Alpha virt. eigenvalues --    0.05213   0.05427   0.07130   0.08254   0.09002

 Mulliken charges:
               1
     1  Mg   0.830208
     2  C    0.113263
     3  C   -0.233434
     4  C   -0.200891
     5  C   -0.170495
     6  N   -0.606985
     7  C    0.285417
     8  C   -0.126371
     9  C   -0.130266
    10  C    0.365575
    11  C   -0.311241
    12  C   -0.177071
    13  C   -0.262790
    14  C    0.608836
    15  O   -0.453844
    16  O   -0.481532
    17  N   -0.731994
    18  C    0.348284
    19  C    0.078590
    20  C   -0.060510
    21  C    0.370322
    22  C   -0.395793
    23  C    0.252863
    24  O   -0.433077
    25  N   -0.710208
    26  C    0.305391
    27  C   -0.053223
    28  C    0.037195
    29  C    0.289692
    30  C    0.276543
    31  C   -0.274712
    32  C   -0.279162
    33  N   -0.745455
    34  C    0.295548
    35  C    0.002827
    36  C    0.058916
    37  C    0.249567
    38  C   -0.370865
    39  C    0.355048
    40  O   -0.375852
    41  C   -0.371302
    42  C    0.602097
    43  O   -0.444190
    44  O   -0.464862
    45  C   -0.077339
    46  C   -0.011940
    47  C   -0.127963
    48  C    0.113815
    49  C   -0.354524
    50  C   -0.224789
    51  C   -0.177037
    52  C   -0.125874
    53  C   -0.056308
    54  C   -0.288960
    55  C   -0.163570
    56  C   -0.183547
    57  C   -0.162804
    58  C   -0.086547
    59  C   -0.296752
    60  C   -0.146476
    61  C   -0.197167
    62  C   -0.169210
    63  C   -0.042192
    64  C   -0.317495
    65  C   -0.304420
    66  H    0.060835
    67  H    0.132001
    68  H    0.091210
    69  H    0.090788
    70  H    0.105790
    71  H    0.113969
    72  H    0.104810
    73  H    0.137825
    74  H    0.110387
    75  H    0.110076
    76  H    0.131135
    77  H    0.130062
    78  H    0.123856
    79  H    0.164455
    80  H    0.142094
    81  H    0.079156
    82  H    0.088388
    83  H    0.096137
    84  H    0.121210
    85  H    0.122883
    86  H    0.118629
    87  H    0.078170
    88  H    0.128233
    89  H    0.140145
    90  H    0.152830
    91  H    0.116064
    92  H    0.141513
    93  H    0.086412
    94  H    0.141708
    95  H    0.103974
    96  H    0.089817
    97  H    0.106087
    98  H    0.095995
    99  H    0.083857
   100  H    0.111100
   101  H    0.077541
   102  H    0.069131
   103  H    0.085387
   104  H    0.099350
   105  H    0.098022
   106  H    0.066109
   107  H    0.064408
   108  H    0.078810
   109  H    0.086838
   110  H    0.090322
   111  H    0.080589
   112  H    0.093527
   113  H    0.055087
   114  H    0.102507
   115  H    0.093940
   116  H    0.118946
   117  H    0.095459
   118  H    0.079059
   119  H    0.099217
   120  H    0.083069
   121  H    0.088932
   122  H    0.092472
   123  H    0.086096
   124  H    0.097246
   125  H    0.088268
   126  H    0.096056
   127  H    0.081239
   128  H    0.102528
   129  H    0.107864
   130  H    0.128805
   131  H    0.135677
   132  H    0.119088
   133  O   -0.388289
   134  H    0.036140
 Sum of Mulliken charges =  -0.00000

 Dipole moment (field-independent basis, Debye):
    X=              1.7725    Y=             -4.9277    Z=             -1.3516  Tot=              5.4084
 Quadrupole moment (field-independent basis, Debye-Ang):
   XX=           -377.9330   YY=           -431.5365   ZZ=           -394.3483
   XY=             -3.0378   XZ=             20.8526   YZ=            -33.7603

 Normal termination of Gaussian 16 at Tue Oct  8 10:42:07 2019.
