 Gaussian 16, Revision A.03,
 Gaussian 16:  ES64L-G16RevA.03 25-Dec-2016

 ----------------------------------------------------------------------
 # td=(NStates=1) iop(3/107=0140000000,3/108=0140000000) iop(3/107=0140
 000000,3/108=0140000000) CAM-B3LYP/6-31G(d,p)
 ----------------------------------------------------------------------

 --
 TD
 --
 Symbolic Z-matrix:
 Charge =  0 Multiplicity = 1

                         Standard orientation:
 ---------------------------------------------------------------------
 Center     Atomic      Atomic             Coordinates (Angstroms)
 Number     Number       Type             X           Y           Z
 ---------------------------------------------------------------------
      1         12           0       -5.645201    1.195856    0.222279
      2          6           0       -4.968897   -2.220868   -0.357295
      3          6           0       -3.501498    1.176792    2.785880
      4          6           0       -6.246637    4.518207    0.717176
      5          6           0       -7.885828    1.160209   -2.422658
      6          7           0       -4.234246   -0.309266    1.016683
      7          6           0       -4.221405   -1.643970    0.602602
      8          6           0       -3.190216   -2.423319    1.514205
      9          6           0       -2.948139   -1.280936    2.676308
     10          6           0       -3.560853   -0.044836    2.111867
     11          6           0       -3.543590   -1.849036    3.968527
     12          6           0       -1.895195   -2.676186    0.737182
     13          6           0       -0.842502   -3.548937    1.468063
     14          6           0        0.322389   -3.946890    0.604420
     15          8           0        0.508608   -3.525183   -0.517015
     16          8           0        1.173865   -4.822648    1.289927
     17          7           0       -4.972279    2.619401    1.456482
     18          6           0       -4.017753    2.401457    2.508108
     19          6           0       -3.820267    3.584238    3.266673
     20          6           0       -4.565148    4.582396    2.631951
     21          6           0       -5.391282    3.945886    1.555997
     22          6           0       -2.831561    3.696522    4.394617
     23          6           0       -4.646326    5.997630    3.103131
     24          8           0       -3.859105    6.424391    3.945526
     25          7           0       -6.826888    2.643192   -0.786860
     26          6           0       -6.979705    3.953465   -0.360603
     27          6           0       -7.901220    4.589843   -1.311759
     28          6           0       -8.357718    3.632033   -2.191790
     29          6           0       -7.692384    2.477872   -1.864155
     30          6           0       -8.386908    5.980513   -1.220420
     31          6           0       -9.394217    3.782908   -3.220212
     32          6           0       -8.797418    4.281812   -4.550810
     33          7           0       -6.299067   -0.158286   -1.066349
     34          6           0       -7.175602   -0.019038   -2.164042
     35          6           0       -7.396774   -1.280386   -2.816515
     36          6           0       -6.516035   -2.151826   -2.175176
     37          6           0       -5.819611   -1.415298   -1.113549
     38          6           0       -8.378800   -1.514317   -3.807511
     39          6           0       -6.087920   -3.570316   -2.037910
     40          8           0       -6.404085   -4.496231   -2.703266
     41          6           0       -5.050698   -3.617627   -0.923812
     42          6           0       -5.422431   -4.685211    0.136429
     43          8           0       -5.879177   -4.407421    1.292079
     44          8           0       -5.371936   -5.858614   -0.349253
     45          6           0       -5.703347   -6.843461    0.606332
     46          6           0        2.376437   -5.113161    0.620521
     47          6           0        3.468515   -4.273701    1.037930
     48          6           0        3.929892   -3.209486    0.211577
     49          6           0        3.610915   -2.993806   -1.362039
     50          6           0        5.123396   -2.383376    0.704461
     51          6           0        6.479194   -2.619002   -0.047165
     52          6           0        7.594597   -1.738032    0.465710
     53          6           0        9.001421   -1.946657   -0.111830
     54          6           0        9.543174   -3.329619    0.048066
     55          6           0       10.002521   -0.839488    0.427178
     56          6           0       11.352383   -0.919382   -0.374596
     57          6           0       12.232989    0.242956    0.140990
     58          6           0       13.544092    0.433614   -0.641797
     59          6           0       14.599385   -0.705455   -0.338994
     60          6           0       14.162736    1.807128   -0.210183
     61          6           0       15.403794    2.083640   -1.032305
     62          6           0       15.887652    3.549856   -0.648347
     63          6           0       17.280232    3.874034   -1.198482
     64          6           0       17.130476    4.116356   -2.710905
     65          6           0       18.114076    5.081289   -0.606676
     66          1           0       -2.824832    1.270025    3.575075
     67          1           0       -6.493329    5.552890    0.787577
     68          1           0       -8.651172    1.168294   -3.228421
     69          1           0       -3.770601   -3.174078    2.058519
     70          1           0       -1.843697   -1.321499    2.940172
     71          1           0       -3.209628   -2.709606    4.393802
     72          1           0       -3.655672   -0.948920    4.526448
     73          1           0       -4.575104   -2.110126    3.837770
     74          1           0       -2.046726   -3.218243   -0.185618
     75          1           0       -1.450933   -1.723831    0.436779
     76          1           0       -0.551661   -2.725321    2.218114
     77          1           0       -1.429123   -4.481999    2.044612
     78          1           0       -1.851474    3.462559    4.067840
     79          1           0       -2.866772    4.758846    4.702667
     80          1           0       -3.503682    3.243043    5.375367
     81          1           0       -5.347738    6.640430    2.491387
     82          1           0       -9.784521    2.865773   -3.150348
     83          1           0      -10.005816    4.557894   -2.710350
     84          1           0       -9.670720    4.439032   -5.419860
     85          1           0       -8.312476    5.333835   -4.526368
     86          1           0       -8.020584    3.706976   -4.968051
     87          1           0       -8.026721   -0.891732   -4.582209
     88          1           0       -8.498884   -2.735516   -4.274382
     89          1           0       -9.396399   -1.314304   -3.436255
     90          1           0       -4.145143   -3.822737   -1.439578
     91          1           0        2.451812   -6.192405    0.774626
     92          1           0        1.871031   -5.033665   -0.458995
     93          1           0        4.114875   -4.329317    1.992765
     94          1           0        2.635056   -3.181178   -1.754469
     95          1           0        3.753870   -1.877447   -1.516823
     96          1           0        4.327284   -3.461684   -2.029746
     97          1           0        5.148402   -1.438333    0.325393
     98          1           0        5.277865   -2.410639    1.879844
     99          1           0        6.741588   -3.614523   -0.022512
    100          1           0        6.266739   -2.425838   -0.988783
    101          1           0        7.390332   -0.649061    0.116314
    102          1           0        7.620814   -1.865766    1.503571
    103          1           0        9.038740   -1.876229   -1.166455
    104          1           0        8.702639   -3.859279   -0.465898
    105          1           0       10.483145   -3.340700   -0.516772
    106          1           0        9.566368   -3.674995    1.161618
    107          1           0        9.582261    0.009524    0.169247
    108          1           0       10.065769   -0.958169    1.474661
    109          1           0       11.720263   -1.840545   -0.145959
    110          1           0       11.130319   -0.550171   -1.252022
    111          1           0       11.570053    1.218208    0.089209
    112          1           0       12.740280   -0.046662    1.161439
    113          1           0       13.329221    0.479989   -1.777995
    114          1           0       14.760967   -0.670899    0.701954
    115          1           0       14.035609   -1.580557   -0.507234
    116          1           0       15.607578   -0.591205   -0.740881
    117          1           0       13.590065    2.599748   -0.324052
    118          1           0       14.430556    2.043589    0.892201
    119          1           0       16.430949    1.430968   -0.929240
    120          1           0       15.076330    2.009792   -2.084460
    121          1           0       15.002166    4.135492   -0.936327
    122          1           0       16.036673    3.629350    0.449638
    123          1           0       17.799917    2.956628   -1.083149
    124          1           0       16.157501    4.594734   -3.198969
    125          1           0       18.037367    4.448848   -3.110247
    126          1           0       17.156358    3.029163   -3.302556
    127          1           0       18.304009    4.960135    0.401601
    128          1           0       19.131322    5.478573   -1.167488
    129          1           0       17.334683    6.006231   -0.648814
    130          1           0       -5.054943   -7.755459    0.219074
    131          1           0       -6.710305   -7.093857    0.500441
    132          1           0       -5.394239   -6.439120    1.869659
    133          8           0       -7.940321    6.788694   -0.418825
    134          1           0       -9.215181    6.283382   -1.754762
 ---------------------------------------------------------------------

 SCF Done:  E(RCAM-B3LYP) =  -3043.42307527     A.U. after   15 cycles

 Excitation energies and oscillator strengths:

 Excited State   1:      Singlet-A      2.1251 eV  583.43 nm  f=0.1138  <S**2>=0.000
     243 -> 246        0.31062
     244 -> 245        0.62485
 This state for optimization and/or second-order correction.
 Total Energy, E(TD-HF/TD-DFT) =  -3043.34497984
 Copying the excited state density for this state as the 1-particle RhoCI density.

 The electronic state is 1-A.
 Alpha  occ. eigenvalues --  -46.80880 -19.25455 -19.21223 -19.18560 -19.17561
 Alpha  occ. eigenvalues --  -19.17128 -19.17040 -19.16339 -14.38774 -14.36846
 Alpha  occ. eigenvalues --  -14.36141 -14.36046 -10.36203 -10.35680 -10.31227
 Alpha  occ. eigenvalues --  -10.30930 -10.29869 -10.29181 -10.27873 -10.27358
 Alpha  occ. eigenvalues --  -10.26728 -10.26297 -10.26155 -10.25990 -10.25968
 Alpha  occ. eigenvalues --  -10.25807 -10.25494 -10.25334 -10.25241 -10.25104
 Alpha  occ. eigenvalues --  -10.25021 -10.24874 -10.24413 -10.24122 -10.23821
 Alpha  occ. eigenvalues --  -10.23756 -10.23728 -10.23684 -10.23601 -10.22890
 Alpha  occ. eigenvalues --  -10.22852 -10.22814 -10.22806 -10.22615 -10.22287
 Alpha  occ. eigenvalues --  -10.22130 -10.22116 -10.22073 -10.22001 -10.21965
 Alpha  occ. eigenvalues --  -10.21820 -10.21749 -10.21741 -10.21703 -10.21611
 Alpha  occ. eigenvalues --  -10.20967 -10.20930 -10.20766 -10.20469 -10.20442
 Alpha  occ. eigenvalues --  -10.20331 -10.19795 -10.19502 -10.19311 -10.19188
 Alpha  occ. eigenvalues --  -10.18850  -3.09461  -1.84398  -1.83922  -1.83880
 Alpha  occ. eigenvalues --   -1.18154  -1.12893  -1.09133  -1.06502  -1.06087
 Alpha  occ. eigenvalues --   -1.05686  -1.03149  -1.00347  -0.99236  -0.98412
 Alpha  occ. eigenvalues --   -0.97112  -0.89413  -0.86366  -0.86306  -0.85150
 Alpha  occ. eigenvalues --   -0.85076  -0.84925  -0.84681  -0.83851  -0.83062
 Alpha  occ. eigenvalues --   -0.82578  -0.82273  -0.81517  -0.80802  -0.80150
 Alpha  occ. eigenvalues --   -0.78867  -0.78439  -0.78083  -0.77451  -0.76282
 Alpha  occ. eigenvalues --   -0.75422  -0.74805  -0.73891  -0.73605  -0.72505
 Alpha  occ. eigenvalues --   -0.71078  -0.70623  -0.70182  -0.69979  -0.69478
 Alpha  occ. eigenvalues --   -0.69242  -0.68757  -0.67780  -0.67136  -0.66355
 Alpha  occ. eigenvalues --   -0.65784  -0.64697  -0.63632  -0.62858  -0.62112
 Alpha  occ. eigenvalues --   -0.61703  -0.60744  -0.60606  -0.59563  -0.59138
 Alpha  occ. eigenvalues --   -0.58547  -0.58062  -0.57897  -0.57257  -0.57070
 Alpha  occ. eigenvalues --   -0.56240  -0.55915  -0.55758  -0.55542  -0.55136
 Alpha  occ. eigenvalues --   -0.55029  -0.53879  -0.53436  -0.53297  -0.52717
 Alpha  occ. eigenvalues --   -0.52385  -0.52227  -0.51956  -0.51548  -0.51449
 Alpha  occ. eigenvalues --   -0.50884  -0.50372  -0.49783  -0.49692  -0.49483
 Alpha  occ. eigenvalues --   -0.49218  -0.48733  -0.48491  -0.48176  -0.48167
 Alpha  occ. eigenvalues --   -0.48133  -0.47527  -0.47381  -0.46962  -0.46930
 Alpha  occ. eigenvalues --   -0.46754  -0.46530  -0.46301  -0.46005  -0.45888
 Alpha  occ. eigenvalues --   -0.45644  -0.45484  -0.45235  -0.44869  -0.44479
 Alpha  occ. eigenvalues --   -0.44420  -0.44154  -0.44003  -0.43817  -0.43647
 Alpha  occ. eigenvalues --   -0.43452  -0.43337  -0.43170  -0.42988  -0.42866
 Alpha  occ. eigenvalues --   -0.42574  -0.42271  -0.42066  -0.41973  -0.41847
 Alpha  occ. eigenvalues --   -0.41516  -0.41367  -0.41106  -0.40968  -0.40836
 Alpha  occ. eigenvalues --   -0.40762  -0.40546  -0.40258  -0.39974  -0.39883
 Alpha  occ. eigenvalues --   -0.39616  -0.39258  -0.39077  -0.38889  -0.38829
 Alpha  occ. eigenvalues --   -0.38490  -0.38400  -0.38357  -0.38204  -0.38020
 Alpha  occ. eigenvalues --   -0.37890  -0.37811  -0.37351  -0.36940  -0.36748
 Alpha  occ. eigenvalues --   -0.36678  -0.36594  -0.36356  -0.36108  -0.35522
 Alpha  occ. eigenvalues --   -0.35251  -0.34780  -0.34476  -0.34409  -0.34150
 Alpha  occ. eigenvalues --   -0.34126  -0.33821  -0.33671  -0.33414  -0.33259
 Alpha  occ. eigenvalues --   -0.32694  -0.32515  -0.32166  -0.31797  -0.31790
 Alpha  occ. eigenvalues --   -0.31619  -0.31146  -0.30533  -0.30230  -0.29861
 Alpha  occ. eigenvalues --   -0.28349  -0.27922  -0.27911  -0.27627  -0.27428
 Alpha  occ. eigenvalues --   -0.27192  -0.26355  -0.23157  -0.21753
 Alpha virt. eigenvalues --   -0.07960  -0.06783  -0.01538  -0.00606   0.00935
 Alpha virt. eigenvalues --    0.01513   0.02706   0.02755   0.03672   0.05069
 Alpha virt. eigenvalues --    0.05390   0.06034   0.08584   0.08620   0.09416

 Mulliken charges:
               1
     1  Mg   0.817050
     2  C    0.143635
     3  C   -0.190046
     4  C   -0.177433
     5  C   -0.180372
     6  N   -0.637338
     7  C    0.244457
     8  C   -0.159533
     9  C   -0.180222
    10  C    0.393491
    11  C   -0.325803
    12  C   -0.173003
    13  C   -0.260239
    14  C    0.621808
    15  O   -0.455452
    16  O   -0.470996
    17  N   -0.734452
    18  C    0.324095
    19  C    0.052726
    20  C   -0.053279
    21  C    0.352950
    22  C   -0.390210
    23  C    0.247701
    24  O   -0.415664
    25  N   -0.687492
    26  C    0.283127
    27  C   -0.056278
    28  C    0.027714
    29  C    0.279152
    30  C    0.245160
    31  C   -0.204029
    32  C   -0.306930
    33  N   -0.736358
    34  C    0.265056
    35  C    0.067599
    36  C   -0.021813
    37  C    0.299000
    38  C   -0.385967
    39  C    0.365716
    40  O   -0.433916
    41  C   -0.324854
    42  C    0.615316
    43  O   -0.514860
    44  O   -0.361853
    45  C   -0.102482
    46  C   -0.014567
    47  C   -0.115132
    48  C    0.119825
    49  C   -0.380558
    50  C   -0.233409
    51  C   -0.195292
    52  C   -0.161730
    53  C   -0.085743
    54  C   -0.298130
    55  C   -0.172967
    56  C   -0.164239
    57  C   -0.178375
    58  C   -0.070918
    59  C   -0.318558
    60  C   -0.152541
    61  C   -0.172864
    62  C   -0.180320
    63  C   -0.043176
    64  C   -0.297183
    65  C   -0.309559
    66  H    0.080389
    67  H    0.120050
    68  H    0.087793
    69  H    0.130057
    70  H    0.096820
    71  H    0.126431
    72  H    0.108878
    73  H    0.123044
    74  H    0.109757
    75  H    0.124727
    76  H    0.135325
    77  H    0.113432
    78  H    0.138751
    79  H    0.172976
    80  H    0.105448
    81  H    0.093915
    82  H    0.114708
    83  H    0.112441
    84  H    0.081176
    85  H    0.110480
    86  H    0.128657
    87  H    0.141477
    88  H    0.111404
    89  H    0.138018
    90  H    0.173283
    91  H    0.106350
    92  H    0.117397
    93  H    0.090572
    94  H    0.150864
    95  H    0.098668
    96  H    0.126456
    97  H    0.113646
    98  H    0.079831
    99  H    0.103128
   100  H    0.107671
   101  H    0.074915
   102  H    0.097023
   103  H    0.080562
   104  H    0.096076
   105  H    0.103086
   106  H    0.081502
   107  H    0.090491
   108  H    0.091925
   109  H    0.109010
   110  H    0.102611
   111  H    0.076916
   112  H    0.077365
   113  H    0.065562
   114  H    0.107343
   115  H    0.103362
   116  H    0.112743
   117  H    0.097330
   118  H    0.073505
   119  H    0.063820
   120  H    0.099753
   121  H    0.091987
   122  H    0.080874
   123  H    0.097964
   124  H    0.094315
   125  H    0.107127
   126  H    0.056907
   127  H    0.112105
   128  H    0.088630
   129  H    0.082229
   130  H    0.113190
   131  H    0.152609
   132  H    0.123895
   133  O   -0.431342
   134  H    0.071143
 Sum of Mulliken charges =  -0.00000

 Dipole moment (field-independent basis, Debye):
    X=              0.8334    Y=             -4.6999    Z=             -1.2641  Tot=              4.9377
 Quadrupole moment (field-independent basis, Debye-Ang):
   XX=           -379.6351   YY=           -435.7642   ZZ=           -395.3053
   XY=             12.9421   XZ=             19.8879   YZ=            -28.5286

 Normal termination of Gaussian 16 at Thu Oct 10 06:38:30 2019.
