 Gaussian 16, Revision A.03,
 Gaussian 16:  ES64L-G16RevA.03 25-Dec-2016

 ----------------------------------------------------------------------
 # td=(NStates=1) iop(3/107=0140000000,3/108=0140000000) iop(3/107=0140
 000000,3/108=0140000000) CAM-B3LYP/6-31G(d,p)
 ----------------------------------------------------------------------

 --
 TD
 --
 Symbolic Z-matrix:
 Charge =  0 Multiplicity = 1

                         Standard orientation:
 ---------------------------------------------------------------------
 Center     Atomic      Atomic             Coordinates (Angstroms)
 Number     Number       Type             X           Y           Z
 ---------------------------------------------------------------------
      1         12           0       -5.548606    1.250256    0.202078
      2          6           0       -5.037545   -2.058346   -0.496277
      3          6           0       -3.408977    1.018656    2.791358
      4          6           0       -6.125319    4.550707    0.674386
      5          6           0       -7.893428    1.305358   -2.357501
      6          7           0       -4.363558   -0.302779    1.055132
      7          6           0       -4.202365   -1.642052    0.575295
      8          6           0       -3.230349   -2.526189    1.469995
      9          6           0       -2.917291   -1.490166    2.633205
     10          6           0       -3.545070   -0.209052    2.067262
     11          6           0       -3.330352   -1.861749    4.025781
     12          6           0       -1.935328   -2.701352    0.621983
     13          6           0       -0.967957   -3.578536    1.332368
     14          6           0        0.329093   -3.805045    0.594393
     15          8           0        0.444925   -3.366285   -0.568245
     16          8           0        1.119057   -4.651188    1.273095
     17          7           0       -4.878957    2.616445    1.448298
     18          6           0       -3.987157    2.237900    2.475279
     19          6           0       -3.716398    3.442023    3.195163
     20          6           0       -4.403636    4.552781    2.591702
     21          6           0       -5.218071    3.925407    1.544547
     22          6           0       -2.758120    3.606129    4.403997
     23          6           0       -4.503181    5.921958    3.036957
     24          8           0       -3.886214    6.433002    3.937060
     25          7           0       -6.846490    2.715179   -0.653580
     26          6           0       -6.799997    3.965069   -0.363483
     27          6           0       -7.848806    4.645715   -1.178455
     28          6           0       -8.344063    3.694843   -2.032191
     29          6           0       -7.647999    2.470896   -1.701520
     30          6           0       -8.292204    6.068140   -1.070739
     31          6           0       -9.342670    4.001514   -3.158486
     32          6           0       -8.579450    4.179708   -4.473375
     33          7           0       -6.353080   -0.135483   -1.145561
     34          6           0       -7.362736    0.047051   -2.128088
     35          6           0       -7.664504   -1.317820   -2.703476
     36          6           0       -6.834297   -2.176758   -2.078118
     37          6           0       -6.030165   -1.476477   -1.121923
     38          6           0       -8.559900   -1.474598   -3.834838
     39          6           0       -6.265899   -3.538709   -2.061722
     40          8           0       -6.668517   -4.493829   -2.596426
     41          6           0       -5.027826   -3.597826   -0.938568
     42          6           0       -5.352387   -4.588922    0.038391
     43          8           0       -5.792548   -4.516197    1.115270
     44          8           0       -5.151506   -5.842736   -0.490075
     45          6           0       -5.413769   -6.862623    0.403370
     46          6           0        2.318716   -4.966327    0.561541
     47          6           0        3.378780   -4.023410    1.015767
     48          6           0        3.986694   -3.064449    0.233882
     49          6           0        3.702734   -3.085623   -1.220748
     50          6           0        5.118317   -2.221079    0.775339
     51          6           0        6.441523   -2.690979    0.184435
     52          6           0        7.638422   -1.921195    0.777699
     53          6           0        8.922263   -2.010218    0.056942
     54          6           0        9.438033   -3.482567    0.185093
     55          6           0       10.027546   -0.972990    0.461840
     56          6           0       11.245196   -1.013355   -0.319591
     57          6           0       12.251429    0.110617    0.055116
     58          6           0       13.475052    0.421504   -0.767879
     59          6           0       14.486755   -0.690006   -0.658235
     60          6           0       14.142632    1.730550   -0.366789
     61          6           0       15.335461    2.017135   -1.051901
     62          6           0       15.901685    3.460964   -0.651490
     63          6           0       17.222353    3.955453   -1.284655
     64          6           0       17.029762    4.208378   -2.750961
     65          6           0       17.664874    5.320929   -0.557032
     66          1           0       -2.767235    1.013011    3.688797
     67          1           0       -5.939592    5.618680    0.750690
     68          1           0       -8.531476    1.420061   -3.170834
     69          1           0       -3.580952   -3.391391    1.785462
     70          1           0       -1.702303   -1.145683    2.533802
     71          1           0       -2.797408   -2.883710    4.604184
     72          1           0       -3.381534   -1.184525    4.839150
     73          1           0       -4.301464   -2.423543    3.959211
     74          1           0       -2.260643   -3.076197   -0.360056
     75          1           0       -1.405412   -1.603839    0.541900
     76          1           0       -0.887707   -3.093256    2.300062
     77          1           0       -1.452043   -4.546002    1.625279
     78          1           0       -1.556758    3.577685    4.130141
     79          1           0       -3.024583    4.582793    4.826670
     80          1           0       -2.991568    3.033066    5.269725
     81          1           0       -5.185335    6.584719    2.406251
     82          1           0      -10.024301    3.235450   -3.306448
     83          1           0       -9.837033    4.831061   -2.759898
     84          1           0       -9.323554    4.568829   -5.315947
     85          1           0       -7.934826    4.914587   -4.396100
     86          1           0       -8.067760    3.389721   -4.668875
     87          1           0       -8.420947   -0.451093   -4.524309
     88          1           0       -8.226925   -2.401522   -4.405519
     89          1           0       -9.722258   -1.733417   -3.532228
     90          1           0       -4.127034   -4.023030   -1.568729
     91          1           0        2.522889   -5.816508    0.909384
     92          1           0        2.201079   -5.120066   -0.508817
     93          1           0        3.640884   -4.199916    2.106455
     94          1           0        2.795217   -3.425528   -1.470402
     95          1           0        3.584270   -1.939695   -1.636634
     96          1           0        4.376053   -3.534677   -1.743901
     97          1           0        5.131715   -1.097023    0.470977
     98          1           0        5.000018   -2.205563    1.887100
     99          1           0        6.540035   -3.764552    0.260536
    100          1           0        6.767612   -2.493608   -0.879428
    101          1           0        7.522397   -0.713979    0.736613
    102          1           0        7.631169   -2.240933    1.860686
    103          1           0        8.839073   -1.709327   -1.042476
    104          1           0        8.720615   -4.297843   -0.348113
    105          1           0       10.554794   -3.684596   -0.151538
    106          1           0        9.441566   -3.860463    1.239707
    107          1           0        9.605833    0.143577    0.439523
    108          1           0       10.193962   -1.051135    1.458289
    109          1           0       11.802928   -1.917232   -0.411644
    110          1           0       11.183654   -0.704032   -1.409840
    111          1           0       11.689025    0.933310    0.124231
    112          1           0       12.711105    0.047481    0.999215
    113          1           0       13.338816    0.423580   -1.850237
    114          1           0       14.622898   -1.007106    0.424637
    115          1           0       13.962366   -1.613439   -1.253672
    116          1           0       15.394783   -0.711709   -1.327699
    117          1           0       13.383657    2.466085   -0.409060
    118          1           0       14.302852    1.844806    0.688791
    119          1           0       16.138347    1.309939   -0.775345
    120          1           0       15.238694    1.701449   -2.159504
    121          1           0       15.115817    4.306334   -0.849541
    122          1           0       16.061857    3.562484    0.361473
    123          1           0       18.078878    3.121351   -1.366644
    124          1           0       16.150245    4.779870   -3.072604
    125          1           0       18.046081    4.822958   -3.082122
    126          1           0       16.936685    3.115398   -3.212362
    127          1           0       17.824183    5.210583    0.548459
    128          1           0       18.645493    5.688230   -1.075906
    129          1           0       16.980565    6.125368   -0.645169
    130          1           0       -5.129651   -7.778519   -0.050451
    131          1           0       -6.499729   -6.729261    0.719162
    132          1           0       -4.645978   -6.810770    1.318262
    133          8           0       -7.680984    6.894743   -0.365637
    134          1           0       -9.408557    6.229744   -1.598321
 ---------------------------------------------------------------------

 SCF Done:  E(RCAM-B3LYP) =  -3043.43661041     A.U. after   16 cycles

 Excitation energies and oscillator strengths:

 Excited State   1:      Singlet-A      2.0270 eV  611.65 nm  f=0.1839  <S**2>=0.000
     243 -> 246        0.27229
     244 -> 245        0.64103
 This state for optimization and/or second-order correction.
 Total Energy, E(TD-HF/TD-DFT) =  -3043.36211797
 Copying the excited state density for this state as the 1-particle RhoCI density.

 The electronic state is 1-A.
 Alpha  occ. eigenvalues --  -46.81882 -19.23740 -19.20846 -19.18298 -19.17714
 Alpha  occ. eigenvalues --  -19.17504 -19.17279 -19.16427 -14.40284 -14.36792
 Alpha  occ. eigenvalues --  -14.36455 -14.36443 -10.35599 -10.34106 -10.32359
 Alpha  occ. eigenvalues --  -10.31945 -10.29712 -10.28826 -10.28133 -10.27076
 Alpha  occ. eigenvalues --  -10.26911 -10.26746 -10.26542 -10.26329 -10.25949
 Alpha  occ. eigenvalues --  -10.25875 -10.25823 -10.25654 -10.25651 -10.25615
 Alpha  occ. eigenvalues --  -10.25337 -10.24970 -10.24890 -10.24598 -10.24550
 Alpha  occ. eigenvalues --  -10.24043 -10.23967 -10.23594 -10.23587 -10.23538
 Alpha  occ. eigenvalues --  -10.23375 -10.23017 -10.22954 -10.22927 -10.22796
 Alpha  occ. eigenvalues --  -10.22780 -10.22702 -10.22565 -10.22502 -10.22468
 Alpha  occ. eigenvalues --  -10.22182 -10.22164 -10.22138 -10.21793 -10.21502
 Alpha  occ. eigenvalues --  -10.21435 -10.21179 -10.21122 -10.21121 -10.21060
 Alpha  occ. eigenvalues --  -10.20968 -10.20755 -10.20457 -10.19271 -10.19017
 Alpha  occ. eigenvalues --  -10.18890  -3.10408  -1.85353  -1.84896  -1.84791
 Alpha  occ. eigenvalues --   -1.15263  -1.14188  -1.10845  -1.06854  -1.06076
 Alpha  occ. eigenvalues --   -1.05409  -1.04498  -1.02163  -1.01027  -0.98759
 Alpha  occ. eigenvalues --   -0.98404  -0.88640  -0.87036  -0.86883  -0.86297
 Alpha  occ. eigenvalues --   -0.86171  -0.85046  -0.84499  -0.84206  -0.83540
 Alpha  occ. eigenvalues --   -0.83098  -0.82312  -0.81654  -0.81331  -0.80556
 Alpha  occ. eigenvalues --   -0.79610  -0.79142  -0.78500  -0.77863  -0.77522
 Alpha  occ. eigenvalues --   -0.75714  -0.74796  -0.74283  -0.72316  -0.71826
 Alpha  occ. eigenvalues --   -0.71525  -0.70535  -0.69994  -0.69917  -0.69848
 Alpha  occ. eigenvalues --   -0.69258  -0.68746  -0.68542  -0.67188  -0.66352
 Alpha  occ. eigenvalues --   -0.65990  -0.65258  -0.64291  -0.63334  -0.62932
 Alpha  occ. eigenvalues --   -0.62416  -0.61392  -0.61017  -0.59984  -0.59382
 Alpha  occ. eigenvalues --   -0.58641  -0.58298  -0.57277  -0.57173  -0.57033
 Alpha  occ. eigenvalues --   -0.56584  -0.56298  -0.55859  -0.55269  -0.54807
 Alpha  occ. eigenvalues --   -0.54438  -0.53747  -0.53249  -0.52936  -0.52493
 Alpha  occ. eigenvalues --   -0.52316  -0.52022  -0.51947  -0.51143  -0.50904
 Alpha  occ. eigenvalues --   -0.50638  -0.50432  -0.49676  -0.49527  -0.49194
 Alpha  occ. eigenvalues --   -0.48706  -0.48640  -0.48571  -0.48314  -0.48274
 Alpha  occ. eigenvalues --   -0.47934  -0.47899  -0.47517  -0.47013  -0.46873
 Alpha  occ. eigenvalues --   -0.46697  -0.46576  -0.46493  -0.46135  -0.46097
 Alpha  occ. eigenvalues --   -0.46055  -0.45555  -0.45460  -0.45336  -0.45148
 Alpha  occ. eigenvalues --   -0.45006  -0.44733  -0.44402  -0.44181  -0.44058
 Alpha  occ. eigenvalues --   -0.43685  -0.43400  -0.43214  -0.43116  -0.42976
 Alpha  occ. eigenvalues --   -0.42874  -0.42777  -0.42378  -0.42185  -0.42002
 Alpha  occ. eigenvalues --   -0.41688  -0.41532  -0.41441  -0.41261  -0.41148
 Alpha  occ. eigenvalues --   -0.41032  -0.40825  -0.40753  -0.40427  -0.40368
 Alpha  occ. eigenvalues --   -0.40247  -0.40137  -0.39913  -0.39688  -0.39643
 Alpha  occ. eigenvalues --   -0.39196  -0.38655  -0.38516  -0.38110  -0.38055
 Alpha  occ. eigenvalues --   -0.37876  -0.37550  -0.37509  -0.37448  -0.37345
 Alpha  occ. eigenvalues --   -0.37285  -0.36666  -0.36336  -0.36298  -0.36150
 Alpha  occ. eigenvalues --   -0.35759  -0.35717  -0.34762  -0.34498  -0.34348
 Alpha  occ. eigenvalues --   -0.34069  -0.33920  -0.33739  -0.33553  -0.33426
 Alpha  occ. eigenvalues --   -0.32763  -0.32444  -0.32390  -0.32202  -0.32022
 Alpha  occ. eigenvalues --   -0.31557  -0.31237  -0.30999  -0.30879  -0.30506
 Alpha  occ. eigenvalues --   -0.28990  -0.28293  -0.28158  -0.27923  -0.27597
 Alpha  occ. eigenvalues --   -0.27153  -0.27110  -0.23216  -0.21499
 Alpha virt. eigenvalues --   -0.08483  -0.06569  -0.02193  -0.00588   0.00399
 Alpha virt. eigenvalues --    0.02461   0.02746   0.03296   0.03569   0.03933
 Alpha virt. eigenvalues --    0.04544   0.05836   0.07339   0.08163   0.08873

 Mulliken charges:
               1
     1  Mg   0.829223
     2  C    0.026495
     3  C   -0.195151
     4  C   -0.149613
     5  C   -0.167441
     6  N   -0.593149
     7  C    0.247773
     8  C   -0.122658
     9  C   -0.110978
    10  C    0.361684
    11  C   -0.323844
    12  C   -0.153819
    13  C   -0.275295
    14  C    0.626166
    15  O   -0.478873
    16  O   -0.449025
    17  N   -0.765082
    18  C    0.361042
    19  C    0.001731
    20  C   -0.014059
    21  C    0.294963
    22  C   -0.388637
    23  C    0.230806
    24  O   -0.412652
    25  N   -0.687886
    26  C    0.327367
    27  C   -0.034602
    28  C   -0.005301
    29  C    0.321146
    30  C    0.237316
    31  C   -0.220274
    32  C   -0.297299
    33  N   -0.716895
    34  C    0.283340
    35  C    0.023317
    36  C    0.079327
    37  C    0.301118
    38  C   -0.384007
    39  C    0.339120
    40  O   -0.394073
    41  C   -0.350534
    42  C    0.640540
    43  O   -0.456645
    44  O   -0.448881
    45  C   -0.063420
    46  C    0.026301
    47  C   -0.151337
    48  C    0.125158
    49  C   -0.361450
    50  C   -0.216671
    51  C   -0.177065
    52  C   -0.160681
    53  C   -0.051949
    54  C   -0.314040
    55  C   -0.170203
    56  C   -0.176675
    57  C   -0.171508
    58  C   -0.079785
    59  C   -0.299772
    60  C   -0.143085
    61  C   -0.185815
    62  C   -0.164268
    63  C   -0.050961
    64  C   -0.270858
    65  C   -0.323538
    66  H    0.095180
    67  H    0.126381
    68  H    0.075389
    69  H    0.117467
    70  H    0.088408
    71  H    0.074549
    72  H    0.136560
    73  H    0.135408
    74  H    0.116405
    75  H    0.095740
    76  H    0.133809
    77  H    0.126963
    78  H    0.107808
    79  H    0.157909
    80  H    0.120758
    81  H    0.071384
    82  H    0.115885
    83  H    0.103482
    84  H    0.090262
    85  H    0.129529
    86  H    0.118915
    87  H    0.103868
    88  H    0.141750
    89  H    0.122236
    90  H    0.156919
    91  H    0.105163
    92  H    0.129291
    93  H    0.080037
    94  H    0.147028
    95  H    0.076068
    96  H    0.131263
    97  H    0.096429
    98  H    0.102206
    99  H    0.104362
   100  H    0.100274
   101  H    0.062787
   102  H    0.087223
   103  H    0.084761
   104  H    0.084059
   105  H    0.090088
   106  H    0.102831
   107  H    0.068484
   108  H    0.108671
   109  H    0.105253
   110  H    0.085476
   111  H    0.091867
   112  H    0.086415
   113  H    0.078706
   114  H    0.096079
   115  H    0.060639
   116  H    0.105257
   117  H    0.090759
   118  H    0.084943
   119  H    0.101109
   120  H    0.077298
   121  H    0.072519
   122  H    0.100449
   123  H    0.072590
   124  H    0.102130
   125  H    0.067314
   126  H    0.083189
   127  H    0.097327
   128  H    0.087631
   129  H    0.115519
   130  H    0.121637
   131  H    0.123466
   132  H    0.080416
   133  O   -0.423325
   134  H    0.057169
 Sum of Mulliken charges =  -0.00000

 Dipole moment (field-independent basis, Debye):
    X=              2.0272    Y=             -5.5455    Z=             -0.8663  Tot=              5.9677
 Quadrupole moment (field-independent basis, Debye-Ang):
   XX=           -387.6991   YY=           -443.1588   ZZ=           -393.9857
   XY=              5.4854   XZ=             29.2740   YZ=            -33.2880

 Normal termination of Gaussian 16 at Fri Oct  4 12:02:56 2019.
