 Gaussian 16, Revision A.03,
 Gaussian 16:  ES64L-G16RevA.03 25-Dec-2016

 ----------------------------------------------------------------------
 # td=(NStates=1) iop(3/107=0140000000,3/108=0140000000) iop(3/107=0140
 000000,3/108=0140000000) CAM-B3LYP/6-31G(d,p)
 ----------------------------------------------------------------------

 --
 TD
 --
 Symbolic Z-matrix:
 Charge =  0 Multiplicity = 1

                         Standard orientation:
 ---------------------------------------------------------------------
 Center     Atomic      Atomic             Coordinates (Angstroms)
 Number     Number       Type             X           Y           Z
 ---------------------------------------------------------------------
      1         12           0       -5.553483    1.212924    0.188241
      2          6           0       -4.977064   -2.204820   -0.325725
      3          6           0       -3.496287    1.155199    2.857234
      4          6           0       -6.146864    4.670446    0.580670
      5          6           0       -8.130372    1.119430   -2.280788
      6          7           0       -4.437242   -0.367280    1.139411
      7          6           0       -4.239197   -1.649552    0.694424
      8          6           0       -3.120565   -2.305271    1.481704
      9          6           0       -2.991027   -1.354794    2.649739
     10          6           0       -3.665121   -0.117435    2.213593
     11          6           0       -3.601559   -1.888210    3.992428
     12          6           0       -1.930574   -2.616387    0.642367
     13          6           0       -0.948507   -3.502365    1.382007
     14          6           0        0.305014   -3.876696    0.625178
     15          8           0        0.486053   -3.497262   -0.500281
     16          8           0        1.059922   -4.763044    1.240936
     17          7           0       -4.996209    2.636236    1.558430
     18          6           0       -4.056001    2.476394    2.423445
     19          6           0       -3.739298    3.701471    3.133208
     20          6           0       -4.441302    4.704866    2.520263
     21          6           0       -5.231470    3.985520    1.479768
     22          6           0       -2.773932    3.836198    4.307731
     23          6           0       -4.493818    6.091844    2.747416
     24          8           0       -4.016250    6.603094    3.772019
     25          7           0       -6.956108    2.611849   -0.726821
     26          6           0       -6.964198    3.945011   -0.410217
     27          6           0       -7.939593    4.574463   -1.232218
     28          6           0       -8.608424    3.630111   -2.009811
     29          6           0       -7.840837    2.396552   -1.799418
     30          6           0       -8.309390    6.056065   -1.166730
     31          6           0       -9.511520    3.811432   -3.248050
     32          6           0       -8.780069    4.115528   -4.520577
     33          7           0       -6.472530   -0.153249   -0.980014
     34          6           0       -7.475140   -0.026765   -2.012709
     35          6           0       -7.642331   -1.322065   -2.574119
     36          6           0       -6.673232   -2.163630   -2.020969
     37          6           0       -5.961308   -1.486475   -1.046065
     38          6           0       -8.644226   -1.761986   -3.663112
     39          6           0       -6.207124   -3.579545   -2.028802
     40          8           0       -6.637562   -4.526172   -2.540428
     41          6           0       -5.017998   -3.593484   -0.918698
     42          6           0       -5.299857   -4.689123    0.068877
     43          8           0       -5.608989   -4.608060    1.259799
     44          8           0       -4.896824   -5.858849   -0.527890
     45          6           0       -5.205701   -6.973396    0.380808
     46          6           0        2.401596   -4.955992    0.598729
     47          6           0        3.441141   -4.132271    1.057636
     48          6           0        4.075806   -3.190684    0.235819
     49          6           0        3.601096   -3.053655   -1.265105
     50          6           0        5.139462   -2.302395    0.790279
     51          6           0        6.440716   -2.473024    0.032111
     52          6           0        7.636510   -1.723037    0.616813
     53          6           0        8.942973   -1.942761   -0.006131
     54          6           0        9.600218   -3.338199    0.259051
     55          6           0       10.019547   -0.889774    0.315295
     56          6           0       11.466255   -0.893951   -0.275530
     57          6           0       12.278954    0.255538    0.121598
     58          6           0       13.543251    0.510683   -0.706285
     59          6           0       14.495925   -0.732107   -0.663758
     60          6           0       14.246685    1.730137   -0.166281
     61          6           0       15.494614    2.162064   -0.949146
     62          6           0       16.033625    3.469930   -0.603574
     63          6           0       17.328538    3.786686   -1.277323
     64          6           0       17.323870    3.941382   -2.835888
     65          6           0       17.949699    5.134221   -0.731993
     66          1           0       -2.800395    1.070093    3.704962
     67          1           0       -6.362755    5.608956    0.700649
     68          1           0       -9.037472    0.975070   -3.080574
     69          1           0       -3.469529   -3.203438    1.968179
     70          1           0       -1.956708   -1.221826    3.079402
     71          1           0       -3.164932   -2.703464    4.225093
     72          1           0       -3.731040   -1.225810    4.884455
     73          1           0       -4.682183   -2.201709    3.757638
     74          1           0       -2.364985   -3.175894   -0.240366
     75          1           0       -1.507167   -1.676337    0.391899
     76          1           0       -0.551833   -2.962243    2.193131
     77          1           0       -1.513437   -4.210741    1.908635
     78          1           0       -1.802444    3.497572    4.118753
     79          1           0       -2.955373    4.808738    4.548390
     80          1           0       -3.184288    3.171363    5.129215
     81          1           0       -4.749818    6.938417    1.812354
     82          1           0       -9.998534    2.855885   -3.594369
     83          1           0      -10.249042    4.622553   -2.855368
     84          1           0       -9.471408    4.059799   -5.497433
     85          1           0       -8.129572    4.833515   -4.601925
     86          1           0       -8.394936    3.122784   -4.565554
     87          1           0       -8.625590   -1.207395   -4.485364
     88          1           0       -8.486955   -2.722256   -4.070671
     89          1           0       -9.712429   -1.814359   -3.305973
     90          1           0       -4.166523   -3.888971   -1.635329
     91          1           0        2.647185   -6.046712    1.061816
     92          1           0        2.354606   -5.250867   -0.453892
     93          1           0        3.777429   -4.218478    2.162748
     94          1           0        2.499182   -3.211321   -1.228813
     95          1           0        3.700950   -2.178826   -1.620793
     96          1           0        4.173627   -3.583149   -1.885964
     97          1           0        5.013721   -1.321266    0.496613
     98          1           0        5.312313   -2.483914    1.744266
     99          1           0        6.710084   -3.423015   -0.015063
    100          1           0        6.366757   -2.039228   -1.075001
    101          1           0        7.196405   -0.619344    0.553843
    102          1           0        7.713289   -1.874200    1.582225
    103          1           0        8.803145   -1.852429   -0.990567
    104          1           0        9.129156   -4.303357   -0.535550
    105          1           0       10.562174   -3.476104   -0.012297
    106          1           0        9.498028   -3.679108    1.248378
    107          1           0        9.509757    0.110635    0.050839
    108          1           0        9.955397   -0.948202    1.414656
    109          1           0       12.127435   -1.850525   -0.080049
    110          1           0       11.301212   -0.854062   -1.337151
    111          1           0       11.543127    1.166317   -0.140175
    112          1           0       12.570287    0.085817    1.338667
    113          1           0       13.207955    0.706283   -1.788511
    114          1           0       14.713548   -0.809002    0.248937
    115          1           0       14.145280   -1.671149   -0.959952
    116          1           0       15.267268   -0.808962   -1.221665
    117          1           0       13.541867    2.469465   -0.125445
    118          1           0       14.390650    1.632161    0.876682
    119          1           0       16.297612    1.447351   -0.640220
    120          1           0       15.287143    2.110629   -1.947282
    121          1           0       15.211460    4.174852   -0.849060
    122          1           0       16.312470    3.375547    0.687205
    123          1           0       18.206122    3.171698   -1.073127
    124          1           0       16.786636    4.972082   -2.879076
    125          1           0       18.266968    4.372214   -3.056381
    126          1           0       16.720880    3.049429   -3.326752
    127          1           0       18.271378    5.279032    0.194080
    128          1           0       18.965337    5.492184   -1.192748
    129          1           0       17.253765    5.966829   -1.091762
    130          1           0       -4.651280   -7.810460   -0.134662
    131          1           0       -6.211808   -7.049254    0.344849
    132          1           0       -4.811739   -6.867569    1.356490
    133          8           0       -7.741141    6.938937   -0.515095
    134          1           0       -9.262246    6.212645   -1.713576
 ---------------------------------------------------------------------

 SCF Done:  E(RCAM-B3LYP) =  -3043.36936381     A.U. after   15 cycles

 Excitation energies and oscillator strengths:

 Excited State   1:      Singlet-A      2.0996 eV  590.52 nm  f=0.1182  <S**2>=0.000
     243 -> 246       -0.32770
     244 -> 245        0.61766
 This state for optimization and/or second-order correction.
 Total Energy, E(TD-HF/TD-DFT) =  -3043.29220635
 Copying the excited state density for this state as the 1-particle RhoCI density.

 The electronic state is 1-A.
 Alpha  occ. eigenvalues --  -46.82317 -19.22473 -19.22242 -19.18169 -19.17780
 Alpha  occ. eigenvalues --  -19.17596 -19.17408 -19.16552 -14.38758 -14.38016
 Alpha  occ. eigenvalues --  -14.36830 -14.36075 -10.35153 -10.34571 -10.31810
 Alpha  occ. eigenvalues --  -10.31569 -10.31008 -10.28018 -10.27763 -10.27656
 Alpha  occ. eigenvalues --  -10.27566 -10.27537 -10.26443 -10.26100 -10.25947
 Alpha  occ. eigenvalues --  -10.25767 -10.25748 -10.25690 -10.25300 -10.25223
 Alpha  occ. eigenvalues --  -10.24889 -10.24660 -10.24616 -10.24428 -10.24160
 Alpha  occ. eigenvalues --  -10.23981 -10.23975 -10.23858 -10.23589 -10.23223
 Alpha  occ. eigenvalues --  -10.22888 -10.22885 -10.22655 -10.22568 -10.22338
 Alpha  occ. eigenvalues --  -10.22268 -10.22126 -10.21874 -10.21818 -10.21530
 Alpha  occ. eigenvalues --  -10.21513 -10.21512 -10.21508 -10.21446 -10.21250
 Alpha  occ. eigenvalues --  -10.21172 -10.21037 -10.20878 -10.20842 -10.20471
 Alpha  occ. eigenvalues --  -10.20326 -10.20047 -10.19584 -10.19024 -10.18548
 Alpha  occ. eigenvalues --  -10.16633  -3.10656  -1.85601  -1.85107  -1.85065
 Alpha  occ. eigenvalues --   -1.13973  -1.12490  -1.10985  -1.06027  -1.06005
 Alpha  occ. eigenvalues --   -1.04832  -1.03822  -1.02458  -1.00763  -0.98453
 Alpha  occ. eigenvalues --   -0.97017  -0.88460  -0.87274  -0.86995  -0.86290
 Alpha  occ. eigenvalues --   -0.85154  -0.84781  -0.84636  -0.83974  -0.83564
 Alpha  occ. eigenvalues --   -0.83424  -0.82228  -0.82036  -0.81284  -0.80031
 Alpha  occ. eigenvalues --   -0.79521  -0.79039  -0.77881  -0.77486  -0.76961
 Alpha  occ. eigenvalues --   -0.76397  -0.75244  -0.75036  -0.73377  -0.73005
 Alpha  occ. eigenvalues --   -0.72807  -0.72434  -0.70438  -0.70251  -0.70001
 Alpha  occ. eigenvalues --   -0.69599  -0.69410  -0.68083  -0.67055  -0.66366
 Alpha  occ. eigenvalues --   -0.65787  -0.65557  -0.63923  -0.63241  -0.62110
 Alpha  occ. eigenvalues --   -0.61716  -0.61575  -0.60999  -0.60137  -0.59281
 Alpha  occ. eigenvalues --   -0.58579  -0.58465  -0.57483  -0.57462  -0.57270
 Alpha  occ. eigenvalues --   -0.56661  -0.56402  -0.55644  -0.55128  -0.54533
 Alpha  occ. eigenvalues --   -0.54157  -0.53804  -0.53505  -0.53100  -0.52784
 Alpha  occ. eigenvalues --   -0.52427  -0.52277  -0.52123  -0.51236  -0.50908
 Alpha  occ. eigenvalues --   -0.50654  -0.50386  -0.50169  -0.50063  -0.49876
 Alpha  occ. eigenvalues --   -0.48987  -0.48810  -0.48645  -0.48543  -0.48443
 Alpha  occ. eigenvalues --   -0.48256  -0.47971  -0.47693  -0.47348  -0.47207
 Alpha  occ. eigenvalues --   -0.46978  -0.46893  -0.46572  -0.46513  -0.46174
 Alpha  occ. eigenvalues --   -0.46068  -0.45966  -0.45761  -0.45635  -0.45296
 Alpha  occ. eigenvalues --   -0.45063  -0.44858  -0.44215  -0.43857  -0.43606
 Alpha  occ. eigenvalues --   -0.43445  -0.43315  -0.43212  -0.43168  -0.43013
 Alpha  occ. eigenvalues --   -0.42772  -0.42758  -0.42649  -0.42520  -0.42405
 Alpha  occ. eigenvalues --   -0.42042  -0.41734  -0.41610  -0.41440  -0.41309
 Alpha  occ. eigenvalues --   -0.41240  -0.40983  -0.40698  -0.40476  -0.40336
 Alpha  occ. eigenvalues --   -0.40080  -0.39831  -0.39702  -0.39600  -0.39388
 Alpha  occ. eigenvalues --   -0.39216  -0.38850  -0.38609  -0.38553  -0.38297
 Alpha  occ. eigenvalues --   -0.38121  -0.37896  -0.37531  -0.37357  -0.37074
 Alpha  occ. eigenvalues --   -0.36762  -0.36354  -0.36137  -0.35903  -0.35897
 Alpha  occ. eigenvalues --   -0.35590  -0.35366  -0.34911  -0.34824  -0.34784
 Alpha  occ. eigenvalues --   -0.34272  -0.34207  -0.34075  -0.33631  -0.33361
 Alpha  occ. eigenvalues --   -0.33347  -0.33043  -0.32685  -0.32290  -0.31661
 Alpha  occ. eigenvalues --   -0.31507  -0.31267  -0.31029  -0.30427  -0.29910
 Alpha  occ. eigenvalues --   -0.29242  -0.28215  -0.27941  -0.27915  -0.27832
 Alpha  occ. eigenvalues --   -0.27183  -0.26778  -0.22760  -0.22226
 Alpha virt. eigenvalues --   -0.08560  -0.06745  -0.01721  -0.01067   0.00769
 Alpha virt. eigenvalues --    0.01977   0.02202   0.02461   0.04391   0.04818
 Alpha virt. eigenvalues --    0.05075   0.05749   0.07745   0.08104   0.09125

 Mulliken charges:
               1
     1  Mg   0.835907
     2  C    0.098640
     3  C   -0.201730
     4  C   -0.102559
     5  C   -0.155744
     6  N   -0.660016
     7  C    0.292009
     8  C   -0.159405
     9  C   -0.178982
    10  C    0.388452
    11  C   -0.320252
    12  C   -0.136597
    13  C   -0.279274
    14  C    0.608241
    15  O   -0.463694
    16  O   -0.458205
    17  N   -0.677505
    18  C    0.323639
    19  C    0.012947
    20  C    0.042302
    21  C    0.258065
    22  C   -0.363055
    23  C    0.192136
    24  O   -0.411491
    25  N   -0.678057
    26  C    0.317998
    27  C   -0.054705
    28  C   -0.000232
    29  C    0.254166
    30  C    0.263362
    31  C   -0.230369
    32  C   -0.281969
    33  N   -0.758556
    34  C    0.298851
    35  C    0.009889
    36  C    0.009981
    37  C    0.284683
    38  C   -0.387974
    39  C    0.353134
    40  O   -0.396476
    41  C   -0.368496
    42  C    0.644858
    43  O   -0.488057
    44  O   -0.459562
    45  C   -0.088359
    46  C   -0.018825
    47  C   -0.129525
    48  C    0.112232
    49  C   -0.385563
    50  C   -0.196081
    51  C   -0.196937
    52  C   -0.162719
    53  C   -0.047794
    54  C   -0.303523
    55  C   -0.175755
    56  C   -0.165144
    57  C   -0.145518
    58  C   -0.066465
    59  C   -0.306337
    60  C   -0.165620
    61  C   -0.162143
    62  C   -0.128400
    63  C   -0.055459
    64  C   -0.307334
    65  C   -0.327221
    66  H    0.081829
    67  H    0.103416
    68  H    0.094473
    69  H    0.125937
    70  H    0.101963
    71  H    0.123155
    72  H    0.115752
    73  H    0.115621
    74  H    0.114384
    75  H    0.116076
    76  H    0.132957
    77  H    0.133795
    78  H    0.132763
    79  H    0.159049
    80  H    0.116817
    81  H    0.070024
    82  H    0.103403
    83  H    0.093146
    84  H    0.087564
    85  H    0.124817
    86  H    0.113322
    87  H    0.132306
    88  H    0.145363
    89  H    0.122018
    90  H    0.167336
    91  H    0.088136
    92  H    0.146732
    93  H    0.081834
    94  H    0.159462
    95  H    0.112713
    96  H    0.126925
    97  H    0.116138
    98  H    0.099379
    99  H    0.111514
   100  H    0.072087
   101  H    0.061317
   102  H    0.095862
   103  H    0.091390
   104  H    0.033890
   105  H    0.124875
   106  H    0.109300
   107  H    0.073987
   108  H    0.081557
   109  H    0.083295
   110  H    0.095501
   111  H    0.071602
   112  H    0.058623
   113  H    0.067703
   114  H    0.110732
   115  H    0.089749
   116  H    0.104954
   117  H    0.090236
   118  H    0.088725
   119  H    0.093161
   120  H    0.093680
   121  H    0.087140
   122  H    0.040569
   123  H    0.096937
   124  H    0.082149
   125  H    0.121063
   126  H    0.101632
   127  H    0.114504
   128  H    0.070009
   129  H    0.088119
   130  H    0.114905
   131  H    0.144802
   132  H    0.140468
   133  O   -0.429485
   134  H    0.071034
 Sum of Mulliken charges =  -0.00000

 Dipole moment (field-independent basis, Debye):
    X=              3.8379    Y=             -4.8289    Z=             -1.4638  Tot=              6.3396
 Quadrupole moment (field-independent basis, Debye-Ang):
   XX=           -375.5357   YY=           -445.6328   ZZ=           -391.7113
   XY=              9.5058   XZ=             25.4740   YZ=            -31.1359

 Normal termination of Gaussian 16 at Mon Oct  7 20:19:37 2019.
