 Gaussian 16, Revision A.03,
 Gaussian 16:  ES64L-G16RevA.03 25-Dec-2016

 ----------------------------------------------------------------------
 # td=(NStates=1) iop(3/107=0140000000,3/108=0140000000) iop(3/107=0140
 000000,3/108=0140000000) CAM-B3LYP/6-31G(d,p)
 ----------------------------------------------------------------------

 --
 TD
 --
 Symbolic Z-matrix:
 Charge =  0 Multiplicity = 1

                         Standard orientation:
 ---------------------------------------------------------------------
 Center     Atomic      Atomic             Coordinates (Angstroms)
 Number     Number       Type             X           Y           Z
 ---------------------------------------------------------------------
      1         12           0       -5.688552    1.163841    0.172205
      2          6           0       -5.036276   -2.190239   -0.405380
      3          6           0       -3.577321    1.013029    2.864937
      4          6           0       -6.068468    4.599109    0.637472
      5          6           0       -7.897776    1.243661   -2.479987
      6          7           0       -4.503499   -0.352390    1.134109
      7          6           0       -4.333908   -1.576572    0.669270
      8          6           0       -3.288618   -2.352921    1.478648
      9          6           0       -3.018708   -1.421128    2.741290
     10          6           0       -3.666728   -0.164302    2.248900
     11          6           0       -3.629298   -1.982855    4.024279
     12          6           0       -2.009628   -2.645269    0.593903
     13          6           0       -1.094967   -3.629229    1.408216
     14          6           0        0.165786   -3.833654    0.565851
     15          8           0        0.501098   -3.414996   -0.584425
     16          8           0        0.993097   -4.693231    1.247184
     17          7           0       -4.963548    2.589306    1.491082
     18          6           0       -4.000302    2.302609    2.522259
     19          6           0       -3.775366    3.533575    3.316867
     20          6           0       -4.420856    4.576961    2.660210
     21          6           0       -5.209581    3.988815    1.572388
     22          6           0       -2.862216    3.642200    4.510030
     23          6           0       -4.516211    5.931330    3.023672
     24          8           0       -3.927685    6.515146    3.935118
     25          7           0       -6.786012    2.689951   -0.803410
     26          6           0       -6.793482    4.019524   -0.410536
     27          6           0       -7.747659    4.732805   -1.264767
     28          6           0       -8.324577    3.745645   -2.082961
     29          6           0       -7.652069    2.500514   -1.752345
     30          6           0       -8.132118    6.125443   -1.153629
     31          6           0       -9.297311    3.940855   -3.124031
     32          6           0       -8.702444    4.119919   -4.555850
     33          7           0       -6.402107   -0.083297   -1.074820
     34          6           0       -7.286150    0.014347   -2.131795
     35          6           0       -7.525544   -1.164937   -2.847765
     36          6           0       -6.727137   -2.106931   -2.170636
     37          6           0       -6.035859   -1.406245   -1.123863
     38          6           0       -8.557596   -1.443783   -3.799364
     39          6           0       -6.216620   -3.548211   -2.113438
     40          8           0       -6.649347   -4.474685   -2.765248
     41          6           0       -5.106243   -3.558083   -0.992812
     42          6           0       -5.403542   -4.644656    0.089070
     43          8           0       -5.964939   -4.368591    1.227797
     44          8           0       -5.061190   -5.839370   -0.324801
     45          6           0       -5.442666   -6.868535    0.478306
     46          6           0        2.277781   -5.118237    0.576230
     47          6           0        3.422938   -4.151270    0.878412
     48          6           0        4.039077   -3.323163    0.081833
     49          6           0        3.727438   -3.151352   -1.335355
     50          6           0        5.177102   -2.518134    0.645847
     51          6           0        6.519589   -2.709024   -0.095831
     52          6           0        7.670203   -1.889520    0.558173
     53          6           0        9.081337   -2.008968   -0.049894
     54          6           0        9.557309   -3.414431    0.162177
     55          6           0        9.948831   -0.888661    0.412684
     56          6           0       11.344651   -0.902345   -0.190224
     57          6           0       12.217890    0.310647    0.224795
     58          6           0       13.535330    0.530513   -0.621986
     59          6           0       14.483923   -0.701306   -0.322262
     60          6           0       14.256828    1.838253   -0.114163
     61          6           0       15.480485    2.070099   -0.939321
     62          6           0       16.076778    3.392034   -0.589496
     63          6           0       17.420418    3.827900   -1.348128
     64          6           0       17.158665    4.000049   -2.877150
     65          6           0       18.043232    5.219910   -0.842609
     66          1           0       -3.005227    1.018735    3.847879
     67          1           0       -6.290002    5.732546    0.905313
     68          1           0       -8.338301    1.308487   -3.422070
     69          1           0       -3.635651   -3.383090    1.771244
     70          1           0       -1.868993   -1.301648    3.082685
     71          1           0       -3.215149   -2.917860    4.516918
     72          1           0       -3.343854   -1.306926    4.985256
     73          1           0       -4.877774   -2.108542    3.640861
     74          1           0       -2.233597   -3.012136   -0.540510
     75          1           0       -1.463877   -1.736635    0.370500
     76          1           0       -0.821001   -3.029734    2.385796
     77          1           0       -1.631678   -4.753503    1.401313
     78          1           0       -1.891656    3.529505    4.159933
     79          1           0       -3.052679    4.584677    4.961624
     80          1           0       -2.771212    2.957272    5.337556
     81          1           0       -5.079396    6.701159    2.369198
     82          1           0      -10.038888    3.209031   -2.920376
     83          1           0       -9.849276    4.691522   -2.783330
     84          1           0       -9.539616    4.251095   -5.340995
     85          1           0       -8.016126    5.076304   -4.645201
     86          1           0       -8.128227    3.276855   -4.834187
     87          1           0       -8.300802   -0.897257   -4.780316
     88          1           0       -8.667049   -2.532198   -4.027158
     89          1           0       -9.482573   -1.112375   -3.444735
     90          1           0       -4.051073   -3.923025   -1.582540
     91          1           0        2.226777   -6.152880    0.889742
     92          1           0        2.100647   -5.194836   -0.567724
     93          1           0        3.802759   -4.068736    1.816287
     94          1           0        2.739431   -3.571051   -1.454152
     95          1           0        3.743928   -1.995742   -1.763863
     96          1           0        4.401305   -3.795569   -1.809477
     97          1           0        4.856485   -1.385445    0.793903
     98          1           0        5.276552   -2.862527    1.674411
     99          1           0        6.689667   -3.812865   -0.113253
    100          1           0        6.290622   -2.194987   -1.184312
    101          1           0        7.265095   -0.923863    0.509102
    102          1           0        7.704454   -2.175484    1.603665
    103          1           0        8.964488   -1.904289   -1.066397
    104          1           0        8.907466   -4.272236   -0.169895
    105          1           0       10.472925   -3.529258   -0.157645
    106          1           0        9.816631   -3.406179    1.311573
    107          1           0        9.300046    0.129827    0.541316
    108          1           0       10.188783   -0.986123    1.448294
    109          1           0       11.956158   -1.732479    0.362545
    110          1           0       11.315793   -0.959838   -1.293717
    111          1           0       11.603860    1.170029    0.055714
    112          1           0       12.561880    0.394610    1.385197
    113          1           0       13.287307    0.653520   -1.553281
    114          1           0       15.078781   -0.737303    0.685875
    115          1           0       13.995044   -1.656119   -0.627680
    116          1           0       15.336115   -0.721954   -1.152425
    117          1           0       13.587907    2.726574   -0.001545
    118          1           0       14.473525    1.771834    1.062782
    119          1           0       16.308220    1.184207   -0.787959
    120          1           0       14.979410    2.338995   -2.019766
    121          1           0       15.255412    4.232748   -0.785673
    122          1           0       16.228395    3.637297    0.507726
    123          1           0       18.262443    3.028649   -1.286492
    124          1           0       16.594336    4.734155   -3.218631
    125          1           0       18.103384    4.382828   -3.332509
    126          1           0       16.888804    3.078660   -3.338322
    127          1           0       18.233078    5.120421    0.284838
    128          1           0       19.115695    5.399845   -1.227373
    129          1           0       17.511846    6.163977   -0.852826
    130          1           0       -4.933827   -7.767803    0.075342
    131          1           0       -6.572879   -6.891639    0.437304
    132          1           0       -4.877703   -6.852539    1.592016
    133          8           0       -7.797428    6.941642   -0.398099
    134          1           0       -8.837490    6.448174   -1.943608
 ---------------------------------------------------------------------

 SCF Done:  E(RCAM-B3LYP) =  -3043.47071718     A.U. after   16 cycles

 Excitation energies and oscillator strengths:

 Excited State   1:      Singlet-A      2.0048 eV  618.45 nm  f=0.1671  <S**2>=0.000
     243 -> 246       -0.28743
     244 -> 245        0.63875
 This state for optimization and/or second-order correction.
 Total Energy, E(TD-HF/TD-DFT) =  -3043.39704349
 Copying the excited state density for this state as the 1-particle RhoCI density.

 The electronic state is 1-A.
 Alpha  occ. eigenvalues --  -46.81234 -19.25535 -19.21520 -19.18455 -19.17774
 Alpha  occ. eigenvalues --  -19.17138 -19.16998 -19.15717 -14.39217 -14.37322
 Alpha  occ. eigenvalues --  -14.36835 -14.36816 -10.36870 -10.35395 -10.33073
 Alpha  occ. eigenvalues --  -10.29663 -10.29477 -10.29286 -10.28363 -10.28179
 Alpha  occ. eigenvalues --  -10.27848 -10.27063 -10.27018 -10.26872 -10.26591
 Alpha  occ. eigenvalues --  -10.26548 -10.26433 -10.26201 -10.26132 -10.26033
 Alpha  occ. eigenvalues --  -10.25495 -10.25239 -10.25020 -10.24682 -10.24646
 Alpha  occ. eigenvalues --  -10.24557 -10.24457 -10.24414 -10.23646 -10.23617
 Alpha  occ. eigenvalues --  -10.23400 -10.23109 -10.23042 -10.23006 -10.22916
 Alpha  occ. eigenvalues --  -10.22860 -10.22857 -10.22446 -10.22127 -10.22083
 Alpha  occ. eigenvalues --  -10.22004 -10.21979 -10.21770 -10.21656 -10.21614
 Alpha  occ. eigenvalues --  -10.21336 -10.21283 -10.21240 -10.21111 -10.20554
 Alpha  occ. eigenvalues --  -10.20472 -10.20424 -10.20240 -10.20066 -10.19809
 Alpha  occ. eigenvalues --  -10.18296  -3.09921  -1.84846  -1.84385  -1.84358
 Alpha  occ. eigenvalues --   -1.17546  -1.10464  -1.09949  -1.08249  -1.04952
 Alpha  occ. eigenvalues --   -1.02579  -1.01572  -1.01017  -1.00440  -0.99722
 Alpha  occ. eigenvalues --   -0.96451  -0.88298  -0.86893  -0.85906  -0.85778
 Alpha  occ. eigenvalues --   -0.85366  -0.84837  -0.84495  -0.84402  -0.83491
 Alpha  occ. eigenvalues --   -0.82715  -0.81796  -0.81247  -0.80381  -0.79763
 Alpha  occ. eigenvalues --   -0.78849  -0.78161  -0.78016  -0.77129  -0.76135
 Alpha  occ. eigenvalues --   -0.75668  -0.75267  -0.73824  -0.72896  -0.72467
 Alpha  occ. eigenvalues --   -0.71859  -0.70610  -0.70397  -0.69830  -0.69624
 Alpha  occ. eigenvalues --   -0.69115  -0.68792  -0.67577  -0.67139  -0.66371
 Alpha  occ. eigenvalues --   -0.65406  -0.64398  -0.63416  -0.61847  -0.61604
 Alpha  occ. eigenvalues --   -0.61222  -0.60874  -0.59841  -0.59450  -0.59348
 Alpha  occ. eigenvalues --   -0.59223  -0.57966  -0.57687  -0.57643  -0.56886
 Alpha  occ. eigenvalues --   -0.56026  -0.55775  -0.55037  -0.54740  -0.54573
 Alpha  occ. eigenvalues --   -0.54296  -0.53943  -0.52680  -0.52506  -0.52251
 Alpha  occ. eigenvalues --   -0.52055  -0.51937  -0.51396  -0.51249  -0.50548
 Alpha  occ. eigenvalues --   -0.50065  -0.49974  -0.49194  -0.49078  -0.49042
 Alpha  occ. eigenvalues --   -0.48636  -0.48464  -0.48332  -0.48041  -0.47729
 Alpha  occ. eigenvalues --   -0.47486  -0.47229  -0.47114  -0.46976  -0.46694
 Alpha  occ. eigenvalues --   -0.46672  -0.46511  -0.46225  -0.46029  -0.45836
 Alpha  occ. eigenvalues --   -0.45599  -0.45422  -0.44838  -0.44625  -0.44571
 Alpha  occ. eigenvalues --   -0.44440  -0.43974  -0.43879  -0.43799  -0.43651
 Alpha  occ. eigenvalues --   -0.43437  -0.43307  -0.43129  -0.42958  -0.42800
 Alpha  occ. eigenvalues --   -0.42761  -0.42508  -0.42282  -0.41833  -0.41541
 Alpha  occ. eigenvalues --   -0.41457  -0.41332  -0.41131  -0.40959  -0.40623
 Alpha  occ. eigenvalues --   -0.40571  -0.40439  -0.40228  -0.40054  -0.39921
 Alpha  occ. eigenvalues --   -0.39858  -0.39625  -0.39255  -0.39145  -0.38946
 Alpha  occ. eigenvalues --   -0.38841  -0.38578  -0.38474  -0.38437  -0.38045
 Alpha  occ. eigenvalues --   -0.37799  -0.37586  -0.37551  -0.37330  -0.36991
 Alpha  occ. eigenvalues --   -0.36384  -0.36249  -0.36083  -0.35825  -0.35650
 Alpha  occ. eigenvalues --   -0.35436  -0.35333  -0.34563  -0.34476  -0.34396
 Alpha  occ. eigenvalues --   -0.34141  -0.33877  -0.33802  -0.33750  -0.33494
 Alpha  occ. eigenvalues --   -0.33200  -0.32580  -0.32157  -0.32042  -0.31949
 Alpha  occ. eigenvalues --   -0.31303  -0.30757  -0.30649  -0.30197  -0.29953
 Alpha  occ. eigenvalues --   -0.28871  -0.28719  -0.28254  -0.27833  -0.27547
 Alpha  occ. eigenvalues --   -0.27393  -0.26499  -0.22760  -0.21769
 Alpha virt. eigenvalues --   -0.08762  -0.06672  -0.01776  -0.00493  -0.00012
 Alpha virt. eigenvalues --    0.01596   0.02166   0.03653   0.04038   0.04162
 Alpha virt. eigenvalues --    0.04480   0.05562   0.07049   0.07853   0.08497

 Mulliken charges:
               1
     1  Mg   0.836295
     2  C    0.099569
     3  C   -0.193916
     4  C   -0.178717
     5  C   -0.164620
     6  N   -0.647193
     7  C    0.362052
     8  C   -0.167728
     9  C   -0.138974
    10  C    0.359787
    11  C   -0.278754
    12  C   -0.176777
    13  C   -0.243778
    14  C    0.600238
    15  O   -0.492981
    16  O   -0.481443
    17  N   -0.678083
    18  C    0.270691
    19  C    0.036435
    20  C    0.030159
    21  C    0.293155
    22  C   -0.393476
    23  C    0.196852
    24  O   -0.433982
    25  N   -0.679066
    26  C    0.279081
    27  C    0.000725
    28  C   -0.034541
    29  C    0.324902
    30  C    0.245164
    31  C   -0.228743
    32  C   -0.309538
    33  N   -0.756277
    34  C    0.284171
    35  C    0.054029
    36  C   -0.018436
    37  C    0.276043
    38  C   -0.391019
    39  C    0.395618
    40  O   -0.440827
    41  C   -0.329660
    42  C    0.608235
    43  O   -0.503930
    44  O   -0.369016
    45  C   -0.087700
    46  C   -0.009392
    47  C   -0.106447
    48  C    0.156741
    49  C   -0.372449
    50  C   -0.231567
    51  C   -0.180402
    52  C   -0.160959
    53  C   -0.044644
    54  C   -0.304228
    55  C   -0.169638
    56  C   -0.187728
    57  C   -0.178455
    58  C   -0.031159
    59  C   -0.319161
    60  C   -0.170278
    61  C   -0.146763
    62  C   -0.165550
    63  C   -0.042426
    64  C   -0.311479
    65  C   -0.330525
    66  H    0.080241
    67  H    0.140196
    68  H    0.093371
    69  H    0.119349
    70  H    0.089088
    71  H    0.117036
    72  H    0.089987
    73  H    0.099632
    74  H    0.103377
    75  H    0.128783
    76  H    0.141442
    77  H    0.130059
    78  H    0.140809
    79  H    0.158773
    80  H    0.119440
    81  H    0.070088
    82  H    0.111299
    83  H    0.115261
    84  H    0.105414
    85  H    0.110045
    86  H    0.122350
    87  H    0.116728
    88  H    0.148867
    89  H    0.144531
    90  H    0.135918
    91  H    0.122718
    92  H    0.116852
    93  H    0.068633
    94  H    0.143747
    95  H    0.091771
    96  H    0.129083
    97  H    0.086286
    98  H    0.091133
    99  H    0.094804
   100  H    0.075711
   101  H    0.090411
   102  H    0.087498
   103  H    0.089792
   104  H    0.103367
   105  H    0.113834
   106  H    0.072640
   107  H    0.070252
   108  H    0.095916
   109  H    0.100558
   110  H    0.091261
   111  H    0.089478
   112  H    0.066864
   113  H    0.092609
   114  H    0.104386
   115  H    0.104284
   116  H    0.079481
   117  H    0.088783
   118  H    0.065026
   119  H    0.091967
   120  H    0.086683
   121  H    0.069239
   122  H    0.080500
   123  H    0.080031
   124  H    0.112985
   125  H    0.084085
   126  H    0.101145
   127  H    0.084228
   128  H    0.095439
   129  H    0.112768
   130  H    0.125151
   131  H    0.139927
   132  H    0.100621
   133  O   -0.388836
   134  H    0.037292
 Sum of Mulliken charges =  -0.00000

 Dipole moment (field-independent basis, Debye):
    X=              1.8867    Y=             -6.3065    Z=             -2.0483  Tot=              6.8940
 Quadrupole moment (field-independent basis, Debye-Ang):
   XX=           -383.1795   YY=           -435.5953   ZZ=           -395.8022
   XY=             13.6364   XZ=             28.2625   YZ=            -34.3737

 Normal termination of Gaussian 16 at Tue Oct  8 17:13:15 2019.
