 Gaussian 16, Revision A.03,
 Gaussian 16:  ES64L-G16RevA.03 25-Dec-2016

 ----------------------------------------------------------------------
 # td=(NStates=1) iop(3/107=0140000000,3/108=0140000000) iop(3/107=0140
 000000,3/108=0140000000) CAM-B3LYP/6-31G(d,p)
 ----------------------------------------------------------------------

 --
 TD
 --
 Symbolic Z-matrix:
 Charge =  0 Multiplicity = 1

                         Standard orientation:
 ---------------------------------------------------------------------
 Center     Atomic      Atomic             Coordinates (Angstroms)
 Number     Number       Type             X           Y           Z
 ---------------------------------------------------------------------
      1         12           0       -5.634001    1.141029    0.183338
      2          6           0       -4.963591   -2.080919   -0.377673
      3          6           0       -3.387815    1.202761    2.732454
      4          6           0       -6.149120    4.501910    0.667905
      5          6           0       -8.256827    1.118252   -2.247411
      6          7           0       -4.400870   -0.276275    1.114254
      7          6           0       -4.213010   -1.560693    0.674979
      8          6           0       -3.208467   -2.344839    1.527529
      9          6           0       -2.901441   -1.307344    2.637606
     10          6           0       -3.555895   -0.036910    2.179523
     11          6           0       -3.431806   -1.716113    4.128721
     12          6           0       -1.959178   -2.684899    0.646190
     13          6           0       -1.017434   -3.619145    1.341643
     14          6           0        0.282111   -3.937352    0.479318
     15          8           0        0.487174   -3.485976   -0.544606
     16          8           0        1.103301   -4.582300    1.319133
     17          7           0       -4.852829    2.623068    1.393455
     18          6           0       -3.926501    2.415390    2.411165
     19          6           0       -3.646457    3.595797    3.094534
     20          6           0       -4.481866    4.539254    2.460050
     21          6           0       -5.256055    3.956176    1.462186
     22          6           0       -2.760595    3.820997    4.165887
     23          6           0       -4.663535    5.969758    2.836453
     24          8           0       -4.099871    6.654754    3.745376
     25          7           0       -7.029343    2.579373   -0.664597
     26          6           0       -7.066106    3.906170   -0.344421
     27          6           0       -7.965226    4.540304   -1.198119
     28          6           0       -8.588129    3.573595   -2.009605
     29          6           0       -7.949039    2.344108   -1.662368
     30          6           0       -8.473158    5.968306   -1.127465
     31          6           0       -9.659030    3.719033   -3.008937
     32          6           0       -9.127495    4.124497   -4.362272
     33          7           0       -6.450504   -0.182067   -0.988701
     34          6           0       -7.352276    0.008261   -2.046816
     35          6           0       -7.578363   -1.331990   -2.726741
     36          6           0       -6.762979   -2.207398   -2.083461
     37          6           0       -6.054673   -1.382332   -1.086750
     38          6           0       -8.662481   -1.662775   -3.804685
     39          6           0       -6.153111   -3.576420   -2.046211
     40          8           0       -6.398520   -4.572333   -2.660514
     41          6           0       -5.002354   -3.593029   -0.950999
     42          6           0       -5.254800   -4.678697    0.088692
     43          8           0       -5.592786   -4.446764    1.297139
     44          8           0       -5.041037   -5.869521   -0.379741
     45          6           0       -5.415316   -6.903744    0.445559
     46          6           0        2.311552   -4.999856    0.580343
     47          6           0        3.473356   -3.971277    1.019913
     48          6           0        4.102037   -3.232280    0.151570
     49          6           0        3.904029   -3.280979   -1.368695
     50          6           0        5.315838   -2.364814    0.678316
     51          6           0        6.660398   -2.696284    0.038430
     52          6           0        7.725596   -1.636767    0.534719
     53          6           0        9.127596   -1.995835   -0.036438
     54          6           0        9.611198   -3.408304    0.388729
     55          6           0       10.002073   -0.953508    0.437854
     56          6           0       11.505813   -0.924874   -0.131904
     57          6           0       12.291415    0.372315    0.321838
     58          6           0       13.550345    0.577772   -0.473436
     59          6           0       14.569678   -0.750318   -0.340968
     60          6           0       14.235570    1.845107   -0.206334
     61          6           0       15.503389    2.173560   -0.969693
     62          6           0       16.075525    3.540005   -0.660712
     63          6           0       17.408426    4.001940   -1.386930
     64          6           0       17.191489    3.973736   -2.937214
     65          6           0       17.902797    5.266353   -1.001700
     66          1           0       -2.705600    1.196369    3.604297
     67          1           0       -6.458418    5.500235    0.926986
     68          1           0       -8.878666    0.951945   -3.015498
     69          1           0       -3.559283   -3.245238    1.679510
     70          1           0       -1.901049   -1.088440    2.840385
     71          1           0       -2.953722   -2.609759    4.314158
     72          1           0       -3.365461   -0.818324    4.629883
     73          1           0       -4.553683   -2.091269    4.142035
     74          1           0       -2.199188   -3.042150   -0.486710
     75          1           0       -1.439263   -1.749495    0.627355
     76          1           0       -0.595004   -3.205962    2.155812
     77          1           0       -1.590509   -4.612154    1.557405
     78          1           0       -1.676187    3.631571    3.905129
     79          1           0       -2.920498    4.840447    4.227147
     80          1           0       -2.933682    2.917588    5.102823
     81          1           0       -5.480320    6.628766    2.133373
     82          1           0      -10.212888    2.883858   -3.238499
     83          1           0      -10.436330    4.583709   -2.859214
     84          1           0       -9.883849    4.243164   -5.236121
     85          1           0       -8.567431    5.046636   -4.405866
     86          1           0       -8.350302    3.388709   -4.768332
     87          1           0       -8.362842   -1.115255   -4.645241
     88          1           0       -8.797849   -2.779208   -4.017326
     89          1           0       -9.618401   -1.353167   -3.615202
     90          1           0       -4.246111   -3.725554   -1.628127
     91          1           0        2.591064   -6.015359    0.977948
     92          1           0        2.140698   -4.741911   -0.527609
     93          1           0        3.618466   -3.904100    2.225761
     94          1           0        2.837216   -3.442154   -1.424134
     95          1           0        4.008004   -2.420482   -1.793618
     96          1           0        4.549782   -4.013182   -1.898679
     97          1           0        5.385704   -1.345671    0.327276
     98          1           0        5.362319   -2.339681    1.865980
     99          1           0        7.079582   -3.918816    0.086913
    100          1           0        6.399928   -2.584714   -1.171586
    101          1           0        7.486171   -0.762675    0.031545
    102          1           0        7.579628   -1.499725    1.756507
    103          1           0        9.183253   -2.059431   -1.146583
    104          1           0        8.936616   -4.332010    0.047667
    105          1           0       10.608102   -3.651150   -0.092107
    106          1           0        9.680992   -3.596900    1.457299
    107          1           0        9.612068    0.062752    0.133029
    108          1           0       10.215381   -0.967730    1.559098
    109          1           0       12.150869   -1.804944    0.133435
    110          1           0       11.242934   -1.127210   -1.112368
    111          1           0       11.578423    1.140417    0.329055
    112          1           0       12.474594    0.577761    1.351091
    113          1           0       13.348441    0.613962   -1.485985
    114          1           0       14.643610   -1.107468    0.723590
    115          1           0       14.059275   -1.629616   -0.628347
    116          1           0       15.460014   -0.592046   -0.983122
    117          1           0       13.561134    2.701376   -0.370742
    118          1           0       14.468079    1.901615    0.903572
    119          1           0       16.452719    1.476389   -1.012096
    120          1           0       15.228242    2.097225   -1.994681
    121          1           0       15.343167    4.108764   -0.921513
    122          1           0       16.050029    3.517671    0.544295
    123          1           0       18.236340    3.284545   -1.198106
    124          1           0       16.651802    4.797400   -3.250637
    125          1           0       17.990698    4.204648   -3.599857
    126          1           0       16.652801    3.091901   -3.292499
    127          1           0       18.281547    5.497847    0.019519
    128          1           0       18.636260    5.664519   -1.791168
    129          1           0       17.145235    6.097259   -1.190283
    130          1           0       -5.018965   -7.713883   -0.164793
    131          1           0       -6.441512   -6.836017    0.678266
    132          1           0       -4.800764   -6.713378    1.331837
    133          8           0       -7.995730    6.759794   -0.394899
    134          1           0       -9.377447    6.050922   -1.804251
 ---------------------------------------------------------------------

 SCF Done:  E(RCAM-B3LYP) =  -3043.42360636     A.U. after   16 cycles

 Excitation energies and oscillator strengths:

 Excited State   1:      Singlet-A      2.1221 eV  584.25 nm  f=0.1459  <S**2>=0.000
     243 -> 245        0.15823
     243 -> 246       -0.28468
     244 -> 245        0.60881
     244 -> 246        0.11628
 This state for optimization and/or second-order correction.
 Total Energy, E(TD-HF/TD-DFT) =  -3043.34561977
 Copying the excited state density for this state as the 1-particle RhoCI density.

 The electronic state is 1-A.
 Alpha  occ. eigenvalues --  -46.81246 -19.23977 -19.22692 -19.18661 -19.17973
 Alpha  occ. eigenvalues --  -19.17511 -19.17240 -19.17054 -14.38380 -14.37399
 Alpha  occ. eigenvalues --  -14.36226 -14.35997 -10.35946 -10.34788 -10.32386
 Alpha  occ. eigenvalues --  -10.31539 -10.30401 -10.28660 -10.27445 -10.27355
 Alpha  occ. eigenvalues --  -10.27196 -10.27012 -10.26615 -10.26301 -10.26072
 Alpha  occ. eigenvalues --  -10.25779 -10.25262 -10.25102 -10.25050 -10.24543
 Alpha  occ. eigenvalues --  -10.24402 -10.24196 -10.24130 -10.23867 -10.23483
 Alpha  occ. eigenvalues --  -10.23410 -10.23389 -10.23319 -10.23162 -10.23148
 Alpha  occ. eigenvalues --  -10.22991 -10.22987 -10.22837 -10.22833 -10.22799
 Alpha  occ. eigenvalues --  -10.22686 -10.22634 -10.22444 -10.22320 -10.22283
 Alpha  occ. eigenvalues --  -10.22161 -10.22160 -10.21991 -10.21689 -10.21254
 Alpha  occ. eigenvalues --  -10.21156 -10.20930 -10.20731 -10.20602 -10.20418
 Alpha  occ. eigenvalues --  -10.20346 -10.20315 -10.20286 -10.20220 -10.20097
 Alpha  occ. eigenvalues --  -10.19157  -3.09851  -1.84793  -1.84316  -1.84267
 Alpha  occ. eigenvalues --   -1.17041  -1.16251  -1.09061  -1.09018  -1.08117
 Alpha  occ. eigenvalues --   -1.03718  -1.02990  -1.01961  -0.99796  -0.99205
 Alpha  occ. eigenvalues --   -0.98577  -0.87098  -0.86115  -0.85949  -0.85747
 Alpha  occ. eigenvalues --   -0.85449  -0.84831  -0.84689  -0.84430  -0.83844
 Alpha  occ. eigenvalues --   -0.83676  -0.83186  -0.81869  -0.80568  -0.79955
 Alpha  occ. eigenvalues --   -0.79133  -0.78584  -0.78073  -0.77427  -0.76019
 Alpha  occ. eigenvalues --   -0.75487  -0.74996  -0.74367  -0.73764  -0.72896
 Alpha  occ. eigenvalues --   -0.71603  -0.71580  -0.70645  -0.70443  -0.69727
 Alpha  occ. eigenvalues --   -0.69467  -0.69173  -0.67251  -0.66248  -0.65668
 Alpha  occ. eigenvalues --   -0.65227  -0.64506  -0.63853  -0.62836  -0.62406
 Alpha  occ. eigenvalues --   -0.61733  -0.61382  -0.60318  -0.59796  -0.59602
 Alpha  occ. eigenvalues --   -0.59158  -0.58426  -0.58343  -0.58146  -0.57000
 Alpha  occ. eigenvalues --   -0.56686  -0.56311  -0.55579  -0.55148  -0.55006
 Alpha  occ. eigenvalues --   -0.54541  -0.54138  -0.53736  -0.53405  -0.52896
 Alpha  occ. eigenvalues --   -0.52140  -0.51738  -0.51601  -0.51151  -0.50952
 Alpha  occ. eigenvalues --   -0.50480  -0.50277  -0.50055  -0.49620  -0.48975
 Alpha  occ. eigenvalues --   -0.48836  -0.48724  -0.48486  -0.48116  -0.48050
 Alpha  occ. eigenvalues --   -0.47678  -0.47613  -0.47394  -0.47298  -0.46942
 Alpha  occ. eigenvalues --   -0.46869  -0.46701  -0.46542  -0.46492  -0.46011
 Alpha  occ. eigenvalues --   -0.45820  -0.45682  -0.45630  -0.45417  -0.45171
 Alpha  occ. eigenvalues --   -0.44922  -0.44787  -0.44693  -0.44278  -0.44031
 Alpha  occ. eigenvalues --   -0.43765  -0.43486  -0.43365  -0.43028  -0.42913
 Alpha  occ. eigenvalues --   -0.42741  -0.42502  -0.42456  -0.42276  -0.42232
 Alpha  occ. eigenvalues --   -0.41752  -0.41554  -0.41371  -0.41246  -0.41140
 Alpha  occ. eigenvalues --   -0.40912  -0.40793  -0.40581  -0.40300  -0.39739
 Alpha  occ. eigenvalues --   -0.39711  -0.39629  -0.39402  -0.39395  -0.39022
 Alpha  occ. eigenvalues --   -0.38923  -0.38665  -0.38564  -0.38481  -0.38447
 Alpha  occ. eigenvalues --   -0.38137  -0.37988  -0.37801  -0.37748  -0.37110
 Alpha  occ. eigenvalues --   -0.36921  -0.36804  -0.36320  -0.36120  -0.35824
 Alpha  occ. eigenvalues --   -0.35549  -0.35260  -0.35162  -0.34669  -0.34539
 Alpha  occ. eigenvalues --   -0.34317  -0.34116  -0.33570  -0.33515  -0.33030
 Alpha  occ. eigenvalues --   -0.32770  -0.32717  -0.31985  -0.31917  -0.31846
 Alpha  occ. eigenvalues --   -0.31524  -0.31198  -0.30815  -0.30255  -0.30039
 Alpha  occ. eigenvalues --   -0.29235  -0.28354  -0.28136  -0.27681  -0.27530
 Alpha  occ. eigenvalues --   -0.27127  -0.26867  -0.22837  -0.21948
 Alpha virt. eigenvalues --   -0.08331  -0.06493  -0.01466  -0.00199   0.00797
 Alpha virt. eigenvalues --    0.02333   0.03399   0.04515   0.04757   0.05068
 Alpha virt. eigenvalues --    0.05391   0.05752   0.08484   0.08739   0.09238

 Mulliken charges:
               1
     1  Mg   0.824878
     2  C    0.007265
     3  C   -0.219688
     4  C   -0.180793
     5  C   -0.106043
     6  N   -0.659500
     7  C    0.320634
     8  C   -0.102890
     9  C   -0.170524
    10  C    0.366702
    11  C   -0.304078
    12  C   -0.180889
    13  C   -0.267022
    14  C    0.588586
    15  O   -0.405536
    16  O   -0.452515
    17  N   -0.749231
    18  C    0.349050
    19  C    0.111096
    20  C   -0.045532
    21  C    0.390500
    22  C   -0.387897
    23  C    0.226909
    24  O   -0.438082
    25  N   -0.681321
    26  C    0.281144
    27  C   -0.074932
    28  C    0.052087
    29  C    0.287197
    30  C    0.272888
    31  C   -0.256146
    32  C   -0.318178
    33  N   -0.701352
    34  C    0.200665
    35  C   -0.043532
    36  C    0.065874
    37  C    0.309787
    38  C   -0.377990
    39  C    0.337953
    40  O   -0.431183
    41  C   -0.282676
    42  C    0.608526
    43  O   -0.516465
    44  O   -0.383983
    45  C   -0.085021
    46  C   -0.043399
    47  C   -0.125368
    48  C    0.127830
    49  C   -0.375668
    50  C   -0.208460
    51  C   -0.160786
    52  C   -0.160150
    53  C   -0.054325
    54  C   -0.309635
    55  C   -0.177669
    56  C   -0.188890
    57  C   -0.184840
    58  C   -0.033240
    59  C   -0.338549
    60  C   -0.175770
    61  C   -0.187523
    62  C   -0.149684
    63  C   -0.034324
    64  C   -0.340980
    65  C   -0.308318
    66  H    0.068596
    67  H    0.120370
    68  H    0.087670
    69  H    0.114696
    70  H    0.115510
    71  H    0.128780
    72  H    0.119152
    73  H    0.113019
    74  H    0.100101
    75  H    0.108951
    76  H    0.138412
    77  H    0.107953
    78  H    0.127945
    79  H    0.159464
    80  H    0.091039
    81  H    0.069722
    82  H    0.118876
    83  H    0.108791
    84  H    0.094155
    85  H    0.119100
    86  H    0.095412
    87  H    0.137658
    88  H    0.139612
    89  H    0.138184
    90  H    0.165053
    91  H    0.125187
    92  H    0.137423
    93  H    0.080474
    94  H    0.133756
    95  H    0.125889
    96  H    0.124356
    97  H    0.101377
    98  H    0.074518
    99  H    0.056640
   100  H    0.062823
   101  H    0.113062
   102  H    0.083835
   103  H    0.090543
   104  H    0.080730
   105  H    0.095192
   106  H    0.107876
   107  H    0.082734
   108  H    0.088084
   109  H    0.088531
   110  H    0.097049
   111  H    0.087447
   112  H    0.092940
   113  H    0.090251
   114  H    0.096050
   115  H    0.106373
   116  H    0.108050
   117  H    0.089572
   118  H    0.074707
   119  H    0.074158
   120  H    0.091036
   121  H    0.101656
   122  H    0.065480
   123  H    0.088554
   124  H    0.107345
   125  H    0.103964
   126  H    0.102789
   127  H    0.104066
   128  H    0.088720
   129  H    0.085108
   130  H    0.126843
   131  H    0.142135
   132  H    0.125501
   133  O   -0.399439
   134  H    0.059401
 Sum of Mulliken charges =  -0.00000

 Dipole moment (field-independent basis, Debye):
    X=              1.4872    Y=             -6.1534    Z=             -2.8983  Tot=              6.9624
 Quadrupole moment (field-independent basis, Debye-Ang):
   XX=           -388.4759   YY=           -439.1525   ZZ=           -395.1171
   XY=             23.5594   XZ=             21.6630   YZ=            -33.3770

 Normal termination of Gaussian 16 at Thu Oct 10 16:10:43 2019.
