 Gaussian 16, Revision A.03,
 Gaussian 16:  ES64L-G16RevA.03 25-Dec-2016

 ----------------------------------------------------------------------
 # td=(NStates=1) iop(3/107=0140000000,3/108=0140000000) iop(3/107=0140
 000000,3/108=0140000000) CAM-B3LYP/6-31G(d,p)
 ----------------------------------------------------------------------

 --
 TD
 --
 Symbolic Z-matrix:
 Charge =  0 Multiplicity = 1

                         Standard orientation:
 ---------------------------------------------------------------------
 Center     Atomic      Atomic             Coordinates (Angstroms)
 Number     Number       Type             X           Y           Z
 ---------------------------------------------------------------------
      1         12           0       -5.638763    1.197961    0.103880
      2          6           0       -5.041932   -2.160168   -0.417875
      3          6           0       -3.371574    1.233418    2.646549
      4          6           0       -6.335542    4.507804    0.711797
      5          6           0       -7.980065    1.115555   -2.371907
      6          7           0       -4.351711   -0.385072    1.028387
      7          6           0       -4.293806   -1.626255    0.734952
      8          6           0       -3.198140   -2.340116    1.539997
      9          6           0       -2.926661   -1.326716    2.623926
     10          6           0       -3.613260   -0.050946    2.082769
     11          6           0       -3.609813   -1.694931    4.021330
     12          6           0       -2.001683   -2.643083    0.671163
     13          6           0       -1.031006   -3.671097    1.507187
     14          6           0        0.193713   -3.940256    0.717811
     15          8           0        0.463119   -3.626605   -0.464330
     16          8           0        1.094066   -4.718124    1.422390
     17          7           0       -4.878968    2.724705    1.416962
     18          6           0       -3.950261    2.515520    2.388823
     19          6           0       -3.705328    3.775732    3.091951
     20          6           0       -4.548278    4.687357    2.549811
     21          6           0       -5.342603    4.022046    1.454911
     22          6           0       -2.708149    3.811429    4.160772
     23          6           0       -4.680809    6.124236    2.929642
     24          8           0       -4.031094    6.721312    3.805767
     25          7           0       -6.887244    2.635367   -0.713475
     26          6           0       -7.050802    3.956292   -0.291666
     27          6           0       -8.096547    4.595310   -1.096092
     28          6           0       -8.548911    3.628662   -1.965449
     29          6           0       -7.781028    2.393084   -1.696092
     30          6           0       -8.410324    6.049052   -1.202208
     31          6           0       -9.495585    3.813411   -3.141331
     32          6           0       -8.817016    3.923207   -4.500267
     33          7           0       -6.322514   -0.166330   -1.188381
     34          6           0       -7.362726   -0.034270   -2.101888
     35          6           0       -7.609411   -1.351126   -2.755333
     36          6           0       -6.745201   -2.252541   -2.063764
     37          6           0       -5.965316   -1.429961   -1.126030
     38          6           0       -8.622237   -1.575538   -3.833705
     39          6           0       -6.207986   -3.609156   -2.026141
     40          8           0       -6.562620   -4.627160   -2.604886
     41          6           0       -5.030166   -3.622067   -0.891055
     42          6           0       -5.258273   -4.678681    0.196709
     43          8           0       -5.816538   -4.447205    1.286252
     44          8           0       -4.856635   -5.941558   -0.333286
     45          6           0       -5.219048   -7.042832    0.561744
     46          6           0        2.368183   -5.054295    0.718032
     47          6           0        3.519752   -4.069136    1.133046
     48          6           0        4.102104   -3.291770    0.258985
     49          6           0        3.779738   -3.181604   -1.220058
     50          6           0        5.264332   -2.435053    0.703438
     51          6           0        6.623163   -2.697743   -0.104112
     52          6           0        7.645478   -1.812143    0.478315
     53          6           0        9.049274   -2.019352   -0.140027
     54          6           0        9.656102   -3.331826    0.139067
     55          6           0        9.937673   -0.857562    0.215532
     56          6           0       11.353984   -0.856594   -0.533300
     57          6           0       12.217747    0.270122    0.045317
     58          6           0       13.607260    0.406501   -0.552731
     59          6           0       14.570492   -0.795820   -0.175744
     60          6           0       14.267568    1.746722   -0.138140
     61          6           0       15.443288    2.233322   -1.002972
     62          6           0       16.148391    3.563370   -0.634911
     63          6           0       17.370861    3.935536   -1.308757
     64          6           0       17.261298    4.129176   -2.837077
     65          6           0       17.842696    5.261441   -0.713787
     66          1           0       -2.884356    1.131383    3.550020
     67          1           0       -6.613547    5.469372    0.782062
     68          1           0       -8.492339    1.047527   -3.340913
     69          1           0       -3.693036   -3.311473    1.745820
     70          1           0       -1.836351   -1.124551    2.777224
     71          1           0       -3.249470   -2.827874    4.351126
     72          1           0       -3.509048   -0.895954    4.730427
     73          1           0       -4.690987   -1.738976    3.855577
     74          1           0       -2.265904   -2.982623   -0.380030
     75          1           0       -1.528568   -1.608778    0.601062
     76          1           0       -0.528642   -3.139578    2.453311
     77          1           0       -1.449707   -4.601450    1.747068
     78          1           0       -1.795370    3.525697    3.853352
     79          1           0       -2.572223    4.806085    4.384258
     80          1           0       -3.052529    3.196209    5.051926
     81          1           0       -5.603431    6.989229    2.646295
     82          1           0      -10.082047    2.830945   -3.179500
     83          1           0      -10.236617    4.650227   -2.967816
     84          1           0       -9.630398    4.051514   -5.403330
     85          1           0       -8.175626    4.741044   -4.408201
     86          1           0       -8.276021    2.970942   -4.831981
     87          1           0       -8.306097   -1.307415   -4.806718
     88          1           0       -8.857850   -2.797567   -3.818286
     89          1           0       -9.591740   -1.301816   -3.454429
     90          1           0       -4.138869   -3.912923   -1.377384
     91          1           0        2.513137   -6.011091    1.246704
     92          1           0        2.084855   -4.971802   -0.374585
     93          1           0        3.889138   -4.162528    2.213926
     94          1           0        2.618441   -3.179701   -1.408809
     95          1           0        4.237681   -2.230260   -1.677646
     96          1           0        4.252462   -3.870068   -1.642939
     97          1           0        5.188680   -1.416347    0.551830
     98          1           0        5.525581   -2.406408    1.749588
     99          1           0        7.042283   -3.786799   -0.087275
    100          1           0        6.622273   -2.550001   -1.247358
    101          1           0        7.174165   -0.865027    0.079123
    102          1           0        7.832895   -1.791580    1.549157
    103          1           0        9.065221   -1.879764   -1.248048
    104          1           0        9.152708   -4.174312   -0.201727
    105          1           0       10.404259   -3.493916   -0.630739
    106          1           0        9.904524   -3.649613    1.198455
    107          1           0        9.505750    0.058621    0.027364
    108          1           0       10.209723   -0.841010    1.312471
    109          1           0       11.915111   -1.899076   -0.349573
    110          1           0       11.183897   -0.600980   -1.457726
    111          1           0       11.739528    1.115369   -0.104765
    112          1           0       12.286816    0.239519    1.175283
    113          1           0       13.521154    0.668269   -1.494386
    114          1           0       14.801555   -0.742592    1.074119
    115          1           0       13.841826   -1.808526   -0.706213
    116          1           0       15.517339   -0.968623   -0.597345
    117          1           0       13.576926    2.610598   -0.046617
    118          1           0       14.541989    1.805926    0.858854
    119          1           0       16.348200    1.520742   -1.055789
    120          1           0       15.070666    2.202422   -2.119122
    121          1           0       15.288673    4.498000   -0.676022
    122          1           0       16.130222    3.558558    0.432501
    123          1           0       18.056713    3.261682   -0.955124
    124          1           0       16.359165    4.813793   -2.868023
    125          1           0       18.050550    4.661615   -3.356561
    126          1           0       17.079747    3.257874   -3.475855
    127          1           0       17.457930    5.284538    0.453733
    128          1           0       18.988984    5.209869   -0.776230
    129          1           0       17.294673    6.283254   -1.279464
    130          1           0       -5.162254   -7.820826   -0.010076
    131          1           0       -6.396852   -6.708793    0.813060
    132          1           0       -4.861980   -6.978959    1.655397
    133          8           0       -7.894878    6.895658   -0.459737
    134          1           0       -9.190364    6.337991   -2.019786
 ---------------------------------------------------------------------

 SCF Done:  E(RCAM-B3LYP) =  -3043.42943171     A.U. after   16 cycles

 Excitation energies and oscillator strengths:

 Excited State   1:      Singlet-A      2.1025 eV  589.70 nm  f=0.1390  <S**2>=0.000
     243 -> 246        0.32439
     244 -> 245        0.61650
 This state for optimization and/or second-order correction.
 Total Energy, E(TD-HF/TD-DFT) =  -3043.35216656
 Copying the excited state density for this state as the 1-particle RhoCI density.

 The electronic state is 1-A.
 Alpha  occ. eigenvalues --  -46.83128 -19.23479 -19.20949 -19.19271 -19.17871
 Alpha  occ. eigenvalues --  -19.17809 -19.16909 -19.16484 -14.39160 -14.37387
 Alpha  occ. eigenvalues --  -14.37070 -14.36856 -10.36612 -10.34936 -10.32487
 Alpha  occ. eigenvalues --  -10.31733 -10.31444 -10.28166 -10.28017 -10.27900
 Alpha  occ. eigenvalues --  -10.27474 -10.27004 -10.26923 -10.26688 -10.26474
 Alpha  occ. eigenvalues --  -10.26345 -10.25917 -10.25735 -10.25724 -10.25401
 Alpha  occ. eigenvalues --  -10.25143 -10.25078 -10.24482 -10.24357 -10.24270
 Alpha  occ. eigenvalues --  -10.24229 -10.24153 -10.24103 -10.24046 -10.24033
 Alpha  occ. eigenvalues --  -10.23885 -10.23786 -10.23760 -10.23323 -10.23269
 Alpha  occ. eigenvalues --  -10.23217 -10.23210 -10.22551 -10.21956 -10.21754
 Alpha  occ. eigenvalues --  -10.21467 -10.21459 -10.21348 -10.21235 -10.21019
 Alpha  occ. eigenvalues --  -10.20977 -10.20896 -10.20628 -10.20571 -10.20349
 Alpha  occ. eigenvalues --  -10.20302 -10.20228 -10.19945 -10.19834 -10.19475
 Alpha  occ. eigenvalues --  -10.19359  -3.11443  -1.86402  -1.85909  -1.85829
 Alpha  occ. eigenvalues --   -1.11363  -1.10771  -1.07084  -1.06168  -1.04801
 Alpha  occ. eigenvalues --   -1.04727  -1.03403  -1.02007  -1.00713  -0.99661
 Alpha  occ. eigenvalues --   -0.98721  -0.88371  -0.86424  -0.86250  -0.85746
 Alpha  occ. eigenvalues --   -0.85619  -0.84945  -0.84381  -0.84268  -0.83945
 Alpha  occ. eigenvalues --   -0.83722  -0.83534  -0.81517  -0.80631  -0.79984
 Alpha  occ. eigenvalues --   -0.79088  -0.78172  -0.77807  -0.77318  -0.75955
 Alpha  occ. eigenvalues --   -0.75495  -0.75074  -0.74136  -0.73096  -0.72624
 Alpha  occ. eigenvalues --   -0.72092  -0.71023  -0.70332  -0.69896  -0.69402
 Alpha  occ. eigenvalues --   -0.68963  -0.68852  -0.67470  -0.66773  -0.65788
 Alpha  occ. eigenvalues --   -0.65479  -0.65130  -0.64354  -0.62794  -0.62156
 Alpha  occ. eigenvalues --   -0.61715  -0.61626  -0.60425  -0.60384  -0.58933
 Alpha  occ. eigenvalues --   -0.58902  -0.58477  -0.57653  -0.57513  -0.56738
 Alpha  occ. eigenvalues --   -0.56203  -0.55974  -0.55013  -0.54922  -0.54772
 Alpha  occ. eigenvalues --   -0.54031  -0.53615  -0.52634  -0.52435  -0.51973
 Alpha  occ. eigenvalues --   -0.51839  -0.51583  -0.51066  -0.51014  -0.50715
 Alpha  occ. eigenvalues --   -0.50570  -0.50410  -0.50007  -0.49731  -0.48941
 Alpha  occ. eigenvalues --   -0.48678  -0.48594  -0.48540  -0.48287  -0.48042
 Alpha  occ. eigenvalues --   -0.47966  -0.47727  -0.47430  -0.47218  -0.47010
 Alpha  occ. eigenvalues --   -0.46874  -0.46571  -0.46110  -0.46003  -0.45707
 Alpha  occ. eigenvalues --   -0.45666  -0.45383  -0.45267  -0.45151  -0.44964
 Alpha  occ. eigenvalues --   -0.44853  -0.44397  -0.44012  -0.43840  -0.43752
 Alpha  occ. eigenvalues --   -0.43594  -0.43420  -0.43345  -0.43120  -0.42977
 Alpha  occ. eigenvalues --   -0.42623  -0.42300  -0.42187  -0.42039  -0.41584
 Alpha  occ. eigenvalues --   -0.41493  -0.41457  -0.41293  -0.41213  -0.41007
 Alpha  occ. eigenvalues --   -0.40839  -0.40582  -0.40193  -0.39998  -0.39840
 Alpha  occ. eigenvalues --   -0.39749  -0.39656  -0.39334  -0.39283  -0.39069
 Alpha  occ. eigenvalues --   -0.38945  -0.38814  -0.38709  -0.38396  -0.38130
 Alpha  occ. eigenvalues --   -0.37875  -0.37579  -0.37507  -0.37375  -0.37188
 Alpha  occ. eigenvalues --   -0.37051  -0.36842  -0.36730  -0.36425  -0.35704
 Alpha  occ. eigenvalues --   -0.35433  -0.35344  -0.35294  -0.34636  -0.34434
 Alpha  occ. eigenvalues --   -0.34069  -0.34032  -0.33712  -0.33654  -0.32916
 Alpha  occ. eigenvalues --   -0.32859  -0.32302  -0.31895  -0.31868  -0.31682
 Alpha  occ. eigenvalues --   -0.31515  -0.31243  -0.30591  -0.30244  -0.30052
 Alpha  occ. eigenvalues --   -0.29308  -0.28757  -0.28550  -0.28237  -0.27999
 Alpha  occ. eigenvalues --   -0.27491  -0.26227  -0.23045  -0.21653
 Alpha virt. eigenvalues --   -0.08098  -0.06835  -0.02525  -0.01069   0.00119
 Alpha virt. eigenvalues --    0.01337   0.02852   0.03242   0.03357   0.04932
 Alpha virt. eigenvalues --    0.05257   0.05392   0.07628   0.08251   0.08681

 Mulliken charges:
               1
     1  Mg   0.835997
     2  C    0.037160
     3  C   -0.169819
     4  C   -0.124509
     5  C   -0.186317
     6  N   -0.589431
     7  C    0.304010
     8  C   -0.136216
     9  C   -0.159122
    10  C    0.305553
    11  C   -0.303474
    12  C   -0.169613
    13  C   -0.255003
    14  C    0.599890
    15  O   -0.496797
    16  O   -0.493987
    17  N   -0.707915
    18  C    0.311909
    19  C    0.055024
    20  C   -0.034510
    21  C    0.323447
    22  C   -0.374457
    23  C    0.214563
    24  O   -0.416020
    25  N   -0.699632
    26  C    0.262109
    27  C   -0.005838
    28  C    0.008516
    29  C    0.306421
    30  C    0.249131
    31  C   -0.250051
    32  C   -0.291077
    33  N   -0.769140
    34  C    0.305668
    35  C    0.026136
    36  C    0.027110
    37  C    0.335636
    38  C   -0.396344
    39  C    0.349254
    40  O   -0.444217
    41  C   -0.302702
    42  C    0.623796
    43  O   -0.471746
    44  O   -0.465282
    45  C   -0.071673
    46  C   -0.004889
    47  C   -0.146596
    48  C    0.166240
    49  C   -0.380960
    50  C   -0.236524
    51  C   -0.187458
    52  C   -0.153516
    53  C   -0.063143
    54  C   -0.310186
    55  C   -0.172995
    56  C   -0.180431
    57  C   -0.170832
    58  C   -0.033343
    59  C   -0.270806
    60  C   -0.201951
    61  C   -0.169060
    62  C   -0.158197
    63  C   -0.034802
    64  C   -0.309073
    65  C   -0.281374
    66  H    0.074934
    67  H    0.102963
    68  H    0.094203
    69  H    0.117816
    70  H    0.107055
    71  H    0.093772
    72  H    0.117666
    73  H    0.129158
    74  H    0.128213
    75  H    0.112353
    76  H    0.137913
    77  H    0.156053
    78  H    0.134145
    79  H    0.151393
    80  H    0.119682
    81  H    0.069413
    82  H    0.103094
    83  H    0.109381
    84  H    0.088682
    85  H    0.125679
    86  H    0.106317
    87  H    0.149935
    88  H    0.123143
    89  H    0.146778
    90  H    0.156646
    91  H    0.115131
    92  H    0.141623
    93  H    0.082080
    94  H    0.145975
    95  H    0.094618
    96  H    0.142175
    97  H    0.109394
    98  H    0.097892
    99  H    0.075549
   100  H    0.086191
   101  H    0.084184
   102  H    0.093766
   103  H    0.072478
   104  H    0.104313
   105  H    0.104373
   106  H    0.098191
   107  H    0.093499
   108  H    0.074330
   109  H    0.089483
   110  H    0.099980
   111  H    0.097334
   112  H    0.076292
   113  H    0.093473
   114  H    0.074544
   115  H    0.045887
   116  H    0.121966
   117  H    0.080881
   118  H    0.089488
   119  H    0.073421
   120  H    0.072201
   121  H    0.031691
   122  H    0.101651
   123  H    0.099111
   124  H    0.100830
   125  H    0.106878
   126  H    0.102825
   127  H    0.077137
   128  H    0.097497
   129  H    0.072522
   130  H    0.133838
   131  H    0.106102
   132  H    0.133173
   133  O   -0.417822
   134  H    0.070929
 Sum of Mulliken charges =  -0.00000

 Dipole moment (field-independent basis, Debye):
    X=              1.2897    Y=             -5.1512    Z=             -1.4662  Tot=              5.5089
 Quadrupole moment (field-independent basis, Debye-Ang):
   XX=           -371.2975   YY=           -451.2761   ZZ=           -391.7985
   XY=              9.9798   XZ=             20.7639   YZ=            -35.0114

 Normal termination of Gaussian 16 at Tue Oct  8 03:30:23 2019.
