 Gaussian 16, Revision A.03,
 Gaussian 16:  ES64L-G16RevA.03 25-Dec-2016

 ----------------------------------------------------------------------
 # td=(NStates=1) iop(3/107=0140000000,3/108=0140000000) iop(3/107=0140
 000000,3/108=0140000000) CAM-B3LYP/6-31G(d,p)
 ----------------------------------------------------------------------

 --
 TD
 --
 Symbolic Z-matrix:
 Charge =  0 Multiplicity = 1

                         Standard orientation:
 ---------------------------------------------------------------------
 Center     Atomic      Atomic             Coordinates (Angstroms)
 Number     Number       Type             X           Y           Z
 ---------------------------------------------------------------------
      1         12           0       -5.483194    1.183158    0.164340
      2          6           0       -5.063042   -2.151474   -0.380188
      3          6           0       -3.322820    1.236796    2.727155
      4          6           0       -6.154378    4.600589    0.511727
      5          6           0       -8.189582    1.140504   -2.243383
      6          7           0       -4.363093   -0.268100    1.083054
      7          6           0       -4.270676   -1.627234    0.706415
      8          6           0       -3.255652   -2.329482    1.530102
      9          6           0       -2.830218   -1.284357    2.524595
     10          6           0       -3.526754    0.036940    2.113629
     11          6           0       -3.319430   -1.524559    3.976943
     12          6           0       -2.023503   -2.766258    0.711219
     13          6           0       -0.947301   -3.506745    1.507712
     14          6           0        0.303881   -3.882173    0.636572
     15          8           0        0.487139   -3.443892   -0.517314
     16          8           0        1.121219   -4.654419    1.422137
     17          7           0       -4.835386    2.702352    1.408162
     18          6           0       -3.961648    2.506455    2.399233
     19          6           0       -3.666027    3.715581    3.132552
     20          6           0       -4.506608    4.648327    2.496417
     21          6           0       -5.208873    3.960400    1.418986
     22          6           0       -2.759785    3.963518    4.312787
     23          6           0       -4.606941    6.117028    2.819431
     24          8           0       -3.973426    6.734229    3.651310
     25          7           0       -6.851899    2.590813   -0.662674
     26          6           0       -6.996209    3.843256   -0.378905
     27          6           0       -8.115196    4.460759   -1.178433
     28          6           0       -8.610625    3.455605   -2.065770
     29          6           0       -7.871511    2.336343   -1.679929
     30          6           0       -8.613785    5.906119   -1.117261
     31          6           0       -9.639149    3.740142   -3.093367
     32          6           0       -8.882442    3.951644   -4.503393
     33          7           0       -6.454071   -0.186684   -1.007927
     34          6           0       -7.528413   -0.091439   -1.919552
     35          6           0       -7.747855   -1.285965   -2.555048
     36          6           0       -6.739319   -2.204859   -2.002505
     37          6           0       -5.936501   -1.390060   -1.113498
     38          6           0       -8.596263   -1.803632   -3.718789
     39          6           0       -6.162996   -3.566136   -1.942283
     40          8           0       -6.544576   -4.550075   -2.578958
     41          6           0       -5.052764   -3.556513   -0.903716
     42          6           0       -5.313555   -4.637573    0.125534
     43          8           0       -5.627489   -4.373802    1.263328
     44          8           0       -5.041583   -5.855606   -0.423333
     45          6           0       -5.304015   -6.949743    0.453946
     46          6           0        2.329842   -5.016291    0.581570
     47          6           0        3.434983   -4.093557    0.923135
     48          6           0        4.034372   -3.234802    0.068934
     49          6           0        3.870085   -3.284434   -1.399992
     50          6           0        5.151431   -2.297594    0.621746
     51          6           0        6.555319   -2.613800    0.061178
     52          6           0        7.663682   -1.881148    0.680595
     53          6           0        9.053958   -1.986486   -0.068886
     54          6           0        9.648534   -3.380529    0.229411
     55          6           0       10.105963   -0.983900    0.480635
     56          6           0       11.470812   -0.880618   -0.268447
     57          6           0       12.282053    0.255466    0.251391
     58          6           0       13.593075    0.335632   -0.625111
     59          6           0       14.601040   -0.845237   -0.343938
     60          6           0       14.289858    1.610886   -0.201846
     61          6           0       15.511730    2.249816   -1.070757
     62          6           0       16.051267    3.540384   -0.583835
     63          6           0       17.276751    4.046522   -1.438412
     64          6           0       17.032656    4.128498   -2.956010
     65          6           0       17.839775    5.343676   -0.928891
     66          1           0       -2.569608    1.210767    3.643770
     67          1           0       -6.296624    5.607131    0.459922
     68          1           0       -8.951146    0.987905   -2.828807
     69          1           0       -3.780294   -3.022055    2.021111
     70          1           0       -1.646481   -1.126115    2.645965
     71          1           0       -2.720738   -2.415923    4.265348
     72          1           0       -3.195808   -0.804017    4.836685
     73          1           0       -4.392744   -1.990205    3.945343
     74          1           0       -2.339178   -3.353091   -0.173552
     75          1           0       -1.621104   -1.815570    0.462801
     76          1           0       -0.570325   -3.236547    2.435289
     77          1           0       -1.440269   -4.436417    1.759490
     78          1           0       -1.836822    3.526040    4.048331
     79          1           0       -2.638911    4.916618    4.554419
     80          1           0       -3.130665    3.383607    5.217424
     81          1           0       -5.603921    6.661943    2.340224
     82          1           0      -10.381908    2.850880   -3.208642
     83          1           0      -10.348658    4.531872   -2.941746
     84          1           0       -9.855462    3.786483   -5.230263
     85          1           0       -8.316285    4.836344   -4.587863
     86          1           0       -8.338460    3.163725   -4.757377
     87          1           0       -8.263736   -1.061963   -4.567809
     88          1           0       -8.235907   -2.829613   -3.854098
     89          1           0       -9.759309   -1.716044   -3.456292
     90          1           0       -4.207301   -3.927827   -1.349140
     91          1           0        2.614456   -5.952096    1.337305
     92          1           0        2.016533   -4.969869   -0.467986
     93          1           0        3.664476   -4.017976    1.998489
     94          1           0        2.838814   -3.728982   -1.790854
     95          1           0        3.934954   -2.252036   -1.623252
     96          1           0        4.804587   -3.689601   -1.830797
     97          1           0        4.914571   -1.171259    0.637448
     98          1           0        5.121991   -2.590311    1.731737
     99          1           0        6.816478   -3.864374   -0.012521
    100          1           0        6.505695   -2.170930   -0.904908
    101          1           0        7.530100   -0.748737    0.437128
    102          1           0        7.772046   -2.037987    1.732438
    103          1           0        8.751772   -1.806313   -1.088211
    104          1           0        8.853044   -4.254521   -0.091209
    105          1           0       10.695676   -3.520032   -0.211621
    106          1           0        9.753266   -3.620629    1.476261
    107          1           0        9.856859    0.181921    0.508761
    108          1           0       10.258534   -1.366150    1.593941
    109          1           0       12.052782   -1.865749   -0.286308
    110          1           0       11.108167   -0.763305   -1.185102
    111          1           0       11.698883    1.260772   -0.017900
    112          1           0       12.530648    0.119678    1.385336
    113          1           0       13.272073    0.590846   -1.623418
    114          1           0       14.494981   -1.053459    0.712999
    115          1           0       14.293038   -1.793725   -0.745957
    116          1           0       15.578035   -0.648003   -0.515714
    117          1           0       13.456408    2.360618   -0.283780
    118          1           0       14.411324    1.683359    0.829232
    119          1           0       16.222888    1.424018   -1.018650
    120          1           0       15.113516    2.328653   -2.163270
    121          1           0       15.120407    4.373934   -0.730739
    122          1           0       16.319161    3.564913    0.452130
    123          1           0       17.975730    3.181842   -1.024192
    124          1           0       16.269322    4.952624   -3.126518
    125          1           0       17.925450    4.375938   -3.458409
    126          1           0       16.711057    3.122266   -3.353983
    127          1           0       18.426821    5.351605   -0.006936
    128          1           0       18.670506    5.754126   -1.556631
    129          1           0       16.895159    6.205455   -1.046791
    130          1           0       -4.737941   -7.747952   -0.242181
    131          1           0       -6.546735   -7.048825    0.594228
    132          1           0       -4.710256   -6.925132    1.378314
    133          8           0       -7.968475    6.727882   -0.547480
    134          1           0       -9.370000    5.860645   -1.880772
 ---------------------------------------------------------------------

 SCF Done:  E(RCAM-B3LYP) =  -3043.45941873     A.U. after   16 cycles

 Excitation energies and oscillator strengths:

 Excited State   1:      Singlet-A      2.0145 eV  615.47 nm  f=0.2187  <S**2>=0.000
     243 -> 245       -0.15923
     243 -> 246        0.22004
     244 -> 245        0.64225
 This state for optimization and/or second-order correction.
 Total Energy, E(TD-HF/TD-DFT) =  -3043.38538855
 Copying the excited state density for this state as the 1-particle RhoCI density.

 The electronic state is 1-A.
 Alpha  occ. eigenvalues --  -46.81590 -19.23336 -19.23042 -19.18143 -19.18113
 Alpha  occ. eigenvalues --  -19.18012 -19.17356 -19.15501 -14.38734 -14.37131
 Alpha  occ. eigenvalues --  -14.37015 -14.35553 -10.35725 -10.35371 -10.31104
 Alpha  occ. eigenvalues --  -10.30673 -10.30259 -10.29751 -10.28788 -10.27776
 Alpha  occ. eigenvalues --  -10.27216 -10.27170 -10.26774 -10.26298 -10.25895
 Alpha  occ. eigenvalues --  -10.25329 -10.25084 -10.24895 -10.24561 -10.24542
 Alpha  occ. eigenvalues --  -10.24280 -10.24164 -10.23940 -10.23911 -10.23775
 Alpha  occ. eigenvalues --  -10.23701 -10.23609 -10.23385 -10.23309 -10.23305
 Alpha  occ. eigenvalues --  -10.23294 -10.23179 -10.23158 -10.23151 -10.23074
 Alpha  occ. eigenvalues --  -10.22900 -10.22775 -10.22683 -10.22620 -10.22595
 Alpha  occ. eigenvalues --  -10.22564 -10.22457 -10.22394 -10.21794 -10.21762
 Alpha  occ. eigenvalues --  -10.21691 -10.21616 -10.21495 -10.21321 -10.21297
 Alpha  occ. eigenvalues --  -10.21216 -10.21179 -10.20737 -10.20156 -10.19629
 Alpha  occ. eigenvalues --  -10.19392  -3.10100  -1.85047  -1.84555  -1.84513
 Alpha  occ. eigenvalues --   -1.13945  -1.11825  -1.08969  -1.06740  -1.06151
 Alpha  occ. eigenvalues --   -1.04918  -1.03970  -1.01979  -0.99763  -0.99294
 Alpha  occ. eigenvalues --   -0.98470  -0.88739  -0.86548  -0.86444  -0.86216
 Alpha  occ. eigenvalues --   -0.85326  -0.84200  -0.83911  -0.83367  -0.83284
 Alpha  occ. eigenvalues --   -0.82884  -0.81926  -0.81228  -0.80391  -0.79800
 Alpha  occ. eigenvalues --   -0.78290  -0.78002  -0.77757  -0.76806  -0.76353
 Alpha  occ. eigenvalues --   -0.75459  -0.74895  -0.73556  -0.73002  -0.71763
 Alpha  occ. eigenvalues --   -0.71518  -0.71081  -0.70554  -0.69916  -0.69341
 Alpha  occ. eigenvalues --   -0.68654  -0.68214  -0.68084  -0.66474  -0.66210
 Alpha  occ. eigenvalues --   -0.65457  -0.64271  -0.63128  -0.62125  -0.61873
 Alpha  occ. eigenvalues --   -0.61422  -0.60926  -0.59866  -0.59264  -0.59091
 Alpha  occ. eigenvalues --   -0.58964  -0.58324  -0.57947  -0.56741  -0.56719
 Alpha  occ. eigenvalues --   -0.56480  -0.55856  -0.55335  -0.54668  -0.54419
 Alpha  occ. eigenvalues --   -0.53917  -0.53326  -0.53015  -0.52586  -0.51775
 Alpha  occ. eigenvalues --   -0.51153  -0.51115  -0.50882  -0.50599  -0.50407
 Alpha  occ. eigenvalues --   -0.50053  -0.49943  -0.49537  -0.49282  -0.48834
 Alpha  occ. eigenvalues --   -0.48637  -0.48394  -0.48311  -0.47993  -0.47765
 Alpha  occ. eigenvalues --   -0.47529  -0.47331  -0.46959  -0.46773  -0.46677
 Alpha  occ. eigenvalues --   -0.46603  -0.46450  -0.46231  -0.45948  -0.45683
 Alpha  occ. eigenvalues --   -0.45568  -0.45332  -0.45088  -0.44981  -0.44871
 Alpha  occ. eigenvalues --   -0.44355  -0.44212  -0.44084  -0.43878  -0.43711
 Alpha  occ. eigenvalues --   -0.43581  -0.43315  -0.43238  -0.43068  -0.42830
 Alpha  occ. eigenvalues --   -0.42785  -0.42498  -0.42391  -0.42132  -0.41856
 Alpha  occ. eigenvalues --   -0.41815  -0.41515  -0.41423  -0.41169  -0.40941
 Alpha  occ. eigenvalues --   -0.40779  -0.40594  -0.40553  -0.40427  -0.40103
 Alpha  occ. eigenvalues --   -0.39971  -0.39919  -0.39456  -0.39423  -0.39212
 Alpha  occ. eigenvalues --   -0.39035  -0.38813  -0.38487  -0.38439  -0.38401
 Alpha  occ. eigenvalues --   -0.37826  -0.37591  -0.37558  -0.37218  -0.37175
 Alpha  occ. eigenvalues --   -0.37065  -0.36873  -0.36720  -0.36498  -0.36165
 Alpha  occ. eigenvalues --   -0.35561  -0.35275  -0.35028  -0.34918  -0.34763
 Alpha  occ. eigenvalues --   -0.34205  -0.34193  -0.33913  -0.33827  -0.33710
 Alpha  occ. eigenvalues --   -0.32971  -0.32648  -0.32017  -0.31550  -0.31391
 Alpha  occ. eigenvalues --   -0.31173  -0.30954  -0.30836  -0.30121  -0.29955
 Alpha  occ. eigenvalues --   -0.28340  -0.27986  -0.27357  -0.27259  -0.27018
 Alpha  occ. eigenvalues --   -0.26665  -0.26280  -0.22597  -0.21327
 Alpha virt. eigenvalues --   -0.08716  -0.05887  -0.01245  -0.00105   0.01227
 Alpha virt. eigenvalues --    0.02688   0.02817   0.03326   0.03555   0.04801
 Alpha virt. eigenvalues --    0.05482   0.05956   0.07903   0.08844   0.09041

 Mulliken charges:
               1
     1  Mg   0.823146
     2  C    0.092103
     3  C   -0.192840
     4  C   -0.148372
     5  C   -0.111272
     6  N   -0.669410
     7  C    0.269309
     8  C   -0.124487
     9  C   -0.171213
    10  C    0.391980
    11  C   -0.322345
    12  C   -0.163309
    13  C   -0.271304
    14  C    0.609235
    15  O   -0.486408
    16  O   -0.468469
    17  N   -0.699661
    18  C    0.296788
    19  C    0.051967
    20  C   -0.071969
    21  C    0.324878
    22  C   -0.359161
    23  C    0.243969
    24  O   -0.404410
    25  N   -0.659188
    26  C    0.341944
    27  C   -0.135241
    28  C    0.117249
    29  C    0.241219
    30  C    0.284981
    31  C   -0.282809
    32  C   -0.304018
    33  N   -0.725441
    34  C    0.251591
    35  C   -0.001375
    36  C   -0.017705
    37  C    0.292541
    38  C   -0.362712
    39  C    0.349768
    40  O   -0.484018
    41  C   -0.307522
    42  C    0.622625
    43  O   -0.460684
    44  O   -0.434902
    45  C   -0.083589
    46  C   -0.019642
    47  C   -0.110197
    48  C    0.140676
    49  C   -0.371864
    50  C   -0.243471
    51  C   -0.143130
    52  C   -0.169221
    53  C   -0.058283
    54  C   -0.284208
    55  C   -0.161102
    56  C   -0.163506
    57  C   -0.173157
    58  C   -0.051202
    59  C   -0.320649
    60  C   -0.191713
    61  C   -0.172352
    62  C   -0.141714
    63  C   -0.039194
    64  C   -0.307011
    65  C   -0.292895
    66  H    0.086122
    67  H    0.119190
    68  H    0.070717
    69  H    0.135537
    70  H    0.094676
    71  H    0.101062
    72  H    0.119300
    73  H    0.116027
    74  H    0.112856
    75  H    0.126474
    76  H    0.140353
    77  H    0.132756
    78  H    0.125325
    79  H    0.158072
    80  H    0.119218
    81  H    0.054316
    82  H    0.102251
    83  H    0.133950
    84  H    0.083647
    85  H    0.133453
    86  H    0.136785
    87  H    0.114855
    88  H    0.164120
    89  H    0.109035
    90  H    0.163801
    91  H    0.106024
    92  H    0.143339
    93  H    0.082884
    94  H    0.123684
    95  H    0.122053
    96  H    0.127658
    97  H    0.102634
    98  H    0.088990
    99  H    0.067841
   100  H    0.102523
   101  H    0.077284
   102  H    0.094279
   103  H    0.085276
   104  H    0.076737
   105  H    0.103479
   106  H    0.070349
   107  H    0.064366
   108  H    0.070094
   109  H    0.083751
   110  H    0.109412
   111  H    0.079134
   112  H    0.088646
   113  H    0.088169
   114  H    0.102691
   115  H    0.101437
   116  H    0.113961
   117  H    0.067044
   118  H    0.088926
   119  H    0.090304
   120  H    0.085656
   121  H    0.043069
   122  H    0.099149
   123  H    0.067220
   124  H    0.100669
   125  H    0.113439
   126  H    0.101527
   127  H    0.104960
   128  H    0.094976
   129  H    0.062874
   130  H    0.117845
   131  H    0.123265
   132  H    0.135674
   133  O   -0.405073
   134  H    0.070256
 Sum of Mulliken charges =  -0.00000

 Dipole moment (field-independent basis, Debye):
    X=              2.9346    Y=             -3.7106    Z=             -0.7078  Tot=              4.7835
 Quadrupole moment (field-independent basis, Debye-Ang):
   XX=           -360.0614   YY=           -444.3466   ZZ=           -394.7040
   XY=             -4.0598   XZ=             18.4661   YZ=            -37.0595

 Normal termination of Gaussian 16 at Tue Oct  8 16:57:44 2019.
