 Gaussian 16, Revision A.03,
 Gaussian 16:  ES64L-G16RevA.03 25-Dec-2016

 ----------------------------------------------------------------------
 # td=(NStates=1) iop(3/107=0140000000,3/108=0140000000) iop(3/107=0140
 000000,3/108=0140000000) CAM-B3LYP/6-31G(d,p)
 ----------------------------------------------------------------------

 --
 TD
 --
 Symbolic Z-matrix:
 Charge =  0 Multiplicity = 1

                         Standard orientation:
 ---------------------------------------------------------------------
 Center     Atomic      Atomic             Coordinates (Angstroms)
 Number     Number       Type             X           Y           Z
 ---------------------------------------------------------------------
      1         12           0       -5.669432    1.175199    0.109411
      2          6           0       -4.984405   -2.163141   -0.299287
      3          6           0       -3.455623    1.242887    2.876648
      4          6           0       -6.266067    4.580956    0.580973
      5          6           0       -7.925649    1.054032   -2.432205
      6          7           0       -4.336302   -0.296473    1.133961
      7          6           0       -4.209411   -1.601097    0.701058
      8          6           0       -3.181137   -2.290347    1.530426
      9          6           0       -2.972146   -1.265455    2.768101
     10          6           0       -3.586556   -0.017046    2.195137
     11          6           0       -3.566754   -1.715308    4.055212
     12          6           0       -1.907152   -2.695453    0.752372
     13          6           0       -0.941617   -3.538264    1.540573
     14          6           0        0.322576   -3.971856    0.689187
     15          8           0        0.558812   -3.509143   -0.404898
     16          8           0        1.146899   -4.812066    1.344883
     17          7           0       -5.025812    2.684399    1.498225
     18          6           0       -4.055228    2.439873    2.447829
     19          6           0       -3.824221    3.687238    3.225936
     20          6           0       -4.506497    4.700060    2.564291
     21          6           0       -5.267878    4.047707    1.440727
     22          6           0       -2.829501    3.764929    4.237098
     23          6           0       -4.508980    6.146321    2.816702
     24          8           0       -3.875644    6.710825    3.630254
     25          7           0       -6.905940    2.623359   -0.774706
     26          6           0       -7.019415    3.963034   -0.416102
     27          6           0       -7.950691    4.550159   -1.270516
     28          6           0       -8.469013    3.579083   -2.106674
     29          6           0       -7.790341    2.356188   -1.785281
     30          6           0       -8.344147    5.915686   -1.172049
     31          6           0       -9.477235    3.867908   -3.163457
     32          6           0       -8.727536    3.993008   -4.555936
     33          7           0       -6.319456   -0.098468   -1.165374
     34          6           0       -7.247277   -0.062123   -2.067163
     35          6           0       -7.527494   -1.329080   -2.630513
     36          6           0       -6.601492   -2.196422   -1.935042
     37          6           0       -5.918428   -1.377035   -1.094380
     38          6           0       -8.366435   -1.662322   -3.758486
     39          6           0       -6.153245   -3.558738   -1.942210
     40          8           0       -6.450169   -4.543398   -2.564861
     41          6           0       -4.894737   -3.554727   -0.853189
     42          6           0       -5.226292   -4.627633    0.174688
     43          8           0       -5.707575   -4.458871    1.308538
     44          8           0       -4.779997   -5.912374   -0.304196
     45          6           0       -5.160736   -6.934302    0.569542
     46          6           0        2.313302   -5.160968    0.753682
     47          6           0        3.373868   -4.012247    1.013477
     48          6           0        3.972918   -3.291202    0.015096
     49          6           0        3.559483   -3.258846   -1.400898
     50          6           0        5.086773   -2.319737    0.489020
     51          6           0        6.575225   -2.827166   -0.039700
     52          6           0        7.654111   -1.776045    0.317270
     53          6           0        9.059066   -1.989240   -0.218610
     54          6           0        9.542029   -3.506371    0.039580
     55          6           0        9.926797   -0.918250    0.310424
     56          6           0       11.236157   -0.797086   -0.447319
     57          6           0       12.156098    0.280964    0.145750
     58          6           0       13.545340    0.456096   -0.631739
     59          6           0       14.446712   -0.629071   -0.368435
     60          6           0       14.114455    1.740757   -0.182600
     61          6           0       15.404221    2.108849   -0.931821
     62          6           0       15.958569    3.549664   -0.637405
     63          6           0       17.234838    4.006866   -1.176128
     64          6           0       17.110930    4.105867   -2.636928
     65          6           0       17.697405    5.322149   -0.603680
     66          1           0       -2.536170    1.312464    3.659326
     67          1           0       -6.358603    5.743897    0.796898
     68          1           0       -8.537161    1.072184   -3.232564
     69          1           0       -3.621297   -3.198877    1.881771
     70          1           0       -1.870047   -1.119284    2.922909
     71          1           0       -2.946833   -2.648788    4.331425
     72          1           0       -3.461657   -0.918455    4.653056
     73          1           0       -4.519230   -2.052039    3.878644
     74          1           0       -2.177054   -3.371026   -0.024200
     75          1           0       -1.508847   -1.742713    0.339918
     76          1           0       -0.779602   -3.043166    2.282757
     77          1           0       -1.432810   -4.445724    1.847705
     78          1           0       -1.727592    3.637994    4.101558
     79          1           0       -2.954744    4.817132    4.657737
     80          1           0       -2.974330    3.083621    5.168504
     81          1           0       -4.866930    6.759148    2.105768
     82          1           0      -10.274072    2.934622   -3.355794
     83          1           0      -10.144926    4.581685   -2.939346
     84          1           0       -9.566775    4.025346   -5.332566
     85          1           0       -7.754617    4.641490   -4.949481
     86          1           0       -8.135841    3.103333   -4.646420
     87          1           0       -8.212767   -0.964196   -4.514294
     88          1           0       -8.507726   -2.817754   -3.881503
     89          1           0       -9.546518   -1.213952   -3.686356
     90          1           0       -4.008812   -3.840618   -1.443647
     91          1           0        2.619106   -6.244225    1.102696
     92          1           0        2.214829   -5.284657   -0.248537
     93          1           0        3.371239   -3.924764    2.136587
     94          1           0        2.503202   -3.557883   -1.364710
     95          1           0        3.771854   -2.171149   -1.956675
     96          1           0        4.062364   -4.123030   -2.156619
     97          1           0        4.946584   -1.357061    0.053230
     98          1           0        5.040904   -2.301309    1.458899
     99          1           0        6.772430   -3.731585    0.292516
    100          1           0        6.459688   -3.035675   -1.188184
    101          1           0        7.174017   -0.823591    0.025318
    102          1           0        7.673376   -1.827058    1.474542
    103          1           0        8.947797   -2.090090   -1.237885
    104          1           0        8.724331   -4.270795   -0.361538
    105          1           0       10.609350   -3.681804   -0.238959
    106          1           0        9.585856   -3.436115    1.252824
    107          1           0        9.164834    0.141333    0.363313
    108          1           0       10.097774   -0.964633    1.483050
    109          1           0       11.828188   -1.723221   -0.750010
    110          1           0       10.768400   -0.531088   -1.391805
    111          1           0       11.722934    1.368296    0.028606
    112          1           0       12.302315    0.276081    1.052068
    113          1           0       13.415614    0.538535   -1.636272
    114          1           0       14.782237   -0.730128    0.693361
    115          1           0       13.870009   -1.391901   -0.609175
    116          1           0       15.189511   -0.605308   -1.151100
    117          1           0       13.451830    2.518920   -0.198578
    118          1           0       14.278782    1.598618    0.925926
    119          1           0       16.322269    1.444144   -0.647006
    120          1           0       15.180934    2.082526   -1.969120
    121          1           0       15.213758    4.294248   -0.712672
    122          1           0       16.035344    3.557663    0.433367
    123          1           0       17.930252    3.100420   -0.968141
    124          1           0       16.185361    4.750370   -3.117344
    125          1           0       17.971660    4.860497   -3.169137
    126          1           0       17.104504    3.076837   -3.130843
    127          1           0       17.940413    5.165737    0.572715
    128          1           0       18.612826    5.812281   -1.036338
    129          1           0       16.969211    6.145536   -0.741253
    130          1           0       -4.809529   -7.810918    0.040316
    131          1           0       -6.244123   -7.259289    0.419357
    132          1           0       -4.637294   -6.780214    1.673192
    133          8           0       -7.905060    6.705109   -0.415793
    134          1           0       -9.017576    6.174124   -1.989138
 ---------------------------------------------------------------------

 SCF Done:  E(RCAM-B3LYP) =  -3043.36917797     A.U. after   16 cycles

 Excitation energies and oscillator strengths:

 Excited State   1:      Singlet-A      2.0433 eV  606.78 nm  f=0.1721  <S**2>=0.000
     243 -> 245       -0.10431
     243 -> 246        0.25695
     244 -> 245        0.63345
     244 -> 246        0.11503
 This state for optimization and/or second-order correction.
 Total Energy, E(TD-HF/TD-DFT) =  -3043.29408742
 Copying the excited state density for this state as the 1-particle RhoCI density.

 The electronic state is 1-A.
 Alpha  occ. eigenvalues --  -46.82264 -19.23223 -19.22373 -19.18527 -19.18266
 Alpha  occ. eigenvalues --  -19.18046 -19.16795 -19.16732 -14.39117 -14.36993
 Alpha  occ. eigenvalues --  -14.36971 -14.36501 -10.36084 -10.36059 -10.32306
 Alpha  occ. eigenvalues --  -10.29058 -10.28805 -10.27960 -10.27689 -10.27383
 Alpha  occ. eigenvalues --  -10.27184 -10.27013 -10.26869 -10.26460 -10.26427
 Alpha  occ. eigenvalues --  -10.25788 -10.25596 -10.25589 -10.25447 -10.25000
 Alpha  occ. eigenvalues --  -10.24713 -10.24594 -10.24581 -10.24415 -10.24376
 Alpha  occ. eigenvalues --  -10.24355 -10.24117 -10.24113 -10.23923 -10.23624
 Alpha  occ. eigenvalues --  -10.23408 -10.23377 -10.23235 -10.22953 -10.22747
 Alpha  occ. eigenvalues --  -10.22614 -10.22468 -10.22343 -10.22341 -10.22311
 Alpha  occ. eigenvalues --  -10.22149 -10.21618 -10.21504 -10.21472 -10.21307
 Alpha  occ. eigenvalues --  -10.21280 -10.21116 -10.21053 -10.21027 -10.20946
 Alpha  occ. eigenvalues --  -10.20354 -10.19604 -10.19258 -10.19224 -10.18982
 Alpha  occ. eigenvalues --  -10.17985  -3.10742  -1.85687  -1.85198  -1.85160
 Alpha  occ. eigenvalues --   -1.15716  -1.11575  -1.09145  -1.08966  -1.08603
 Alpha  occ. eigenvalues --   -1.06459  -1.04437  -1.03806  -1.00495  -0.99362
 Alpha  occ. eigenvalues --   -0.98073  -0.89589  -0.86878  -0.86419  -0.85486
 Alpha  occ. eigenvalues --   -0.85399  -0.84876  -0.84864  -0.84271  -0.84144
 Alpha  occ. eigenvalues --   -0.84007  -0.83188  -0.82378  -0.80163  -0.79818
 Alpha  occ. eigenvalues --   -0.79482  -0.78107  -0.77546  -0.77004  -0.76853
 Alpha  occ. eigenvalues --   -0.75492  -0.75152  -0.74427  -0.72661  -0.72084
 Alpha  occ. eigenvalues --   -0.71757  -0.70462  -0.69959  -0.69813  -0.69460
 Alpha  occ. eigenvalues --   -0.69228  -0.68839  -0.67725  -0.67257  -0.66716
 Alpha  occ. eigenvalues --   -0.66349  -0.65745  -0.65120  -0.63275  -0.62140
 Alpha  occ. eigenvalues --   -0.62011  -0.61432  -0.61081  -0.60685  -0.59626
 Alpha  occ. eigenvalues --   -0.58833  -0.58559  -0.58154  -0.57802  -0.57790
 Alpha  occ. eigenvalues --   -0.57402  -0.56666  -0.56163  -0.55468  -0.55036
 Alpha  occ. eigenvalues --   -0.54278  -0.53904  -0.53660  -0.53442  -0.52878
 Alpha  occ. eigenvalues --   -0.52509  -0.52117  -0.51256  -0.50937  -0.50612
 Alpha  occ. eigenvalues --   -0.50588  -0.50193  -0.50046  -0.49790  -0.49496
 Alpha  occ. eigenvalues --   -0.49127  -0.48796  -0.48702  -0.48539  -0.48299
 Alpha  occ. eigenvalues --   -0.48039  -0.47526  -0.47438  -0.47429  -0.46942
 Alpha  occ. eigenvalues --   -0.46588  -0.46570  -0.46378  -0.46293  -0.46228
 Alpha  occ. eigenvalues --   -0.45973  -0.45582  -0.45462  -0.45235  -0.45015
 Alpha  occ. eigenvalues --   -0.44949  -0.44715  -0.44669  -0.44083  -0.43943
 Alpha  occ. eigenvalues --   -0.43598  -0.43461  -0.43265  -0.43036  -0.42898
 Alpha  occ. eigenvalues --   -0.42689  -0.42606  -0.42562  -0.42319  -0.42231
 Alpha  occ. eigenvalues --   -0.42003  -0.41963  -0.41869  -0.41564  -0.41337
 Alpha  occ. eigenvalues --   -0.41027  -0.40706  -0.40438  -0.40289  -0.40211
 Alpha  occ. eigenvalues --   -0.40115  -0.40056  -0.39570  -0.39482  -0.39247
 Alpha  occ. eigenvalues --   -0.39056  -0.38627  -0.38591  -0.38103  -0.38079
 Alpha  occ. eigenvalues --   -0.37769  -0.37685  -0.37336  -0.37179  -0.37170
 Alpha  occ. eigenvalues --   -0.36982  -0.36575  -0.35961  -0.35680  -0.35551
 Alpha  occ. eigenvalues --   -0.35320  -0.35181  -0.35079  -0.34871  -0.34661
 Alpha  occ. eigenvalues --   -0.34418  -0.33927  -0.33903  -0.33332  -0.32801
 Alpha  occ. eigenvalues --   -0.32636  -0.32299  -0.31930  -0.31888  -0.31573
 Alpha  occ. eigenvalues --   -0.31343  -0.31334  -0.31199  -0.30219  -0.30151
 Alpha  occ. eigenvalues --   -0.28551  -0.28387  -0.28244  -0.27733  -0.27523
 Alpha  occ. eigenvalues --   -0.27292  -0.26121  -0.23352  -0.21703
 Alpha virt. eigenvalues --   -0.08720  -0.06827  -0.02220  -0.00268   0.00430
 Alpha virt. eigenvalues --    0.01743   0.02876   0.03421   0.03495   0.03713
 Alpha virt. eigenvalues --    0.05005   0.05602   0.07563   0.08071   0.08853

 Mulliken charges:
               1
     1  Mg   0.844452
     2  C    0.078109
     3  C   -0.192744
     4  C   -0.186127
     5  C   -0.134925
     6  N   -0.635217
     7  C    0.329809
     8  C   -0.187793
     9  C   -0.175338
    10  C    0.340587
    11  C   -0.276194
    12  C   -0.172910
    13  C   -0.241217
    14  C    0.585910
    15  O   -0.442899
    16  O   -0.419072
    17  N   -0.684234
    18  C    0.322298
    19  C    0.079824
    20  C   -0.043192
    21  C    0.288570
    22  C   -0.432937
    23  C    0.257449
    24  O   -0.391458
    25  N   -0.714187
    26  C    0.307116
    27  C    0.002243
    28  C    0.012134
    29  C    0.285338
    30  C    0.256283
    31  C   -0.241714
    32  C   -0.308131
    33  N   -0.785254
    34  C    0.334330
    35  C    0.072661
    36  C    0.031232
    37  C    0.310055
    38  C   -0.401497
    39  C    0.338492
    40  O   -0.440325
    41  C   -0.347677
    42  C    0.632220
    43  O   -0.467871
    44  O   -0.458427
    45  C   -0.074985
    46  C   -0.015152
    47  C   -0.152839
    48  C    0.132333
    49  C   -0.367068
    50  C   -0.210793
    51  C   -0.196905
    52  C   -0.165080
    53  C   -0.043976
    54  C   -0.312223
    55  C   -0.156343
    56  C   -0.183382
    57  C   -0.159372
    58  C   -0.075335
    59  C   -0.279823
    60  C   -0.157615
    61  C   -0.189906
    62  C   -0.168313
    63  C   -0.027477
    64  C   -0.279712
    65  C   -0.306500
    66  H    0.094459
    67  H    0.140867
    68  H    0.071010
    69  H    0.115868
    70  H    0.096576
    71  H    0.096996
    72  H    0.120160
    73  H    0.137181
    74  H    0.115465
    75  H    0.114734
    76  H    0.127776
    77  H    0.127895
    78  H    0.138081
    79  H    0.148643
    80  H    0.110739
    81  H    0.072392
    82  H    0.083320
    83  H    0.127053
    84  H    0.104797
    85  H    0.100072
    86  H    0.114878
    87  H    0.150937
    88  H    0.154216
    89  H    0.086909
    90  H    0.169127
    91  H    0.099682
    92  H    0.114391
    93  H    0.092302
    94  H    0.163718
    95  H    0.094502
    96  H    0.081866
    97  H    0.095832
    98  H    0.102354
    99  H    0.112691
   100  H    0.070843
   101  H    0.091913
   102  H    0.077829
   103  H    0.099296
   104  H    0.101369
   105  H    0.107143
   106  H    0.075757
   107  H    0.055200
   108  H    0.073911
   109  H    0.095787
   110  H    0.108700
   111  H    0.066808
   112  H    0.095753
   113  H    0.084224
   114  H    0.092291
   115  H    0.097108
   116  H    0.100585
   117  H    0.091522
   118  H    0.071301
   119  H    0.082797
   120  H    0.098036
   121  H    0.085948
   122  H    0.083642
   123  H    0.077457
   124  H    0.074276
   125  H    0.059044
   126  H    0.100664
   127  H    0.078170
   128  H    0.102296
   129  H    0.105728
   130  H    0.117716
   131  H    0.118212
   132  H    0.108778
   133  O   -0.410413
   134  H    0.045515
 Sum of Mulliken charges =  -0.00000

 Dipole moment (field-independent basis, Debye):
    X=              0.6267    Y=             -4.0372    Z=             -1.6518  Tot=              4.4069
 Quadrupole moment (field-independent basis, Debye-Ang):
   XX=           -392.2541   YY=           -441.7611   ZZ=           -392.2710
   XY=              5.5494   XZ=             27.0012   YZ=            -28.2103

 Normal termination of Gaussian 16 at Sat Oct  5 01:45:57 2019.
