 Gaussian 16, Revision A.03,
 Gaussian 16:  ES64L-G16RevA.03 25-Dec-2016

 ----------------------------------------------------------------------
 # td=(NStates=1) iop(3/107=0140000000,3/108=0140000000) iop(3/107=0140
 000000,3/108=0140000000) CAM-B3LYP/6-31G(d,p)
 ----------------------------------------------------------------------

 --
 TD
 --
 Symbolic Z-matrix:
 Charge =  0 Multiplicity = 1

                         Standard orientation:
 ---------------------------------------------------------------------
 Center     Atomic      Atomic             Coordinates (Angstroms)
 Number     Number       Type             X           Y           Z
 ---------------------------------------------------------------------
      1         12           0       -5.698970    1.229254    0.204053
      2          6           0       -5.200287   -2.101257   -0.280117
      3          6           0       -3.473041    1.157127    2.725617
      4          6           0       -6.377785    4.574987    0.718022
      5          6           0       -8.002091    1.173695   -2.273251
      6          7           0       -4.439459   -0.247061    1.067384
      7          6           0       -4.392695   -1.612590    0.717121
      8          6           0       -3.251360   -2.223364    1.455260
      9          6           0       -3.034406   -1.364369    2.652508
     10          6           0       -3.599627   -0.005647    2.065503
     11          6           0       -3.510878   -1.973479    3.978628
     12          6           0       -1.928297   -2.438278    0.575914
     13          6           0       -0.964448   -3.482154    1.321083
     14          6           0        0.236862   -3.896066    0.472826
     15          8           0        0.520660   -3.506835   -0.629518
     16          8           0        1.075257   -4.650424    1.252408
     17          7           0       -4.970723    2.630030    1.545895
     18          6           0       -4.084758    2.388297    2.468524
     19          6           0       -3.811548    3.621901    3.223455
     20          6           0       -4.607661    4.588518    2.651113
     21          6           0       -5.440109    3.889964    1.521178
     22          6           0       -2.849684    3.744190    4.343929
     23          6           0       -4.713777    5.933807    2.980196
     24          8           0       -4.005892    6.464949    3.775479
     25          7           0       -7.018543    2.615951   -0.658179
     26          6           0       -7.098840    3.909644   -0.265392
     27          6           0       -7.943158    4.658149   -1.232720
     28          6           0       -8.498717    3.622407   -2.087603
     29          6           0       -7.800642    2.418917   -1.636305
     30          6           0       -8.410690    6.049051   -1.099177
     31          6           0       -9.400309    3.853508   -3.233301
     32          6           0       -8.597403    4.257982   -4.608878
     33          7           0       -6.465374   -0.174386   -1.011496
     34          6           0       -7.405820   -0.055697   -2.039733
     35          6           0       -7.624183   -1.297059   -2.817339
     36          6           0       -6.709247   -2.151861   -2.176176
     37          6           0       -6.145692   -1.416756   -1.034185
     38          6           0       -8.569236   -1.636033   -3.965384
     39          6           0       -6.260353   -3.581618   -2.036736
     40          8           0       -6.599830   -4.580290   -2.622436
     41          6           0       -5.111266   -3.567401   -0.898482
     42          6           0       -5.386772   -4.622818    0.190619
     43          8           0       -5.809269   -4.404692    1.348173
     44          8           0       -5.084266   -5.835403   -0.288193
     45          6           0       -5.356264   -7.012743    0.576776
     46          6           0        2.344726   -5.081944    0.551029
     47          6           0        3.491475   -4.182519    0.844911
     48          6           0        4.062248   -3.208560    0.140500
     49          6           0        3.791239   -3.119964   -1.430695
     50          6           0        5.233112   -2.440350    0.645468
     51          6           0        6.723890   -2.799347   -0.000609
     52          6           0        7.835648   -1.967911    0.528299
     53          6           0        9.238568   -2.184252   -0.060684
     54          6           0        9.789005   -3.610268   -0.070507
     55          6           0       10.218857   -1.018047    0.519218
     56          6           0       11.529163   -0.934079   -0.218972
     57          6           0       12.390607    0.358753    0.242488
     58          6           0       13.726417    0.436218   -0.516878
     59          6           0       14.676285   -0.718882   -0.137879
     60          6           0       14.256212    1.790482   -0.220320
     61          6           0       15.528513    2.269886   -0.919445
     62          6           0       16.009759    3.721249   -0.513231
     63          6           0       17.311357    4.114163   -1.352549
     64          6           0       17.056761    4.149892   -2.877179
     65          6           0       17.807098    5.383140   -0.810245
     66          1           0       -2.805982    1.250458    3.529876
     67          1           0       -6.676938    5.522749    0.943790
     68          1           0       -8.698393    1.300603   -3.136190
     69          1           0       -3.564727   -3.284428    1.839296
     70          1           0       -2.017459   -1.280842    2.803769
     71          1           0       -2.760725   -2.859784    4.208911
     72          1           0       -3.562083   -1.206708    4.705974
     73          1           0       -4.480522   -2.517459    3.873264
     74          1           0       -2.408362   -3.014236   -0.365300
     75          1           0       -1.483254   -1.577997    0.053690
     76          1           0       -0.560569   -3.172760    2.202895
     77          1           0       -1.380703   -4.475467    1.604337
     78          1           0       -1.828517    3.358509    4.020343
     79          1           0       -2.822185    4.691242    4.667022
     80          1           0       -3.297823    3.048345    5.148827
     81          1           0       -5.352267    6.654255    2.238756
     82          1           0      -10.009368    3.161083   -3.475743
     83          1           0       -9.895422    4.692022   -2.781237
     84          1           0       -9.461648    4.432407   -5.415844
     85          1           0       -8.003672    5.186266   -4.663014
     86          1           0       -7.920338    3.379224   -4.954285
     87          1           0       -8.359040   -1.129674   -4.792585
     88          1           0       -8.411924   -2.641878   -4.133478
     89          1           0       -9.704211   -1.684675   -3.529692
     90          1           0       -4.044312   -3.816491   -1.362082
     91          1           0        2.487192   -6.015877    0.951407
     92          1           0        2.214227   -5.181403   -0.483918
     93          1           0        3.797900   -4.455584    1.919258
     94          1           0        2.849898   -3.574135   -1.745482
     95          1           0        3.944134   -1.932032   -1.703687
     96          1           0        4.802957   -3.616523   -1.841934
     97          1           0        5.097598   -1.394070    0.045437
     98          1           0        5.202918   -2.441728    1.667802
     99          1           0        7.178901   -3.782428    0.436717
    100          1           0        6.550558   -2.946149   -1.037641
    101          1           0        7.446534   -0.925864    0.551024
    102          1           0        7.818934   -1.983675    1.670691
    103          1           0        8.917034   -2.191936   -1.222311
    104          1           0        9.058776   -4.309019   -0.433896
    105          1           0       10.668225   -3.495933   -0.715532
    106          1           0       10.123799   -3.786683    0.936047
    107          1           0        9.719329    0.039670    0.422798
    108          1           0       10.294583   -1.357006    1.528107
    109          1           0       12.081424   -1.824155    0.139771
    110          1           0       11.235726   -0.942543   -1.333768
    111          1           0       11.800546    1.152607    0.143577
    112          1           0       12.722079    0.269125    1.266518
    113          1           0       13.522604    0.381314   -1.690405
    114          1           0       14.994747   -0.688965    0.870490
    115          1           0       14.283465   -1.761315   -0.539289
    116          1           0       15.707151   -0.565192   -0.441799
    117          1           0       13.505194    2.747165   -0.544705
    118          1           0       14.532626    1.763305    0.803464
    119          1           0       16.571201    1.685944   -0.742504
    120          1           0       15.310483    2.132414   -2.047234
    121          1           0       15.217398    4.398754   -0.452840
    122          1           0       16.425591    3.551875    0.527369
    123          1           0       18.222570    3.538925   -1.105681
    124          1           0       16.191192    4.813496   -3.188519
    125          1           0       17.852625    4.605221   -3.410315
    126          1           0       17.107946    3.159846   -3.485037
    127          1           0       18.160220    5.331226    0.255782
    128          1           0       18.858126    5.986652   -1.224582
    129          1           0       16.995635    6.068977   -0.748289
    130          1           0       -4.927998   -8.037362    0.057186
    131          1           0       -6.425500   -7.291000    0.641531
    132          1           0       -4.895015   -6.875067    1.581631
    133          8           0       -7.855964    6.840505   -0.372453
    134          1           0       -9.172879    6.425428   -2.047353
 ---------------------------------------------------------------------

 SCF Done:  E(RCAM-B3LYP) =  -3043.47359383     A.U. after   15 cycles

 Excitation energies and oscillator strengths:

 Excited State   1:      Singlet-A      2.1174 eV  585.55 nm  f=0.1776  <S**2>=0.000
     243 -> 246        0.27001
     244 -> 245        0.64348
 This state for optimization and/or second-order correction.
 Total Energy, E(TD-HF/TD-DFT) =  -3043.39578026
 Copying the excited state density for this state as the 1-particle RhoCI density.

 The electronic state is 1-A.
 Alpha  occ. eigenvalues --  -46.82146 -19.23522 -19.21555 -19.17892 -19.17640
 Alpha  occ. eigenvalues --  -19.17095 -19.17018 -19.15945 -14.38265 -14.37065
 Alpha  occ. eigenvalues --  -14.36915 -14.36737 -10.35620 -10.34557 -10.32411
 Alpha  occ. eigenvalues --  -10.31651 -10.29538 -10.29041 -10.27103 -10.26684
 Alpha  occ. eigenvalues --  -10.26651 -10.26623 -10.26397 -10.26382 -10.26227
 Alpha  occ. eigenvalues --  -10.26136 -10.25915 -10.25774 -10.25290 -10.25154
 Alpha  occ. eigenvalues --  -10.24512 -10.24222 -10.24178 -10.24029 -10.24029
 Alpha  occ. eigenvalues --  -10.23973 -10.23686 -10.23582 -10.23536 -10.23374
 Alpha  occ. eigenvalues --  -10.23119 -10.22971 -10.22958 -10.22947 -10.22719
 Alpha  occ. eigenvalues --  -10.22683 -10.22625 -10.22611 -10.22313 -10.22268
 Alpha  occ. eigenvalues --  -10.22246 -10.22067 -10.21868 -10.21825 -10.21704
 Alpha  occ. eigenvalues --  -10.21586 -10.21554 -10.21528 -10.21396 -10.21376
 Alpha  occ. eigenvalues --  -10.21018 -10.20965 -10.20795 -10.20625 -10.20276
 Alpha  occ. eigenvalues --  -10.19983  -3.10679  -1.85630  -1.85136  -1.85092
 Alpha  occ. eigenvalues --   -1.12742  -1.11983  -1.07961  -1.07656  -1.07553
 Alpha  occ. eigenvalues --   -1.03932  -1.03088  -1.02274  -1.01387  -1.00989
 Alpha  occ. eigenvalues --   -0.99437  -0.87417  -0.85627  -0.85347  -0.85182
 Alpha  occ. eigenvalues --   -0.85060  -0.84479  -0.84153  -0.84030  -0.83478
 Alpha  occ. eigenvalues --   -0.83370  -0.83157  -0.81341  -0.80046  -0.79696
 Alpha  occ. eigenvalues --   -0.78371  -0.77791  -0.77195  -0.76819  -0.76404
 Alpha  occ. eigenvalues --   -0.75562  -0.75234  -0.74322  -0.72744  -0.72329
 Alpha  occ. eigenvalues --   -0.71411  -0.70953  -0.70611  -0.69842  -0.69620
 Alpha  occ. eigenvalues --   -0.69155  -0.68673  -0.67377  -0.67021  -0.66434
 Alpha  occ. eigenvalues --   -0.66073  -0.64664  -0.64357  -0.62074  -0.61677
 Alpha  occ. eigenvalues --   -0.61602  -0.61150  -0.59824  -0.58991  -0.58967
 Alpha  occ. eigenvalues --   -0.58522  -0.58154  -0.57761  -0.57495  -0.56705
 Alpha  occ. eigenvalues --   -0.56344  -0.55634  -0.55094  -0.54743  -0.54038
 Alpha  occ. eigenvalues --   -0.53560  -0.52747  -0.52506  -0.52057  -0.51733
 Alpha  occ. eigenvalues --   -0.51519  -0.51260  -0.50750  -0.50594  -0.50254
 Alpha  occ. eigenvalues --   -0.50131  -0.49839  -0.49754  -0.49388  -0.49130
 Alpha  occ. eigenvalues --   -0.48982  -0.48746  -0.48493  -0.47999  -0.47748
 Alpha  occ. eigenvalues --   -0.47546  -0.47406  -0.47211  -0.47030  -0.46782
 Alpha  occ. eigenvalues --   -0.46624  -0.46252  -0.46180  -0.46119  -0.45707
 Alpha  occ. eigenvalues --   -0.45455  -0.45348  -0.45120  -0.44740  -0.44638
 Alpha  occ. eigenvalues --   -0.44312  -0.44089  -0.43968  -0.43776  -0.43608
 Alpha  occ. eigenvalues --   -0.43303  -0.43218  -0.43178  -0.43076  -0.42934
 Alpha  occ. eigenvalues --   -0.42855  -0.42796  -0.42405  -0.42143  -0.42063
 Alpha  occ. eigenvalues --   -0.41778  -0.41761  -0.41675  -0.41385  -0.41313
 Alpha  occ. eigenvalues --   -0.41179  -0.41128  -0.40952  -0.40493  -0.40432
 Alpha  occ. eigenvalues --   -0.40021  -0.39866  -0.39669  -0.39638  -0.39553
 Alpha  occ. eigenvalues --   -0.39446  -0.38896  -0.38484  -0.38244  -0.38122
 Alpha  occ. eigenvalues --   -0.38062  -0.37755  -0.37473  -0.37386  -0.37345
 Alpha  occ. eigenvalues --   -0.36777  -0.36570  -0.36153  -0.35749  -0.35284
 Alpha  occ. eigenvalues --   -0.35069  -0.34786  -0.34546  -0.34508  -0.34172
 Alpha  occ. eigenvalues --   -0.34046  -0.33877  -0.33540  -0.33359  -0.33072
 Alpha  occ. eigenvalues --   -0.32854  -0.32738  -0.32425  -0.31372  -0.31178
 Alpha  occ. eigenvalues --   -0.31090  -0.30561  -0.30511  -0.30234  -0.29885
 Alpha  occ. eigenvalues --   -0.29232  -0.28224  -0.28073  -0.27961  -0.27461
 Alpha  occ. eigenvalues --   -0.27025  -0.26716  -0.22937  -0.21382
 Alpha virt. eigenvalues --   -0.07913  -0.06298  -0.01482  -0.00678   0.00843
 Alpha virt. eigenvalues --    0.02530   0.02711   0.03024   0.04140   0.04668
 Alpha virt. eigenvalues --    0.05202   0.06345   0.07776   0.08447   0.09197

 Mulliken charges:
               1
     1  Mg   0.824958
     2  C    0.050381
     3  C   -0.179238
     4  C   -0.109582
     5  C   -0.195162
     6  N   -0.643302
     7  C    0.328459
     8  C   -0.181707
     9  C   -0.102243
    10  C    0.356253
    11  C   -0.312432
    12  C   -0.175906
    13  C   -0.260042
    14  C    0.590796
    15  O   -0.462097
    16  O   -0.490577
    17  N   -0.732185
    18  C    0.338538
    19  C    0.041573
    20  C   -0.021603
    21  C    0.309514
    22  C   -0.361798
    23  C    0.191296
    24  O   -0.404609
    25  N   -0.683784
    26  C    0.260153
    27  C   -0.041407
    28  C    0.000191
    29  C    0.341761
    30  C    0.231154
    31  C   -0.212882
    32  C   -0.315554
    33  N   -0.703447
    34  C    0.261511
    35  C    0.035816
    36  C   -0.027461
    37  C    0.317470
    38  C   -0.365775
    39  C    0.387151
    40  O   -0.437914
    41  C   -0.321308
    42  C    0.624319
    43  O   -0.491900
    44  O   -0.432543
    45  C   -0.093247
    46  C    0.010212
    47  C   -0.122414
    48  C    0.126271
    49  C   -0.352048
    50  C   -0.217758
    51  C   -0.172043
    52  C   -0.163930
    53  C   -0.064771
    54  C   -0.313581
    55  C   -0.172967
    56  C   -0.184928
    57  C   -0.154362
    58  C   -0.045537
    59  C   -0.323004
    60  C   -0.149037
    61  C   -0.172528
    62  C   -0.177253
    63  C   -0.042343
    64  C   -0.310243
    65  C   -0.299831
    66  H    0.068710
    67  H    0.126586
    68  H    0.080968
    69  H    0.108431
    70  H    0.106057
    71  H    0.095212
    72  H    0.117845
    73  H    0.132147
    74  H    0.088340
    75  H    0.134200
    76  H    0.150730
    77  H    0.135841
    78  H    0.119010
    79  H    0.158563
    80  H    0.115648
    81  H    0.049023
    82  H    0.115353
    83  H    0.117075
    84  H    0.092008
    85  H    0.127789
    86  H    0.106632
    87  H    0.141924
    88  H    0.160012
    89  H    0.119486
    90  H    0.153462
    91  H    0.116120
    92  H    0.124149
    93  H    0.067585
    94  H    0.148428
    95  H    0.087599
    96  H    0.106978
    97  H    0.082358
    98  H    0.106438
    99  H    0.083826
   100  H    0.096226
   101  H    0.080284
   102  H    0.070562
   103  H    0.053138
   104  H    0.114048
   105  H    0.113349
   106  H    0.098366
   107  H    0.082565
   108  H    0.102358
   109  H    0.096199
   110  H    0.092312
   111  H    0.098262
   112  H    0.091446
   113  H    0.060658
   114  H    0.102584
   115  H    0.101782
   116  H    0.106234
   117  H    0.062126
   118  H    0.090055
   119  H    0.062408
   120  H    0.083162
   121  H    0.098396
   122  H    0.089477
   123  H    0.094187
   124  H    0.096258
   125  H    0.106496
   126  H    0.094221
   127  H    0.096165
   128  H    0.059326
   129  H    0.102262
   130  H    0.110886
   131  H    0.144019
   132  H    0.139844
   133  O   -0.400864
   134  H    0.037169
 Sum of Mulliken charges =  -0.00000

 Dipole moment (field-independent basis, Debye):
    X=              2.3524    Y=             -5.7574    Z=             -1.2286  Tot=              6.3396
 Quadrupole moment (field-independent basis, Debye-Ang):
   XX=           -363.3734   YY=           -437.7694   ZZ=           -393.6081
   XY=             12.8922   XZ=             32.0186   YZ=            -32.2313

 Normal termination of Gaussian 16 at Thu Oct  3 23:14:46 2019.
