 Gaussian 16, Revision A.03,
 Gaussian 16:  ES64L-G16RevA.03 25-Dec-2016

 ----------------------------------------------------------------------
 # td=(NStates=1) iop(3/107=0140000000,3/108=0140000000) iop(3/107=0140
 000000,3/108=0140000000) CAM-B3LYP/6-31G(d,p)
 ----------------------------------------------------------------------

 --
 TD
 --
 Symbolic Z-matrix:
 Charge =  0 Multiplicity = 1

                         Standard orientation:
 ---------------------------------------------------------------------
 Center     Atomic      Atomic             Coordinates (Angstroms)
 Number     Number       Type             X           Y           Z
 ---------------------------------------------------------------------
      1         12           0       -5.739208    1.240007    0.192151
      2          6           0       -5.026479   -2.090953   -0.429134
      3          6           0       -3.440761    1.092461    2.731052
      4          6           0       -6.321708    4.494915    0.693239
      5          6           0       -8.065612    1.142543   -2.316998
      6          7           0       -4.391176   -0.253873    0.927953
      7          6           0       -4.281067   -1.578264    0.637188
      8          6           0       -3.270064   -2.377055    1.359429
      9          6           0       -3.013887   -1.332917    2.572986
     10          6           0       -3.599627   -0.051795    1.975476
     11          6           0       -3.558831   -1.760730    3.914467
     12          6           0       -1.997546   -2.729879    0.597718
     13          6           0       -0.989360   -3.622978    1.417658
     14          6           0        0.313072   -3.874739    0.614358
     15          8           0        0.468097   -3.531628   -0.555771
     16          8           0        1.179046   -4.598789    1.300222
     17          7           0       -5.003172    2.580688    1.467471
     18          6           0       -4.028001    2.412519    2.411503
     19          6           0       -3.738153    3.586081    3.121717
     20          6           0       -4.613462    4.523812    2.546058
     21          6           0       -5.399562    3.911276    1.497361
     22          6           0       -2.708956    3.843032    4.186677
     23          6           0       -4.818902    5.943192    2.962115
     24          8           0       -4.151750    6.562790    3.826253
     25          7           0       -7.051827    2.572621   -0.683717
     26          6           0       -7.074999    3.937237   -0.355857
     27          6           0       -8.081223    4.562297   -1.191085
     28          6           0       -8.617669    3.618553   -2.093922
     29          6           0       -7.910691    2.346089   -1.676181
     30          6           0       -8.482325    5.980821   -1.107080
     31          6           0       -9.545785    3.780518   -3.111955
     32          6           0       -9.013776    4.069726   -4.490726
     33          7           0       -6.396448   -0.137112   -1.056663
     34          6           0       -7.419731   -0.055547   -2.026428
     35          6           0       -7.568908   -1.299033   -2.649374
     36          6           0       -6.671747   -2.175111   -2.115809
     37          6           0       -5.966146   -1.413883   -1.177504
     38          6           0       -8.603742   -1.703631   -3.805206
     39          6           0       -6.205191   -3.607847   -1.946371
     40          8           0       -6.721557   -4.500698   -2.574558
     41          6           0       -5.041931   -3.504671   -0.825130
     42          6           0       -5.329032   -4.585162    0.175697
     43          8           0       -5.701986   -4.463337    1.356198
     44          8           0       -5.079315   -5.837008   -0.356511
     45          6           0       -5.359942   -6.937717    0.504594
     46          6           0        2.427120   -5.041735    0.707732
     47          6           0        3.540814   -4.054471    1.083264
     48          6           0        4.121497   -3.210031    0.202572
     49          6           0        3.882404   -3.271933   -1.268401
     50          6           0        5.310679   -2.392730    0.663334
     51          6           0        6.589175   -2.702870    0.131971
     52          6           0        7.737248   -1.735805    0.555071
     53          6           0        9.023877   -1.968940   -0.151608
     54          6           0        9.655602   -3.309242   -0.105536
     55          6           0       10.047609   -1.001130    0.404893
     56          6           0       11.391646   -0.774641   -0.327108
     57          6           0       12.224387    0.425459    0.177787
     58          6           0       13.622701    0.620044   -0.477900
     59          6           0       14.553676   -0.518057   -0.326745
     60          6           0       14.300453    1.908849   -0.056530
     61          6           0       15.600083    2.097042   -0.902994
     62          6           0       16.227250    3.523178   -0.609183
     63          6           0       17.532877    3.856326   -1.302282
     64          6           0       17.593350    3.754217   -2.812416
     65          6           0       18.121234    5.242065   -0.898611
     66          1           0       -2.550598    1.130458    3.485607
     67          1           0       -6.394611    5.618126    0.965395
     68          1           0       -8.789995    1.102730   -3.104210
     69          1           0       -3.671108   -3.382975    1.780967
     70          1           0       -1.895397   -1.180979    2.867442
     71          1           0       -2.842477   -2.670240    4.497910
     72          1           0       -3.448465   -0.915215    4.733944
     73          1           0       -4.434267   -2.142339    3.885663
     74          1           0       -2.136838   -3.040891   -0.357791
     75          1           0       -1.319456   -1.850775    0.404686
     76          1           0       -0.703426   -3.029067    2.529474
     77          1           0       -1.313108   -4.593565    1.930602
     78          1           0       -1.756101    3.374639    3.840797
     79          1           0       -2.434718    4.917618    4.252650
     80          1           0       -2.928892    3.219681    5.122054
     81          1           0       -5.592230    6.385081    2.574800
     82          1           0      -10.300041    2.970303   -3.326827
     83          1           0      -10.241045    4.808133   -3.047231
     84          1           0       -9.775804    4.363141   -5.246054
     85          1           0       -8.486572    5.035377   -4.659225
     86          1           0       -8.264784    3.303097   -4.726851
     87          1           0       -8.532282   -0.982050   -4.490448
     88          1           0       -8.281246   -2.659778   -4.166245
     89          1           0       -9.566330   -1.917220   -3.244531
     90          1           0       -4.183941   -3.754284   -1.451080
     91          1           0        2.601041   -6.074934    1.103118
     92          1           0        2.296724   -5.173733   -0.422363
     93          1           0        3.763967   -3.793284    2.109717
     94          1           0        2.928700   -3.641232   -1.437999
     95          1           0        3.853094   -2.140630   -1.548962
     96          1           0        4.416354   -3.849800   -1.767330
     97          1           0        5.164427   -1.226144    0.607664
     98          1           0        5.490878   -2.494812    1.772624
     99          1           0        6.821073   -3.848840    0.184388
    100          1           0        6.742293   -2.706474   -1.136008
    101          1           0        7.436217   -0.783225    0.457176
    102          1           0        7.959827   -2.098635    1.650558
    103          1           0        8.945430   -1.808593   -1.196484
    104          1           0        8.957402   -4.068497   -0.564836
    105          1           0       10.658620   -3.270707   -0.698364
    106          1           0        9.897203   -3.530945    0.869540
    107          1           0        9.631999    0.025318    0.537137
    108          1           0       10.317283   -1.302927    1.524369
    109          1           0       11.981707   -1.646833   -0.298016
    110          1           0       11.012142   -0.782123   -1.355790
    111          1           0       11.517538    1.248585   -0.035677
    112          1           0       12.289218    0.296404    1.372878
    113          1           0       13.293644    0.711719   -1.561847
    114          1           0       14.867213   -0.643217    0.777099
    115          1           0       14.069807   -1.562956   -0.582546
    116          1           0       15.448300   -0.365456   -0.853265
    117          1           0       13.554378    2.900586   -0.035388
    118          1           0       14.556890    1.882182    0.946160
    119          1           0       16.428445    1.452327   -0.468663
    120          1           0       15.551142    1.771437   -1.893958
    121          1           0       15.414079    4.184702   -1.009749
    122          1           0       16.157088    3.680207    0.345859
    123          1           0       18.240899    3.094078   -0.970578
    124          1           0       16.839050    4.524849   -3.325160
    125          1           0       18.572216    3.949573   -3.203827
    126          1           0       17.411978    2.940745   -3.260048
    127          1           0       18.134122    5.493818    0.169346
    128          1           0       18.965410    5.264865   -1.354128
    129          1           0       17.331315    6.175316   -1.327911
    130          1           0       -5.293828   -7.673515   -0.033242
    131          1           0       -6.444767   -6.895593    0.634648
    132          1           0       -4.804140   -6.910282    1.492503
    133          8           0       -7.901182    6.892355   -0.519240
    134          1           0       -9.406240    6.249329   -1.695060
 ---------------------------------------------------------------------

 SCF Done:  E(RCAM-B3LYP) =  -3043.46282463     A.U. after   15 cycles

 Excitation energies and oscillator strengths:

 Excited State   1:      Singlet-A      2.0827 eV  595.31 nm  f=0.1645  <S**2>=0.000
     243 -> 246       -0.29174
     244 -> 245        0.62951
 This state for optimization and/or second-order correction.
 Total Energy, E(TD-HF/TD-DFT) =  -3043.38628754
 Copying the excited state density for this state as the 1-particle RhoCI density.

 The electronic state is 1-A.
 Alpha  occ. eigenvalues --  -46.80690 -19.22800 -19.22571 -19.18596 -19.17862
 Alpha  occ. eigenvalues --  -19.17292 -19.16877 -19.16429 -14.39041 -14.37374
 Alpha  occ. eigenvalues --  -14.36584 -14.36036 -10.36138 -10.35444 -10.33006
 Alpha  occ. eigenvalues --  -10.30635 -10.29235 -10.28857 -10.27529 -10.27091
 Alpha  occ. eigenvalues --  -10.26982 -10.26715 -10.26503 -10.26400 -10.26130
 Alpha  occ. eigenvalues --  -10.25943 -10.25853 -10.25726 -10.25247 -10.24939
 Alpha  occ. eigenvalues --  -10.24839 -10.24763 -10.24736 -10.24695 -10.24437
 Alpha  occ. eigenvalues --  -10.24125 -10.24076 -10.23819 -10.23533 -10.23284
 Alpha  occ. eigenvalues --  -10.23175 -10.23118 -10.23035 -10.22943 -10.22939
 Alpha  occ. eigenvalues --  -10.22654 -10.22430 -10.22338 -10.22163 -10.21871
 Alpha  occ. eigenvalues --  -10.21862 -10.21827 -10.21704 -10.21675 -10.21484
 Alpha  occ. eigenvalues --  -10.21150 -10.21073 -10.20812 -10.20710 -10.20490
 Alpha  occ. eigenvalues --  -10.20466 -10.20066 -10.20044 -10.19406 -10.19161
 Alpha  occ. eigenvalues --  -10.19077  -3.09480  -1.84403  -1.83969  -1.83891
 Alpha  occ. eigenvalues --   -1.13881  -1.12780  -1.08583  -1.06072  -1.04239
 Alpha  occ. eigenvalues --   -1.04022  -1.04011  -1.01686  -1.00274  -0.99701
 Alpha  occ. eigenvalues --   -0.98946  -0.89656  -0.87197  -0.86529  -0.85833
 Alpha  occ. eigenvalues --   -0.85277  -0.85113  -0.85014  -0.83761  -0.83500
 Alpha  occ. eigenvalues --   -0.83222  -0.82660  -0.81652  -0.81152  -0.79963
 Alpha  occ. eigenvalues --   -0.79449  -0.78758  -0.78329  -0.77483  -0.76944
 Alpha  occ. eigenvalues --   -0.76084  -0.74790  -0.74149  -0.74020  -0.72860
 Alpha  occ. eigenvalues --   -0.72449  -0.71803  -0.70939  -0.70272  -0.70123
 Alpha  occ. eigenvalues --   -0.69717  -0.69486  -0.67641  -0.67274  -0.66673
 Alpha  occ. eigenvalues --   -0.66215  -0.65012  -0.64101  -0.62605  -0.62471
 Alpha  occ. eigenvalues --   -0.62006  -0.61007  -0.60321  -0.59753  -0.59102
 Alpha  occ. eigenvalues --   -0.58817  -0.58744  -0.58001  -0.57932  -0.57540
 Alpha  occ. eigenvalues --   -0.56524  -0.56264  -0.55784  -0.55468  -0.55223
 Alpha  occ. eigenvalues --   -0.54398  -0.53743  -0.53068  -0.52436  -0.52077
 Alpha  occ. eigenvalues --   -0.51951  -0.51820  -0.51438  -0.51212  -0.50765
 Alpha  occ. eigenvalues --   -0.50257  -0.50186  -0.49927  -0.49578  -0.49391
 Alpha  occ. eigenvalues --   -0.49160  -0.48893  -0.48737  -0.48683  -0.48295
 Alpha  occ. eigenvalues --   -0.48036  -0.47915  -0.47332  -0.47200  -0.46984
 Alpha  occ. eigenvalues --   -0.46928  -0.46841  -0.46641  -0.46459  -0.46313
 Alpha  occ. eigenvalues --   -0.45835  -0.45774  -0.45672  -0.45353  -0.45199
 Alpha  occ. eigenvalues --   -0.44821  -0.44713  -0.44665  -0.44151  -0.43942
 Alpha  occ. eigenvalues --   -0.43588  -0.43399  -0.43237  -0.43134  -0.43036
 Alpha  occ. eigenvalues --   -0.42874  -0.42638  -0.42616  -0.42233  -0.42021
 Alpha  occ. eigenvalues --   -0.41940  -0.41482  -0.41267  -0.41108  -0.40814
 Alpha  occ. eigenvalues --   -0.40739  -0.40363  -0.40285  -0.40137  -0.40035
 Alpha  occ. eigenvalues --   -0.39905  -0.39735  -0.39451  -0.39075  -0.39009
 Alpha  occ. eigenvalues --   -0.38928  -0.38820  -0.38480  -0.38399  -0.38100
 Alpha  occ. eigenvalues --   -0.37859  -0.37745  -0.37546  -0.37459  -0.37110
 Alpha  occ. eigenvalues --   -0.36947  -0.36804  -0.36682  -0.36025  -0.35997
 Alpha  occ. eigenvalues --   -0.35604  -0.35500  -0.35139  -0.35097  -0.34366
 Alpha  occ. eigenvalues --   -0.34335  -0.33793  -0.33667  -0.33197  -0.33083
 Alpha  occ. eigenvalues --   -0.32953  -0.32771  -0.32272  -0.31889  -0.31723
 Alpha  occ. eigenvalues --   -0.31324  -0.31218  -0.31068  -0.30707  -0.30215
 Alpha  occ. eigenvalues --   -0.28700  -0.28364  -0.28315  -0.27902  -0.27776
 Alpha  occ. eigenvalues --   -0.27497  -0.27224  -0.22955  -0.22107
 Alpha virt. eigenvalues --   -0.08746  -0.06550  -0.01619  -0.01005   0.00533
 Alpha virt. eigenvalues --    0.02004   0.02689   0.03524   0.03610   0.04321
 Alpha virt. eigenvalues --    0.04907   0.05259   0.07358   0.07890   0.09089

 Mulliken charges:
               1
     1  Mg   0.823390
     2  C    0.049730
     3  C   -0.201235
     4  C   -0.175103
     5  C   -0.169938
     6  N   -0.621953
     7  C    0.334507
     8  C   -0.165550
     9  C   -0.148289
    10  C    0.377368
    11  C   -0.278435
    12  C   -0.156757
    13  C   -0.265370
    14  C    0.607947
    15  O   -0.480732
    16  O   -0.443563
    17  N   -0.737923
    18  C    0.290954
    19  C    0.070499
    20  C   -0.078758
    21  C    0.349046
    22  C   -0.385129
    23  C    0.274176
    24  O   -0.444768
    25  N   -0.703671
    26  C    0.292206
    27  C   -0.031161
    28  C    0.118836
    29  C    0.313752
    30  C    0.244495
    31  C   -0.313565
    32  C   -0.313574
    33  N   -0.741511
    34  C    0.316065
    35  C   -0.084610
    36  C    0.060764
    37  C    0.292919
    38  C   -0.352221
    39  C    0.370224
    40  O   -0.430995
    41  C   -0.335573
    42  C    0.625291
    43  O   -0.490116
    44  O   -0.461045
    45  C   -0.049543
    46  C   -0.010765
    47  C   -0.124227
    48  C    0.122809
    49  C   -0.350424
    50  C   -0.220789
    51  C   -0.154494
    52  C   -0.135546
    53  C   -0.067674
    54  C   -0.295444
    55  C   -0.169647
    56  C   -0.188945
    57  C   -0.172758
    58  C   -0.041421
    59  C   -0.305919
    60  C   -0.156320
    61  C   -0.205302
    62  C   -0.155832
    63  C   -0.066192
    64  C   -0.297077
    65  C   -0.274894
    66  H    0.084583
    67  H    0.135945
    68  H    0.087602
    69  H    0.133174
    70  H    0.095293
    71  H    0.058981
    72  H    0.101068
    73  H    0.140857
    74  H    0.128848
    75  H    0.119881
    76  H    0.095693
    77  H    0.131823
    78  H    0.115088
    79  H    0.164046
    80  H    0.125904
    81  H    0.081972
    82  H    0.124865
    83  H    0.094664
    84  H    0.111482
    85  H    0.112191
    86  H    0.110297
    87  H    0.129123
    88  H    0.148014
    89  H    0.130659
    90  H    0.179408
    91  H    0.119811
    92  H    0.124685
    93  H    0.086490
    94  H    0.137118
    95  H    0.100530
    96  H    0.130240
    97  H    0.081943
    98  H    0.094952
    99  H    0.088769
   100  H    0.039343
   101  H    0.104783
   102  H    0.077445
   103  H    0.088517
   104  H    0.089348
   105  H    0.091751
   106  H    0.107871
   107  H    0.074597
   108  H    0.060822
   109  H    0.097509
   110  H    0.085913
   111  H    0.092694
   112  H    0.064939
   113  H    0.081443
   114  H    0.087525
   115  H    0.087110
   116  H    0.117622
   117  H    0.058932
   118  H    0.104885
   119  H    0.086104
   120  H    0.104905
   121  H    0.078395
   122  H    0.097175
   123  H    0.082949
   124  H    0.076818
   125  H    0.098312
   126  H    0.109578
   127  H    0.100743
   128  H    0.112070
   129  H    0.051519
   130  H    0.120536
   131  H    0.122150
   132  H    0.122875
   133  O   -0.424331
   134  H    0.060937
 Sum of Mulliken charges =  -0.00000

 Dipole moment (field-independent basis, Debye):
    X=              2.1138    Y=             -5.8199    Z=             -1.6363  Tot=              6.4044
 Quadrupole moment (field-independent basis, Debye-Ang):
   XX=           -358.9450   YY=           -439.1917   ZZ=           -396.0509
   XY=              4.7951   XZ=             25.9582   YZ=            -32.0622

 Normal termination of Gaussian 16 at Tue Oct  8 23:49:04 2019.
