 Gaussian 16, Revision A.03,
 Gaussian 16:  ES64L-G16RevA.03 25-Dec-2016

 ----------------------------------------------------------------------
 # td=(NStates=1) iop(3/107=0140000000,3/108=0140000000) iop(3/107=0140
 000000,3/108=0140000000) CAM-B3LYP/6-31G(d,p)
 ----------------------------------------------------------------------

 --
 TD
 --
 Symbolic Z-matrix:
 Charge =  0 Multiplicity = 1

                         Standard orientation:
 ---------------------------------------------------------------------
 Center     Atomic      Atomic             Coordinates (Angstroms)
 Number     Number       Type             X           Y           Z
 ---------------------------------------------------------------------
      1         12           0       -5.683349    1.213286    0.225629
      2          6           0       -5.020601   -2.274362   -0.392557
      3          6           0       -3.430908    1.173189    2.765439
      4          6           0       -6.105196    4.552690    0.654901
      5          6           0       -7.968093    1.177641   -2.431422
      6          7           0       -4.341435   -0.356163    0.984527
      7          6           0       -4.291432   -1.638675    0.606992
      8          6           0       -3.191583   -2.338744    1.561470
      9          6           0       -2.867159   -1.256967    2.728459
     10          6           0       -3.554177   -0.031132    2.071078
     11          6           0       -3.601541   -1.800152    3.965293
     12          6           0       -1.995728   -2.690503    0.651828
     13          6           0       -0.836640   -3.507381    1.463468
     14          6           0        0.283553   -3.835834    0.581192
     15          8           0        0.370587   -3.477472   -0.568470
     16          8           0        1.149255   -4.709757    1.232757
     17          7           0       -4.899191    2.528049    1.474792
     18          6           0       -4.042731    2.402185    2.445977
     19          6           0       -3.811016    3.632586    3.185148
     20          6           0       -4.636237    4.593508    2.611475
     21          6           0       -5.219158    3.924976    1.470441
     22          6           0       -2.985449    3.729183    4.415360
     23          6           0       -4.657905    6.070137    2.971306
     24          8           0       -4.088403    6.679023    3.870736
     25          7           0       -6.881700    2.669934   -0.770462
     26          6           0       -6.893138    4.006357   -0.353676
     27          6           0       -7.801112    4.644072   -1.244954
     28          6           0       -8.352167    3.671821   -2.150486
     29          6           0       -7.746996    2.371198   -1.801677
     30          6           0       -8.417581    5.979182   -1.145063
     31          6           0       -9.510678    3.760479   -3.156328
     32          6           0       -8.916487    3.890364   -4.662252
     33          7           0       -6.289242   -0.155231   -1.084919
     34          6           0       -7.324857   -0.028363   -2.085170
     35          6           0       -7.598202   -1.328410   -2.737215
     36          6           0       -6.588355   -2.181548   -2.090687
     37          6           0       -5.920349   -1.411273   -1.128978
     38          6           0       -8.663437   -1.594774   -3.761932
     39          6           0       -6.277425   -3.521619   -2.021339
     40          8           0       -6.540277   -4.483687   -2.706174
     41          6           0       -5.184340   -3.581636   -0.874428
     42          6           0       -5.440385   -4.622209    0.205118
     43          8           0       -5.709069   -4.358494    1.406803
     44          8           0       -5.157643   -5.903901   -0.331600
     45          6           0       -5.482567   -6.931658    0.651926
     46          6           0        2.355728   -5.003738    0.557552
     47          6           0        3.494364   -4.103743    0.941515
     48          6           0        4.057335   -3.185887    0.134917
     49          6           0        3.746914   -2.896588   -1.287083
     50          6           0        5.275135   -2.447394    0.672078
     51          6           0        6.648412   -2.765512   -0.077627
     52          6           0        7.637851   -1.715814    0.411112
     53          6           0        9.094885   -2.015541   -0.099782
     54          6           0        9.643356   -3.458137    0.220347
     55          6           0       10.056166   -0.943251    0.481822
     56          6           0       11.473609   -0.926514   -0.278863
     57          6           0       12.345900    0.219956    0.261243
     58          6           0       13.595987    0.434484   -0.565185
     59          6           0       14.526043   -0.758765   -0.340391
     60          6           0       14.206435    1.790791   -0.074372
     61          6           0       15.430813    2.167608   -1.012344
     62          6           0       16.067753    3.549075   -0.657653
     63          6           0       17.378678    3.966875   -1.406222
     64          6           0       17.316643    4.062499   -2.849385
     65          6           0       17.932587    5.214068   -0.742089
     66          1           0       -2.833930    1.150582    3.667492
     67          1           0       -6.295511    5.639462    0.460604
     68          1           0       -8.765468    1.151715   -3.090180
     69          1           0       -3.675216   -3.352843    1.783390
     70          1           0       -1.769534   -1.017753    2.725343
     71          1           0       -2.974699   -2.514675    4.339273
     72          1           0       -3.676737   -1.010599    4.836826
     73          1           0       -4.504380   -2.174847    3.961928
     74          1           0       -2.365583   -3.455934   -0.163127
     75          1           0       -1.304261   -2.044000    0.269001
     76          1           0       -0.372265   -2.940736    2.309977
     77          1           0       -1.215158   -4.418896    1.785852
     78          1           0       -1.719822    3.523571    4.138797
     79          1           0       -2.976826    4.879107    4.687980
     80          1           0       -3.329633    3.033479    5.131199
     81          1           0       -5.180554    6.785625    2.342023
     82          1           0      -10.102361    2.683955   -3.083077
     83          1           0      -10.237496    4.713671   -3.076596
     84          1           0       -9.698450    3.727441   -5.285643
     85          1           0       -8.258763    4.732221   -4.832261
     86          1           0       -8.444978    2.941420   -4.821367
     87          1           0       -8.463891   -0.829090   -4.659824
     88          1           0       -8.796711   -2.789697   -3.800943
     89          1           0       -9.639935   -1.182267   -3.462787
     90          1           0       -4.333901   -3.992140   -1.442549
     91          1           0        2.241468   -5.965394    0.781930
     92          1           0        2.125314   -5.020780   -0.523473
     93          1           0        3.674892   -4.386508    2.070951
     94          1           0        2.790199   -3.275626   -1.540778
     95          1           0        3.660210   -1.835441   -1.376249
     96          1           0        4.515945   -3.233345   -1.871920
     97          1           0        5.112851   -1.278624    0.687568
     98          1           0        5.330983   -2.801367    1.629133
     99          1           0        6.864366   -3.639192    0.203371
    100          1           0        6.467105   -2.771579   -1.244639
    101          1           0        7.433022   -0.702781   -0.091665
    102          1           0        7.482149   -1.621835    1.556537
    103          1           0        9.079531   -1.848833   -1.245949
    104          1           0        8.834150   -4.187089   -0.013158
    105          1           0       10.616150   -3.630178   -0.251857
    106          1           0        9.689097   -3.773704    1.262394
    107          1           0        9.603270    0.092103    0.309409
    108          1           0       10.118212   -1.080960    1.588146
    109          1           0       11.886619   -1.749923   -0.003794
    110          1           0       11.086668   -0.780323   -1.418612
    111          1           0       11.879432    1.127077    0.130996
    112          1           0       12.761931    0.120834    1.404821
    113          1           0       13.377765    0.566354   -1.674366
    114          1           0       14.877937   -0.979134    0.707112
    115          1           0       14.043640   -1.850767   -0.570993
    116          1           0       15.427716   -0.524967   -0.878304
    117          1           0       13.473999    2.714154   -0.494857
    118          1           0       14.580763    1.867478    1.023677
    119          1           0       16.124918    1.406910   -0.718797
    120          1           0       15.070669    2.064297   -1.989814
    121          1           0       15.217659    4.327047   -0.748417
    122          1           0       16.291832    3.436086    0.360794
    123          1           0       17.984247    3.036527   -1.202855
    124          1           0       16.488504    4.828874   -3.292935
    125          1           0       18.359142    4.281123   -3.272469
    126          1           0       17.021986    3.023026   -3.349241
    127          1           0       17.972775    5.129489    0.198539
    128          1           0       19.011095    5.384510   -0.955971
    129          1           0       17.406004    6.151723   -1.133095
    130          1           0       -5.273390   -7.840441    0.184637
    131          1           0       -6.570878   -6.842635    0.833115
    132          1           0       -4.986063   -6.777622    1.432003
    133          8           0       -7.944907    6.866058   -0.385589
    134          1           0       -9.180099    6.210163   -1.854866
 ---------------------------------------------------------------------

 SCF Done:  E(RCAM-B3LYP) =  -3043.43809583     A.U. after   15 cycles

 Excitation energies and oscillator strengths:

 Excited State   1:      Singlet-A      2.0691 eV  599.21 nm  f=0.1589  <S**2>=0.000
     243 -> 246        0.30623
     244 -> 245        0.62691
 This state for optimization and/or second-order correction.
 Total Energy, E(TD-HF/TD-DFT) =  -3043.36205634
 Copying the excited state density for this state as the 1-particle RhoCI density.

 The electronic state is 1-A.
 Alpha  occ. eigenvalues --  -46.81416 -19.22568 -19.20838 -19.18364 -19.17945
 Alpha  occ. eigenvalues --  -19.17250 -19.16803 -19.16384 -14.38582 -14.37701
 Alpha  occ. eigenvalues --  -14.37127 -14.36643 -10.36027 -10.34043 -10.31222
 Alpha  occ. eigenvalues --  -10.30249 -10.30111 -10.27847 -10.27563 -10.27192
 Alpha  occ. eigenvalues --  -10.27118 -10.26831 -10.26823 -10.26655 -10.26303
 Alpha  occ. eigenvalues --  -10.26136 -10.25888 -10.25692 -10.25299 -10.25282
 Alpha  occ. eigenvalues --  -10.25131 -10.24862 -10.24735 -10.24696 -10.24398
 Alpha  occ. eigenvalues --  -10.24206 -10.23988 -10.23955 -10.23589 -10.23304
 Alpha  occ. eigenvalues --  -10.23136 -10.23083 -10.22806 -10.22717 -10.22635
 Alpha  occ. eigenvalues --  -10.22599 -10.22438 -10.22232 -10.22225 -10.21977
 Alpha  occ. eigenvalues --  -10.21915 -10.21848 -10.21537 -10.21489 -10.21311
 Alpha  occ. eigenvalues --  -10.21081 -10.21061 -10.20905 -10.20891 -10.20807
 Alpha  occ. eigenvalues --  -10.20567 -10.20528 -10.20356 -10.19771 -10.19353
 Alpha  occ. eigenvalues --  -10.19013  -3.10029  -1.84964  -1.84494  -1.84446
 Alpha  occ. eigenvalues --   -1.12299  -1.10912  -1.06990  -1.06875  -1.05121
 Alpha  occ. eigenvalues --   -1.04369  -1.03628  -1.01244  -1.00198  -0.98650
 Alpha  occ. eigenvalues --   -0.97965  -0.89779  -0.86041  -0.85921  -0.85106
 Alpha  occ. eigenvalues --   -0.84449  -0.84324  -0.83959  -0.83755  -0.83611
 Alpha  occ. eigenvalues --   -0.82989  -0.82726  -0.81688  -0.80209  -0.79515
 Alpha  occ. eigenvalues --   -0.78960  -0.77874  -0.77644  -0.77426  -0.76701
 Alpha  occ. eigenvalues --   -0.75248  -0.74741  -0.74050  -0.73456  -0.72363
 Alpha  occ. eigenvalues --   -0.71726  -0.71515  -0.70240  -0.69817  -0.69664
 Alpha  occ. eigenvalues --   -0.69359  -0.68524  -0.67750  -0.67181  -0.66111
 Alpha  occ. eigenvalues --   -0.65878  -0.65023  -0.64396  -0.62432  -0.62376
 Alpha  occ. eigenvalues --   -0.61850  -0.61511  -0.59863  -0.59011  -0.58124
 Alpha  occ. eigenvalues --   -0.57741  -0.57677  -0.57551  -0.57252  -0.56982
 Alpha  occ. eigenvalues --   -0.56847  -0.56114  -0.55584  -0.55420  -0.54416
 Alpha  occ. eigenvalues --   -0.54097  -0.53144  -0.52390  -0.52127  -0.51936
 Alpha  occ. eigenvalues --   -0.51755  -0.51419  -0.51302  -0.50951  -0.50567
 Alpha  occ. eigenvalues --   -0.50391  -0.49958  -0.49826  -0.49689  -0.49109
 Alpha  occ. eigenvalues --   -0.48784  -0.48431  -0.48360  -0.48181  -0.47895
 Alpha  occ. eigenvalues --   -0.47765  -0.47271  -0.47145  -0.47045  -0.46937
 Alpha  occ. eigenvalues --   -0.46814  -0.46691  -0.46483  -0.46334  -0.46151
 Alpha  occ. eigenvalues --   -0.45738  -0.45685  -0.45284  -0.45228  -0.44823
 Alpha  occ. eigenvalues --   -0.44332  -0.44325  -0.44233  -0.43932  -0.43815
 Alpha  occ. eigenvalues --   -0.43738  -0.43418  -0.43356  -0.42948  -0.42842
 Alpha  occ. eigenvalues --   -0.42716  -0.42366  -0.42220  -0.41962  -0.41787
 Alpha  occ. eigenvalues --   -0.41445  -0.41348  -0.40971  -0.40873  -0.40432
 Alpha  occ. eigenvalues --   -0.40342  -0.40283  -0.40175  -0.39932  -0.39890
 Alpha  occ. eigenvalues --   -0.39655  -0.39605  -0.39316  -0.39163  -0.39070
 Alpha  occ. eigenvalues --   -0.39023  -0.38887  -0.38653  -0.38601  -0.38444
 Alpha  occ. eigenvalues --   -0.38111  -0.37802  -0.37492  -0.37447  -0.36908
 Alpha  occ. eigenvalues --   -0.36552  -0.36091  -0.35932  -0.35910  -0.35659
 Alpha  occ. eigenvalues --   -0.35592  -0.35338  -0.35238  -0.34808  -0.34701
 Alpha  occ. eigenvalues --   -0.34435  -0.34223  -0.33556  -0.33234  -0.32897
 Alpha  occ. eigenvalues --   -0.32451  -0.32358  -0.32094  -0.31994  -0.31424
 Alpha  occ. eigenvalues --   -0.31404  -0.30779  -0.30123  -0.29851  -0.29504
 Alpha  occ. eigenvalues --   -0.28967  -0.28118  -0.27996  -0.27798  -0.27413
 Alpha  occ. eigenvalues --   -0.27343  -0.26992  -0.22980  -0.22224
 Alpha virt. eigenvalues --   -0.08935  -0.06844  -0.01650  -0.01443   0.00611
 Alpha virt. eigenvalues --    0.01467   0.02996   0.03661   0.04463   0.04517
 Alpha virt. eigenvalues --    0.04993   0.05466   0.07001   0.08354   0.09185

 Mulliken charges:
               1
     1  Mg   0.829709
     2  C    0.160578
     3  C   -0.189169
     4  C   -0.151446
     5  C   -0.120936
     6  N   -0.636456
     7  C    0.316661
     8  C   -0.172374
     9  C   -0.142731
    10  C    0.320009
    11  C   -0.297037
    12  C   -0.170711
    13  C   -0.282210
    14  C    0.596754
    15  O   -0.459496
    16  O   -0.485735
    17  N   -0.709607
    18  C    0.375796
    19  C    0.044390
    20  C   -0.013657
    21  C    0.265580
    22  C   -0.387486
    23  C    0.255864
    24  O   -0.408283
    25  N   -0.728325
    26  C    0.295742
    27  C   -0.074263
    28  C    0.043513
    29  C    0.318545
    30  C    0.253033
    31  C   -0.269457
    32  C   -0.312365
    33  N   -0.747832
    34  C    0.232293
    35  C    0.082557
    36  C    0.000196
    37  C    0.345454
    38  C   -0.390889
    39  C    0.323449
    40  O   -0.458934
    41  C   -0.379864
    42  C    0.622917
    43  O   -0.487826
    44  O   -0.471811
    45  C   -0.068460
    46  C   -0.001895
    47  C   -0.123552
    48  C    0.103831
    49  C   -0.363574
    50  C   -0.233072
    51  C   -0.155752
    52  C   -0.170352
    53  C   -0.049740
    54  C   -0.329103
    55  C   -0.179119
    56  C   -0.160592
    57  C   -0.143878
    58  C   -0.047987
    59  C   -0.312329
    60  C   -0.175128
    61  C   -0.194954
    62  C   -0.163045
    63  C   -0.040415
    64  C   -0.287265
    65  C   -0.293177
    66  H    0.085449
    67  H    0.145799
    68  H    0.075406
    69  H    0.117793
    70  H    0.116426
    71  H    0.126591
    72  H    0.076841
    73  H    0.146912
    74  H    0.097322
    75  H    0.131663
    76  H    0.127401
    77  H    0.140068
    78  H    0.082218
    79  H    0.156660
    80  H    0.138878
    81  H    0.095300
    82  H    0.093579
    83  H    0.105879
    84  H    0.119784
    85  H    0.130743
    86  H    0.107787
    87  H    0.128790
    88  H    0.152479
    89  H    0.136648
    90  H    0.174850
    91  H    0.111963
    92  H    0.109603
    93  H    0.081418
    94  H    0.139858
    95  H    0.118900
    96  H    0.128018
    97  H    0.081798
    98  H    0.105405
    99  H    0.114719
   100  H    0.078901
   101  H    0.090203
   102  H    0.086596
   103  H    0.072030
   104  H    0.093755
   105  H    0.110750
   106  H    0.102470
   107  H    0.072242
   108  H    0.085961
   109  H    0.108836
   110  H    0.076150
   111  H    0.092838
   112  H    0.067305
   113  H    0.082243
   114  H    0.095447
   115  H    0.082901
   116  H    0.105635
   117  H    0.062055
   118  H    0.085678
   119  H    0.092878
   120  H    0.098013
   121  H    0.069090
   122  H    0.092491
   123  H    0.080034
   124  H    0.077160
   125  H    0.097096
   126  H    0.082956
   127  H    0.109875
   128  H    0.087631
   129  H    0.096050
   130  H    0.127280
   131  H    0.125144
   132  H    0.135846
   133  O   -0.449412
   134  H    0.078348
 Sum of Mulliken charges =  -0.00000

 Dipole moment (field-independent basis, Debye):
    X=              0.9590    Y=             -4.1677    Z=             -0.3732  Tot=              4.2929
 Quadrupole moment (field-independent basis, Debye-Ang):
   XX=           -353.8123   YY=           -442.2757   ZZ=           -395.1199
   XY=              7.2207   XZ=             27.7752   YZ=            -37.4935

 Normal termination of Gaussian 16 at Sat Oct  5 08:29:20 2019.
