 Gaussian 16, Revision A.03,
 Gaussian 16:  ES64L-G16RevA.03 25-Dec-2016

 ----------------------------------------------------------------------
 # td=(NStates=1) iop(3/107=0140000000,3/108=0140000000) iop(3/107=0140
 000000,3/108=0140000000) CAM-B3LYP/6-31G(d,p)
 ----------------------------------------------------------------------

 --
 TD
 --
 Symbolic Z-matrix:
 Charge =  0 Multiplicity = 1

                         Standard orientation:
 ---------------------------------------------------------------------
 Center     Atomic      Atomic             Coordinates (Angstroms)
 Number     Number       Type             X           Y           Z
 ---------------------------------------------------------------------
      1         12           0       -5.596781    1.207196    0.153316
      2          6           0       -4.903114   -2.118878   -0.331332
      3          6           0       -3.249976    1.225116    2.705239
      4          6           0       -6.198108    4.487133    0.685595
      5          6           0       -8.003500    1.180199   -2.407880
      6          7           0       -4.278721   -0.248801    1.092192
      7          6           0       -4.232762   -1.583152    0.752993
      8          6           0       -3.097461   -2.261103    1.521674
      9          6           0       -2.859234   -1.285806    2.663853
     10          6           0       -3.445333   -0.008625    2.148665
     11          6           0       -3.560467   -1.677050    4.085462
     12          6           0       -1.988610   -2.551764    0.730317
     13          6           0       -1.058361   -3.690130    1.439281
     14          6           0        0.250892   -3.926326    0.729802
     15          8           0        0.504335   -3.501094   -0.400481
     16          8           0        1.088450   -4.824354    1.403935
     17          7           0       -4.881446    2.564287    1.459587
     18          6           0       -3.903637    2.455600    2.469754
     19          6           0       -3.788500    3.728998    3.124604
     20          6           0       -4.652227    4.664003    2.583610
     21          6           0       -5.275277    3.914251    1.464745
     22          6           0       -2.727117    3.885240    4.235326
     23          6           0       -4.722858    6.002512    2.843648
     24          8           0       -4.214151    6.518674    3.821535
     25          7           0       -6.921858    2.621899   -0.676374
     26          6           0       -7.038852    3.964603   -0.380298
     27          6           0       -7.868021    4.600888   -1.230387
     28          6           0       -8.448787    3.604378   -2.092286
     29          6           0       -7.893904    2.363492   -1.714259
     30          6           0       -8.302949    6.000216   -1.156756
     31          6           0       -9.384910    3.814344   -3.293994
     32          6           0       -8.599422    4.234561   -4.604336
     33          7           0       -6.284434   -0.101460   -1.109384
     34          6           0       -7.231602   -0.034392   -2.102613
     35          6           0       -7.501459   -1.330608   -2.712226
     36          6           0       -6.684583   -2.254844   -1.961008
     37          6           0       -5.914041   -1.379814   -1.042296
     38          6           0       -8.430801   -1.779998   -3.799083
     39          6           0       -6.158334   -3.550298   -1.935380
     40          8           0       -6.518723   -4.518349   -2.417724
     41          6           0       -5.027142   -3.571063   -0.889638
     42          6           0       -5.178917   -4.668119    0.232299
     43          8           0       -5.487141   -4.418318    1.377026
     44          8           0       -5.007286   -5.929662   -0.384440
     45          6           0       -5.336256   -7.034085    0.367343
     46          6           0        2.302340   -5.157006    0.689740
     47          6           0        3.370992   -4.122635    0.871309
     48          6           0        4.051765   -3.318952    0.066097
     49          6           0        3.670216   -3.211309   -1.469763
     50          6           0        5.261077   -2.482326    0.503771
     51          6           0        6.540960   -2.866346   -0.027012
     52          6           0        7.657808   -1.795438    0.378343
     53          6           0        9.014482   -2.064764   -0.197455
     54          6           0        9.585468   -3.481256    0.151836
     55          6           0        9.957599   -1.024212    0.325366
     56          6           0       11.242501   -0.854488   -0.385770
     57          6           0       12.228667    0.120900    0.238606
     58          6           0       13.501781    0.526909   -0.499043
     59          6           0       14.492602   -0.620589   -0.419108
     60          6           0       14.042057    1.883731   -0.167269
     61          6           0       15.363353    2.234114   -0.995722
     62          6           0       15.952696    3.547143   -0.533309
     63          6           0       17.175286    4.059544   -1.203936
     64          6           0       17.018132    4.195292   -2.719854
     65          6           0       17.476451    5.450339   -0.666714
     66          1           0       -2.470373    1.122095    3.607491
     67          1           0       -6.417571    5.634891    0.587694
     68          1           0       -8.617754    1.033373   -3.236678
     69          1           0       -3.323948   -3.370415    2.020568
     70          1           0       -1.772314   -1.189461    2.878451
     71          1           0       -3.139046   -2.586313    4.463203
     72          1           0       -3.359992   -0.590383    4.484115
     73          1           0       -4.658641   -1.773893    3.921356
     74          1           0       -2.371962   -2.834257   -0.283480
     75          1           0       -1.357459   -1.753129    0.388843
     76          1           0       -0.950901   -3.369927    2.547876
     77          1           0       -1.573884   -4.771755    1.368557
     78          1           0       -1.699893    3.637668    3.967565
     79          1           0       -2.855596    4.858006    4.818004
     80          1           0       -3.012017    3.234747    5.126289
     81          1           0       -5.342689    6.591641    2.117534
     82          1           0       -9.898820    2.888926   -3.417166
     83          1           0       -9.963529    4.537022   -2.954043
     84          1           0       -9.302217    4.473755   -5.406744
     85          1           0       -8.117787    5.170985   -4.595380
     86          1           0       -7.890459    3.355780   -4.947209
     87          1           0       -8.073526   -1.085380   -4.533999
     88          1           0       -8.176713   -2.880517   -4.117170
     89          1           0       -9.494949   -1.606998   -3.573556
     90          1           0       -4.195696   -3.865503   -1.512513
     91          1           0        2.683013   -6.063397    1.072408
     92          1           0        2.072336   -5.260211   -0.336216
     93          1           0        3.757607   -4.320534    1.979175
     94          1           0        2.523831   -3.377431   -1.748802
     95          1           0        3.988452   -2.132752   -1.697524
     96          1           0        4.244399   -3.817469   -2.105932
     97          1           0        4.898851   -1.336702    0.261004
     98          1           0        5.092654   -2.405802    1.647512
     99          1           0        6.902444   -3.825011    0.303931
    100          1           0        6.453340   -3.207619   -1.155338
    101          1           0        7.252110   -0.594567   -0.014085
    102          1           0        7.559159   -1.702581    1.503644
    103          1           0        8.845110   -2.106857   -1.389339
    104          1           0        8.817025   -4.311648   -0.259252
    105          1           0       10.566534   -3.677617   -0.373035
    106          1           0        9.636754   -3.684260    1.098112
    107          1           0        9.384966   -0.125731    0.325685
    108          1           0       10.000959   -1.299085    1.417115
    109          1           0       11.548255   -1.955644   -0.399014
    110          1           0       11.151382   -0.449252   -1.429318
    111          1           0       11.635652    1.166450    0.345351
    112          1           0       12.500707   -0.206146    1.331870
    113          1           0       13.258675    0.494411   -1.542306
    114          1           0       15.137643   -0.570641    0.674372
    115          1           0       14.242828   -1.736593   -0.863918
    116          1           0       15.407741   -0.323815   -1.122197
    117          1           0       13.341482    2.673250   -0.393365
    118          1           0       14.425164    1.896497    0.932202
    119          1           0       16.068966    1.377650   -1.095021
    120          1           0       15.264849    2.453222   -2.067730
    121          1           0       14.998616    4.307546   -0.785581
    122          1           0       16.216789    3.505113    0.483754
    123          1           0       17.881183    3.275977   -1.081335
    124          1           0       16.034150    4.792261   -2.990004
    125          1           0       18.000331    4.305134   -3.246625
    126          1           0       16.770268    3.182045   -3.284529
    127          1           0       17.534634    5.457934    0.634351
    128          1           0       18.538994    5.860585   -0.969404
    129          1           0       16.752810    6.215623   -0.830691
    130          1           0       -5.182926   -7.858064   -0.264010
    131          1           0       -6.297763   -7.074266    0.534274
    132          1           0       -4.849503   -7.122229    1.362089
    133          8           0       -7.760353    6.852776   -0.411641
    134          1           0       -9.080814    6.317262   -1.712800
 ---------------------------------------------------------------------

 SCF Done:  E(RCAM-B3LYP) =  -3043.47020309     A.U. after   15 cycles

 Excitation energies and oscillator strengths:

 Excited State   1:      Singlet-A      2.1611 eV  573.70 nm  f=0.1077  <S**2>=0.000
     243 -> 245       -0.30994
     243 -> 246        0.28244
     244 -> 245        0.50673
     244 -> 246        0.23671
 This state for optimization and/or second-order correction.
 Total Energy, E(TD-HF/TD-DFT) =  -3043.39078278
 Copying the excited state density for this state as the 1-particle RhoCI density.

 The electronic state is 1-A.
 Alpha  occ. eigenvalues --  -46.81065 -19.22515 -19.21932 -19.18867 -19.17573
 Alpha  occ. eigenvalues --  -19.17061 -19.16324 -19.16205 -14.38584 -14.37339
 Alpha  occ. eigenvalues --  -14.37338 -14.36344 -10.36234 -10.35531 -10.29952
 Alpha  occ. eigenvalues --  -10.29886 -10.28893 -10.27681 -10.27430 -10.27417
 Alpha  occ. eigenvalues --  -10.27173 -10.26482 -10.26478 -10.26359 -10.26258
 Alpha  occ. eigenvalues --  -10.26095 -10.25791 -10.25735 -10.25557 -10.25307
 Alpha  occ. eigenvalues --  -10.25090 -10.24848 -10.24567 -10.24078 -10.24011
 Alpha  occ. eigenvalues --  -10.23788 -10.23775 -10.23748 -10.23568 -10.23386
 Alpha  occ. eigenvalues --  -10.23311 -10.23288 -10.23211 -10.23104 -10.23077
 Alpha  occ. eigenvalues --  -10.23032 -10.22819 -10.22701 -10.22532 -10.22508
 Alpha  occ. eigenvalues --  -10.22440 -10.22333 -10.22173 -10.21969 -10.21940
 Alpha  occ. eigenvalues --  -10.21940 -10.21792 -10.21468 -10.21406 -10.21286
 Alpha  occ. eigenvalues --  -10.21267 -10.21246 -10.20844 -10.20742 -10.20504
 Alpha  occ. eigenvalues --  -10.20071  -3.09730  -1.84659  -1.84224  -1.84131
 Alpha  occ. eigenvalues --   -1.12870  -1.11556  -1.11249  -1.06397  -1.06278
 Alpha  occ. eigenvalues --   -1.05088  -1.03797  -1.00746  -0.99728  -0.98620
 Alpha  occ. eigenvalues --   -0.97724  -0.88002  -0.86462  -0.86341  -0.85572
 Alpha  occ. eigenvalues --   -0.85391  -0.84634  -0.84262  -0.83793  -0.83684
 Alpha  occ. eigenvalues --   -0.83248  -0.83121  -0.81243  -0.80706  -0.79142
 Alpha  occ. eigenvalues --   -0.78790  -0.78113  -0.77743  -0.77006  -0.76225
 Alpha  occ. eigenvalues --   -0.75372  -0.75210  -0.73597  -0.73438  -0.72486
 Alpha  occ. eigenvalues --   -0.71091  -0.70032  -0.69913  -0.69614  -0.69424
 Alpha  occ. eigenvalues --   -0.69165  -0.68584  -0.67854  -0.67806  -0.67463
 Alpha  occ. eigenvalues --   -0.66588  -0.64744  -0.64620  -0.62812  -0.62583
 Alpha  occ. eigenvalues --   -0.61156  -0.60873  -0.60232  -0.59550  -0.58870
 Alpha  occ. eigenvalues --   -0.58826  -0.58439  -0.58062  -0.57278  -0.57097
 Alpha  occ. eigenvalues --   -0.56299  -0.55533  -0.55321  -0.55019  -0.54897
 Alpha  occ. eigenvalues --   -0.53974  -0.53153  -0.52442  -0.52341  -0.51879
 Alpha  occ. eigenvalues --   -0.51721  -0.51192  -0.51161  -0.50917  -0.50768
 Alpha  occ. eigenvalues --   -0.50373  -0.50104  -0.49476  -0.49268  -0.49043
 Alpha  occ. eigenvalues --   -0.48783  -0.48722  -0.48238  -0.48069  -0.47715
 Alpha  occ. eigenvalues --   -0.47592  -0.47239  -0.47151  -0.47065  -0.46878
 Alpha  occ. eigenvalues --   -0.46704  -0.46619  -0.46432  -0.46312  -0.46220
 Alpha  occ. eigenvalues --   -0.46105  -0.45835  -0.45087  -0.44889  -0.44653
 Alpha  occ. eigenvalues --   -0.44351  -0.44002  -0.43895  -0.43668  -0.43616
 Alpha  occ. eigenvalues --   -0.43585  -0.43402  -0.43115  -0.43012  -0.42689
 Alpha  occ. eigenvalues --   -0.42581  -0.42258  -0.41958  -0.41840  -0.41763
 Alpha  occ. eigenvalues --   -0.41652  -0.41484  -0.41472  -0.41042  -0.40997
 Alpha  occ. eigenvalues --   -0.40714  -0.40503  -0.40355  -0.40278  -0.40134
 Alpha  occ. eigenvalues --   -0.39690  -0.39576  -0.39263  -0.39138  -0.38940
 Alpha  occ. eigenvalues --   -0.38712  -0.38532  -0.38348  -0.38182  -0.38147
 Alpha  occ. eigenvalues --   -0.37796  -0.37348  -0.37342  -0.37064  -0.36490
 Alpha  occ. eigenvalues --   -0.35892  -0.35766  -0.35290  -0.35074  -0.35019
 Alpha  occ. eigenvalues --   -0.34876  -0.34716  -0.34537  -0.34512  -0.34118
 Alpha  occ. eigenvalues --   -0.33987  -0.33857  -0.33480  -0.33376  -0.33143
 Alpha  occ. eigenvalues --   -0.32845  -0.32418  -0.32361  -0.32164  -0.31802
 Alpha  occ. eigenvalues --   -0.31709  -0.31413  -0.30839  -0.30672  -0.29999
 Alpha  occ. eigenvalues --   -0.28655  -0.28377  -0.28158  -0.27579  -0.27546
 Alpha  occ. eigenvalues --   -0.27237  -0.27065  -0.23201  -0.22217
 Alpha virt. eigenvalues --   -0.08535  -0.07236  -0.01585  -0.01161   0.00849
 Alpha virt. eigenvalues --    0.02370   0.02586   0.03736   0.04486   0.04531
 Alpha virt. eigenvalues --    0.04868   0.05770   0.08051   0.08486   0.09080

 Mulliken charges:
               1
     1  Mg   0.822464
     2  C    0.049085
     3  C   -0.227384
     4  C   -0.196088
     5  C   -0.141817
     6  N   -0.640943
     7  C    0.308705
     8  C   -0.134478
     9  C   -0.176323
    10  C    0.380848
    11  C   -0.290313
    12  C   -0.154190
    13  C   -0.272533
    14  C    0.609546
    15  O   -0.463107
    16  O   -0.482865
    17  N   -0.709765
    18  C    0.345291
    19  C    0.028991
    20  C    0.051820
    21  C    0.323058
    22  C   -0.394734
    23  C    0.213459
    24  O   -0.427688
    25  N   -0.685434
    26  C    0.301347
    27  C   -0.032585
    28  C   -0.017151
    29  C    0.286161
    30  C    0.257796
    31  C   -0.213914
    32  C   -0.315963
    33  N   -0.731071
    34  C    0.247421
    35  C    0.017551
    36  C    0.001405
    37  C    0.279785
    38  C   -0.375291
    39  C    0.338713
    40  O   -0.408078
    41  C   -0.309563
    42  C    0.617450
    43  O   -0.446623
    44  O   -0.447138
    45  C   -0.081284
    46  C    0.015565
    47  C   -0.124336
    48  C    0.112413
    49  C   -0.375266
    50  C   -0.213106
    51  C   -0.168221
    52  C   -0.151041
    53  C   -0.049963
    54  C   -0.312145
    55  C   -0.151742
    56  C   -0.159359
    57  C   -0.154316
    58  C   -0.034529
    59  C   -0.293660
    60  C   -0.162071
    61  C   -0.197105
    62  C   -0.139075
    63  C   -0.040287
    64  C   -0.311141
    65  C   -0.279157
    66  H    0.083600
    67  H    0.146145
    68  H    0.089492
    69  H    0.100380
    70  H    0.102489
    71  H    0.122290
    72  H    0.098233
    73  H    0.130852
    74  H    0.110576
    75  H    0.123918
    76  H    0.130129
    77  H    0.136093
    78  H    0.132443
    79  H    0.154405
    80  H    0.116026
    81  H    0.080697
    82  H    0.113242
    83  H    0.119739
    84  H    0.111753
    85  H    0.127160
    86  H    0.103350
    87  H    0.131868
    88  H    0.147164
    89  H    0.137307
    90  H    0.158513
    91  H    0.120374
    92  H    0.120175
    93  H    0.055480
    94  H    0.138329
    95  H    0.095964
    96  H    0.122490
    97  H    0.081172
    98  H    0.094345
    99  H    0.112672
   100  H    0.084984
   101  H    0.045672
   102  H    0.095753
   103  H    0.071399
   104  H    0.071906
   105  H    0.105463
   106  H    0.121125
   107  H    0.089197
   108  H    0.085215
   109  H    0.079131
   110  H    0.088750
   111  H    0.056904
   112  H    0.072508
   113  H    0.090235
   114  H    0.064714
   115  H    0.096030
   116  H    0.081115
   117  H    0.103802
   118  H    0.085877
   119  H    0.084636
   120  H    0.091219
   121  H    0.047385
   122  H    0.094237
   123  H    0.097484
   124  H    0.095124
   125  H    0.105635
   126  H    0.076846
   127  H    0.045436
   128  H    0.088876
   129  H    0.122063
   130  H    0.122924
   131  H    0.130515
   132  H    0.109966
   133  O   -0.446579
   134  H    0.079561
 Sum of Mulliken charges =  -0.00000

 Dipole moment (field-independent basis, Debye):
    X=              0.7281    Y=             -4.9024    Z=             -2.9646  Tot=              5.7752
 Quadrupole moment (field-independent basis, Debye-Ang):
   XX=           -361.6397   YY=           -436.3883   ZZ=           -392.8703
   XY=              4.4606   XZ=             26.8455   YZ=            -35.2689

 Normal termination of Gaussian 16 at Fri Oct  4 13:04:37 2019.
