 Gaussian 16, Revision A.03,
 Gaussian 16:  ES64L-G16RevA.03 25-Dec-2016

 ----------------------------------------------------------------------
 # td=(NStates=1) iop(3/107=0140000000,3/108=0140000000) iop(3/107=0140
 000000,3/108=0140000000) CAM-B3LYP/6-31G(d,p)
 ----------------------------------------------------------------------

 --
 TD
 --
 Symbolic Z-matrix:
 Charge =  0 Multiplicity = 1

                         Standard orientation:
 ---------------------------------------------------------------------
 Center     Atomic      Atomic             Coordinates (Angstroms)
 Number     Number       Type             X           Y           Z
 ---------------------------------------------------------------------
      1         12           0       -5.610516    1.204197    0.217144
      2          6           0       -4.995701   -2.136901   -0.351508
      3          6           0       -3.409763    1.227169    2.733771
      4          6           0       -6.198475    4.514920    0.660774
      5          6           0       -7.951601    1.161710   -2.375084
      6          7           0       -4.371097   -0.236944    1.043148
      7          6           0       -4.298606   -1.602424    0.637592
      8          6           0       -3.146621   -2.278797    1.410814
      9          6           0       -2.976545   -1.327373    2.613316
     10          6           0       -3.573814   -0.113647    2.119975
     11          6           0       -3.624807   -1.909632    3.836226
     12          6           0       -1.892736   -2.648750    0.626673
     13          6           0       -0.904822   -3.511644    1.470349
     14          6           0        0.307443   -3.861418    0.590044
     15          8           0        0.546444   -3.472829   -0.492353
     16          8           0        1.046807   -4.772590    1.304396
     17          7           0       -4.889184    2.588329    1.414957
     18          6           0       -3.984253    2.396646    2.458322
     19          6           0       -3.733990    3.623694    3.185152
     20          6           0       -4.578085    4.614391    2.631290
     21          6           0       -5.298848    3.840424    1.524889
     22          6           0       -2.604029    3.677839    4.253197
     23          6           0       -4.620154    6.031657    2.931893
     24          8           0       -4.059032    6.584068    3.887525
     25          7           0       -6.860905    2.603080   -0.730877
     26          6           0       -6.963112    3.920076   -0.351159
     27          6           0       -8.023075    4.617663   -1.135892
     28          6           0       -8.430316    3.660009   -2.056145
     29          6           0       -7.798013    2.415143   -1.739680
     30          6           0       -8.333666    5.986205   -1.061217
     31          6           0       -9.443471    3.947855   -3.129597
     32          6           0       -8.785440    4.362839   -4.446802
     33          7           0       -6.284393   -0.097452   -1.106648
     34          6           0       -7.308262   -0.073860   -2.015240
     35          6           0       -7.518803   -1.355722   -2.768888
     36          6           0       -6.650984   -2.099270   -2.093927
     37          6           0       -5.956907   -1.381625   -1.097631
     38          6           0       -8.593199   -1.725373   -3.819951
     39          6           0       -6.100490   -3.535642   -2.026855
     40          8           0       -6.507093   -4.506815   -2.697347
     41          6           0       -5.013295   -3.512651   -0.884946
     42          6           0       -5.224577   -4.697889    0.146865
     43          8           0       -5.620718   -4.581107    1.227468
     44          8           0       -4.827192   -5.775207   -0.485189
     45          6           0       -5.130765   -7.052329    0.317774
     46          6           0        2.305271   -5.180651    0.733038
     47          6           0        3.433325   -4.202663    0.940119
     48          6           0        4.072968   -3.377481    0.142017
     49          6           0        3.695798   -3.244188   -1.328274
     50          6           0        5.181871   -2.460765    0.708711
     51          6           0        6.609994   -2.628742    0.106690
     52          6           0        7.711988   -1.957342    0.705724
     53          6           0        8.986659   -2.081269   -0.017472
     54          6           0        9.676328   -3.395971    0.272247
     55          6           0        9.962160   -0.996062    0.412646
     56          6           0       11.321675   -0.951321   -0.237523
     57          6           0       12.076080    0.303778    0.076696
     58          6           0       13.449617    0.548324   -0.700283
     59          6           0       14.480756   -0.573326   -0.348236
     60          6           0       14.129340    1.882694   -0.291034
     61          6           0       15.391043    2.242808   -1.026848
     62          6           0       15.826001    3.673764   -0.612178
     63          6           0       17.094423    4.107926   -1.311788
     64          6           0       16.949796    4.140788   -2.918893
     65          6           0       17.622120    5.355177   -0.784039
     66          1           0       -2.603243    1.188285    3.426152
     67          1           0       -6.514031    5.566445    0.735179
     68          1           0       -8.927244    1.169038   -3.065827
     69          1           0       -3.526636   -3.159584    1.641831
     70          1           0       -2.023554   -1.204011    2.845636
     71          1           0       -3.144328   -2.895211    4.043191
     72          1           0       -3.523997   -1.211985    4.772067
     73          1           0       -4.732746   -2.126449    3.521640
     74          1           0       -2.020612   -3.177307   -0.202616
     75          1           0       -1.385992   -1.974410    0.232356
     76          1           0       -0.318683   -3.203955    2.265359
     77          1           0       -1.297622   -4.466625    2.040691
     78          1           0       -1.711907    3.740917    3.856472
     79          1           0       -2.676863    4.622521    4.732701
     80          1           0       -2.769674    3.091703    5.124887
     81          1           0       -5.090987    6.747590    2.193011
     82          1           0      -10.101424    3.059588   -3.259672
     83          1           0      -10.259711    4.658960   -2.859121
     84          1           0       -9.536754    4.348244   -5.224666
     85          1           0       -8.293178    5.404878   -4.230522
     86          1           0       -7.999652    3.623356   -4.572840
     87          1           0       -8.399387   -1.195746   -4.621185
     88          1           0       -8.359356   -2.656805   -4.145041
     89          1           0       -9.507438   -1.758557   -3.446553
     90          1           0       -3.956680   -3.549416   -1.353997
     91          1           0        2.424418   -6.162489    1.129884
     92          1           0        2.129169   -5.215106   -0.375350
     93          1           0        3.562028   -4.000529    2.001039
     94          1           0        2.639627   -3.818586   -1.659251
     95          1           0        3.736152   -2.056786   -1.526757
     96          1           0        4.584824   -3.802547   -1.853294
     97          1           0        5.010034   -1.402141    0.692608
     98          1           0        5.245668   -2.590014    1.747166
     99          1           0        6.789782   -3.859585    0.159668
    100          1           0        6.472525   -2.531328   -0.805495
    101          1           0        7.298810   -0.847125    0.612781
    102          1           0        7.774870   -2.368264    1.738737
    103          1           0        8.841393   -1.999628   -1.050019
    104          1           0        9.140737   -4.183186   -0.140873
    105          1           0       10.782357   -3.306264   -0.193257
    106          1           0        9.964991   -3.710197    1.207514
    107          1           0        9.198312   -0.143452    0.376385
    108          1           0       10.240878   -1.296782    1.390692
    109          1           0       11.860045   -1.667296   -0.047674
    110          1           0       11.094369   -0.973638   -1.319530
    111          1           0       11.323496    1.121479    0.036381
    112          1           0       12.475193    0.219048    1.086168
    113          1           0       13.156452    0.433099   -1.683128
    114          1           0       14.620598   -0.603807    0.736985
    115          1           0       13.869433   -1.436093   -0.491529
    116          1           0       15.340553   -0.659387   -1.002426
    117          1           0       13.301503    2.608978   -0.409611
    118          1           0       14.415265    1.972774    0.745951
    119          1           0       16.208166    1.484346   -0.869816
    120          1           0       14.961737    2.265388   -2.113494
    121          1           0       15.236545    4.607420   -0.760886
    122          1           0       15.934042    3.640479    0.487169
    123          1           0       17.922039    3.345252   -1.112173
    124          1           0       15.944436    4.738526   -3.111007
    125          1           0       17.750930    4.585636   -3.533411
    126          1           0       16.906262    3.016592   -3.272388
    127          1           0       17.702617    5.429980    0.373678
    128          1           0       18.551449    5.653720   -1.086341
    129          1           0       17.047593    6.190069   -1.169352
    130          1           0       -4.933062   -7.797058   -0.198024
    131          1           0       -6.276791   -7.080419    0.452580
    132          1           0       -4.347262   -7.255143    1.312534
    133          8           0       -7.731313    6.741122   -0.276944
    134          1           0       -9.143077    6.357402   -1.536495
 ---------------------------------------------------------------------

 SCF Done:  E(RCAM-B3LYP) =  -3043.40633499     A.U. after   16 cycles

 Excitation energies and oscillator strengths:

 Excited State   1:      Singlet-A      1.9948 eV  621.54 nm  f=0.1759  <S**2>=0.000
     243 -> 246        0.23327
     244 -> 245        0.66223
 This state for optimization and/or second-order correction.
 Total Energy, E(TD-HF/TD-DFT) =  -3043.33302830
 Copying the excited state density for this state as the 1-particle RhoCI density.

 The electronic state is 1-A.
 Alpha  occ. eigenvalues --  -46.80381 -19.24041 -19.21903 -19.18595 -19.18322
 Alpha  occ. eigenvalues --  -19.17341 -19.16247 -19.15816 -14.39057 -14.36848
 Alpha  occ. eigenvalues --  -14.36460 -14.35972 -10.35607 -10.35238 -10.31948
 Alpha  occ. eigenvalues --  -10.29805 -10.29388 -10.28477 -10.28091 -10.27494
 Alpha  occ. eigenvalues --  -10.26599 -10.26306 -10.26259 -10.25888 -10.25592
 Alpha  occ. eigenvalues --  -10.25428 -10.25351 -10.25137 -10.25122 -10.24918
 Alpha  occ. eigenvalues --  -10.24288 -10.24255 -10.24196 -10.24078 -10.23936
 Alpha  occ. eigenvalues --  -10.23764 -10.23608 -10.23224 -10.23145 -10.22968
 Alpha  occ. eigenvalues --  -10.22949 -10.22290 -10.22217 -10.21981 -10.21820
 Alpha  occ. eigenvalues --  -10.21504 -10.21468 -10.21464 -10.21454 -10.21413
 Alpha  occ. eigenvalues --  -10.21297 -10.21288 -10.20998 -10.20947 -10.20735
 Alpha  occ. eigenvalues --  -10.20625 -10.20360 -10.20315 -10.20241 -10.20090
 Alpha  occ. eigenvalues --  -10.19934 -10.19745 -10.19580 -10.19557 -10.18910
 Alpha  occ. eigenvalues --  -10.18867  -3.09251  -1.84168  -1.83744  -1.83670
 Alpha  occ. eigenvalues --   -1.15800  -1.14255  -1.07638  -1.06701  -1.05123
 Alpha  occ. eigenvalues --   -1.04922  -1.04774  -1.01357  -1.00168  -0.99395
 Alpha  occ. eigenvalues --   -0.97830  -0.88798  -0.87910  -0.87141  -0.85654
 Alpha  occ. eigenvalues --   -0.85007  -0.84891  -0.84414  -0.83771  -0.83733
 Alpha  occ. eigenvalues --   -0.83266  -0.82354  -0.82048  -0.81480  -0.79709
 Alpha  occ. eigenvalues --   -0.79031  -0.78564  -0.77933  -0.77271  -0.77108
 Alpha  occ. eigenvalues --   -0.76090  -0.75580  -0.74847  -0.73530  -0.72787
 Alpha  occ. eigenvalues --   -0.71570  -0.70547  -0.70532  -0.70427  -0.69866
 Alpha  occ. eigenvalues --   -0.69531  -0.69379  -0.68222  -0.67398  -0.66347
 Alpha  occ. eigenvalues --   -0.66251  -0.65577  -0.63754  -0.63064  -0.62949
 Alpha  occ. eigenvalues --   -0.61197  -0.61061  -0.60690  -0.60288  -0.59195
 Alpha  occ. eigenvalues --   -0.58926  -0.58530  -0.58154  -0.57780  -0.57605
 Alpha  occ. eigenvalues --   -0.56181  -0.55568  -0.55345  -0.54880  -0.54810
 Alpha  occ. eigenvalues --   -0.54536  -0.53756  -0.53290  -0.52929  -0.52567
 Alpha  occ. eigenvalues --   -0.52303  -0.52146  -0.51752  -0.51507  -0.51322
 Alpha  occ. eigenvalues --   -0.51193  -0.50370  -0.50075  -0.49933  -0.49769
 Alpha  occ. eigenvalues --   -0.49033  -0.48768  -0.48464  -0.48327  -0.47954
 Alpha  occ. eigenvalues --   -0.47823  -0.47758  -0.47423  -0.47108  -0.46864
 Alpha  occ. eigenvalues --   -0.46714  -0.46439  -0.46135  -0.46000  -0.45833
 Alpha  occ. eigenvalues --   -0.45555  -0.45437  -0.45315  -0.45255  -0.44852
 Alpha  occ. eigenvalues --   -0.44849  -0.44618  -0.44596  -0.44507  -0.44245
 Alpha  occ. eigenvalues --   -0.44110  -0.43747  -0.43491  -0.43352  -0.43063
 Alpha  occ. eigenvalues --   -0.42871  -0.42359  -0.42278  -0.42173  -0.42138
 Alpha  occ. eigenvalues --   -0.41860  -0.41208  -0.40659  -0.40621  -0.40488
 Alpha  occ. eigenvalues --   -0.40389  -0.40256  -0.40228  -0.40146  -0.40037
 Alpha  occ. eigenvalues --   -0.39764  -0.39599  -0.39435  -0.39148  -0.39081
 Alpha  occ. eigenvalues --   -0.38942  -0.38873  -0.38751  -0.38661  -0.38609
 Alpha  occ. eigenvalues --   -0.38465  -0.38124  -0.38083  -0.38060  -0.37862
 Alpha  occ. eigenvalues --   -0.37573  -0.37301  -0.37030  -0.36309  -0.36153
 Alpha  occ. eigenvalues --   -0.35767  -0.35343  -0.35323  -0.35135  -0.34864
 Alpha  occ. eigenvalues --   -0.34622  -0.34427  -0.34016  -0.33491  -0.33157
 Alpha  occ. eigenvalues --   -0.32777  -0.32351  -0.32336  -0.32230  -0.32033
 Alpha  occ. eigenvalues --   -0.31718  -0.31530  -0.30662  -0.30233  -0.29679
 Alpha  occ. eigenvalues --   -0.29167  -0.28319  -0.27716  -0.27635  -0.27493
 Alpha  occ. eigenvalues --   -0.27288  -0.26989  -0.22861  -0.20464
 Alpha virt. eigenvalues --   -0.07633  -0.06240  -0.01433  -0.00571   0.00414
 Alpha virt. eigenvalues --    0.03680   0.03956   0.04409   0.04643   0.04779
 Alpha virt. eigenvalues --    0.04978   0.06184   0.08311   0.08638   0.09123

 Mulliken charges:
               1
     1  Mg   0.819514
     2  C    0.093527
     3  C   -0.241990
     4  C   -0.186034
     5  C   -0.175628
     6  N   -0.632989
     7  C    0.257183
     8  C   -0.132531
     9  C   -0.132485
    10  C    0.363493
    11  C   -0.298729
    12  C   -0.153169
    13  C   -0.282684
    14  C    0.597595
    15  O   -0.441107
    16  O   -0.486154
    17  N   -0.713922
    18  C    0.362514
    19  C    0.030849
    20  C   -0.017126
    21  C    0.326396
    22  C   -0.385643
    23  C    0.218777
    24  O   -0.424106
    25  N   -0.681612
    26  C    0.285207
    27  C   -0.008653
    28  C    0.031402
    29  C    0.283784
    30  C    0.243386
    31  C   -0.266396
    32  C   -0.295171
    33  N   -0.692887
    34  C    0.203638
    35  C   -0.024400
    36  C    0.020614
    37  C    0.308554
    38  C   -0.348894
    39  C    0.381647
    40  O   -0.471200
    41  C   -0.336280
    42  C    0.621099
    43  O   -0.432634
    44  O   -0.432915
    45  C   -0.080201
    46  C    0.007762
    47  C   -0.138961
    48  C    0.152541
    49  C   -0.353179
    50  C   -0.242561
    51  C   -0.149531
    52  C   -0.145534
    53  C   -0.051080
    54  C   -0.325569
    55  C   -0.162393
    56  C   -0.158853
    57  C   -0.188857
    58  C   -0.071952
    59  C   -0.328238
    60  C   -0.160238
    61  C   -0.173862
    62  C   -0.154257
    63  C   -0.047790
    64  C   -0.308346
    65  C   -0.308303
    66  H    0.078059
    67  H    0.140235
    68  H    0.087392
    69  H    0.109279
    70  H    0.107439
    71  H    0.114496
    72  H    0.104369
    73  H    0.120785
    74  H    0.121715
    75  H    0.122891
    76  H    0.144467
    77  H    0.122114
    78  H    0.142443
    79  H    0.152282
    80  H    0.127729
    81  H    0.091330
    82  H    0.100930
    83  H    0.108946
    84  H    0.115544
    85  H    0.103697
    86  H    0.121596
    87  H    0.132681
    88  H    0.148398
    89  H    0.141644
    90  H    0.160456
    91  H    0.120361
    92  H    0.101308
    93  H    0.072679
    94  H    0.128632
    95  H    0.104105
    96  H    0.107193
    97  H    0.098133
    98  H    0.100468
    99  H    0.043351
   100  H    0.104800
   101  H    0.062179
   102  H    0.095757
   103  H    0.087930
   104  H    0.105946
   105  H    0.073940
   106  H    0.113746
   107  H    0.071499
   108  H    0.092305
   109  H    0.101276
   110  H    0.077080
   111  H    0.086928
   112  H    0.085268
   113  H    0.088949
   114  H    0.102047
   115  H    0.095966
   116  H    0.111206
   117  H    0.083724
   118  H    0.082664
   119  H    0.098408
   120  H    0.087046
   121  H    0.088764
   122  H    0.087591
   123  H    0.067839
   124  H    0.083843
   125  H    0.105866
   126  H    0.095782
   127  H    0.082142
   128  H    0.108882
   129  H    0.091336
   130  H    0.144109
   131  H    0.142382
   132  H    0.103665
   133  O   -0.447714
   134  H    0.075263
 Sum of Mulliken charges =  -0.00000

 Dipole moment (field-independent basis, Debye):
    X=              2.1563    Y=             -7.0549    Z=             -0.6458  Tot=              7.4053
 Quadrupole moment (field-independent basis, Debye-Ang):
   XX=           -373.4431   YY=           -431.1653   ZZ=           -397.0695
   XY=             16.4858   XZ=             24.3837   YZ=            -37.3809

 Normal termination of Gaussian 16 at Tue Oct  8 22:37:48 2019.
