 Gaussian 16, Revision A.03,
 Gaussian 16:  ES64L-G16RevA.03 25-Dec-2016

 ----------------------------------------------------------------------
 # td=(NStates=1) iop(3/107=0140000000,3/108=0140000000) iop(3/107=0140
 000000,3/108=0140000000) CAM-B3LYP/6-31G(d,p)
 ----------------------------------------------------------------------

 --
 TD
 --
 Symbolic Z-matrix:
 Charge =  0 Multiplicity = 1

                         Standard orientation:
 ---------------------------------------------------------------------
 Center     Atomic      Atomic             Coordinates (Angstroms)
 Number     Number       Type             X           Y           Z
 ---------------------------------------------------------------------
      1         12           0       -5.468884    1.263854    0.173770
      2          6           0       -5.057464   -2.138836   -0.367117
      3          6           0       -3.335402    1.197110    2.679409
      4          6           0       -6.120855    4.541691    0.643509
      5          6           0       -7.941921    1.230158   -2.373887
      6          7           0       -4.272692   -0.285982    0.985555
      7          6           0       -4.219608   -1.613480    0.590259
      8          6           0       -3.184957   -2.394085    1.530363
      9          6           0       -2.969615   -1.320855    2.606465
     10          6           0       -3.628405   -0.042095    2.108319
     11          6           0       -3.531271   -1.775778    4.059887
     12          6           0       -2.031439   -2.636554    0.667528
     13          6           0       -1.028092   -3.582183    1.359086
     14          6           0        0.172929   -3.941990    0.478765
     15          8           0        0.326745   -3.614300   -0.611630
     16          8           0        1.006369   -4.838803    1.201777
     17          7           0       -4.828616    2.620464    1.470860
     18          6           0       -3.830199    2.383825    2.419175
     19          6           0       -3.675975    3.691916    3.189281
     20          6           0       -4.449367    4.599536    2.563580
     21          6           0       -5.182991    4.009283    1.523194
     22          6           0       -2.755583    3.901052    4.399262
     23          6           0       -4.530309    6.015910    2.811380
     24          8           0       -3.939477    6.591412    3.791590
     25          7           0       -6.805937    2.654657   -0.647789
     26          6           0       -6.939126    3.884923   -0.314962
     27          6           0       -7.880968    4.656356   -1.231894
     28          6           0       -8.433284    3.661449   -2.063681
     29          6           0       -7.692142    2.450011   -1.754646
     30          6           0       -8.158556    5.989173   -1.245838
     31          6           0       -9.357647    3.844213   -3.203548
     32          6           0       -8.680926    4.133698   -4.571133
     33          7           0       -6.312230   -0.041262   -1.115400
     34          6           0       -7.306290    0.022581   -2.137672
     35          6           0       -7.638763   -1.250738   -2.698953
     36          6           0       -6.790741   -2.207416   -2.054910
     37          6           0       -6.051072   -1.381204   -1.069100
     38          6           0       -8.768697   -1.450600   -3.631562
     39          6           0       -6.356896   -3.574498   -1.926312
     40          8           0       -6.800647   -4.518574   -2.530747
     41          6           0       -5.196994   -3.598037   -0.837737
     42          6           0       -5.384237   -4.626071    0.326314
     43          8           0       -5.733540   -4.391708    1.348461
     44          8           0       -5.277118   -5.920362   -0.224063
     45          6           0       -5.523659   -6.832389    0.719861
     46          6           0        2.233186   -5.061427    0.624399
     47          6           0        3.354207   -4.147178    1.032490
     48          6           0        4.043183   -3.265335    0.116704
     49          6           0        3.691067   -3.169418   -1.347532
     50          6           0        5.156323   -2.511666    0.604935
     51          6           0        6.600037   -2.707673   -0.152326
     52          6           0        7.619409   -1.890434    0.489312
     53          6           0        9.026193   -1.968254   -0.285903
     54          6           0        9.329380   -3.468562   -0.048322
     55          6           0       10.012717   -1.005387    0.287175
     56          6           0       11.373832   -0.874203   -0.393197
     57          6           0       12.125379    0.333002    0.014072
     58          6           0       13.552604    0.527849   -0.644519
     59          6           0       14.414147   -0.671420   -0.492524
     60          6           0       14.232337    1.777513   -0.049691
     61          6           0       15.522372    2.116831   -0.918144
     62          6           0       16.144297    3.445286   -0.482737
     63          6           0       17.455794    3.764353   -1.170157
     64          6           0       17.297669    4.002384   -2.687950
     65          6           0       18.045022    5.071213   -0.537454
     66          1           0       -2.636990    1.278806    3.548644
     67          1           0       -6.208845    5.565446    0.858934
     68          1           0       -8.521751    1.333357   -3.193344
     69          1           0       -3.801556   -3.122263    1.830924
     70          1           0       -1.773827   -1.127723    2.782862
     71          1           0       -3.169455   -2.566294    4.534005
     72          1           0       -3.497147   -1.017971    4.919914
     73          1           0       -4.530776   -2.009240    3.805279
     74          1           0       -2.507138   -3.228640   -0.176642
     75          1           0       -1.422898   -1.699484    0.450733
     76          1           0       -0.556696   -3.068904    2.223467
     77          1           0       -1.350091   -4.520783    1.445525
     78          1           0       -1.720393    3.566729    4.209155
     79          1           0       -3.008576    4.979716    4.645615
     80          1           0       -3.053089    3.151672    5.082699
     81          1           0       -5.174848    6.625973    2.171511
     82          1           0      -10.023133    3.052630   -3.367068
     83          1           0       -9.775457    4.637291   -3.054422
     84          1           0       -9.506811    4.018213   -5.294490
     85          1           0       -8.296735    5.134899   -4.429333
     86          1           0       -7.998201    3.198753   -4.676680
     87          1           0       -8.696786   -0.910667   -4.495671
     88          1           0       -8.595761   -2.417836   -3.785108
     89          1           0       -9.568078   -1.205609   -3.229498
     90          1           0       -4.402518   -3.761326   -1.368719
     91          1           0        2.567478   -6.135919    1.024572
     92          1           0        2.121308   -5.247940   -0.494333
     93          1           0        3.658980   -4.336309    2.055257
     94          1           0        2.594027   -3.536013   -1.481809
     95          1           0        3.815953   -2.136605   -1.717096
     96          1           0        4.177903   -3.897822   -2.128190
     97          1           0        5.112870   -1.344136    0.452567
     98          1           0        5.328557   -2.676295    1.728056
     99          1           0        6.848833   -3.773864    0.097780
    100          1           0        6.468073   -2.556224   -1.147205
    101          1           0        7.295968   -0.858250    0.313206
    102          1           0        7.794448   -1.994819    1.460584
    103          1           0        8.868526   -1.670722   -1.371610
    104          1           0        8.675167   -4.077917   -0.510761
    105          1           0       10.389827   -3.830921   -0.397788
    106          1           0        9.367682   -3.781984    1.069856
    107          1           0        9.619044    0.022637    0.390983
    108          1           0       10.235439   -1.340909    1.436648
    109          1           0       11.763134   -1.854044   -0.241484
    110          1           0       11.165318   -0.979702   -1.491413
    111          1           0       11.601510    1.264508   -0.022295
    112          1           0       12.337735    0.096364    1.017313
    113          1           0       13.455385    0.962089   -1.759072
    114          1           0       14.949576   -0.541132    0.634209
    115          1           0       13.876320   -1.665017   -0.605377
    116          1           0       15.266302   -0.709338   -1.366247
    117          1           0       13.396433    2.600964    0.098293
    118          1           0       14.407853    1.570085    1.040028
    119          1           0       16.280280    1.429200   -0.875162
    120          1           0       15.234373    2.147259   -1.878127
    121          1           0       15.443890    4.181190   -0.792292
    122          1           0       16.472727    3.495018    0.624802
    123          1           0       18.097077    2.805026   -0.865943
    124          1           0       16.781329    4.824411   -2.909041
    125          1           0       18.372183    4.290167   -3.131407
    126          1           0       16.881662    3.102244   -3.359115
    127          1           0       18.115585    5.014319    0.698325
    128          1           0       18.917097    5.385490   -0.885359
    129          1           0       17.331719    6.057688   -0.853877
    130          1           0       -5.233640   -7.783494    0.327374
    131          1           0       -6.480414   -6.870466    1.009761
    132          1           0       -4.922565   -6.727540    1.595755
    133          8           0       -7.747091    6.963436   -0.475736
    134          1           0       -8.784184    6.360494   -2.071612
 ---------------------------------------------------------------------

 SCF Done:  E(RCAM-B3LYP) =  -3043.40068025     A.U. after   16 cycles

 Excitation energies and oscillator strengths:

 Excited State   1:      Singlet-A      2.1685 eV  571.75 nm  f=0.1316  <S**2>=0.000
     243 -> 245        0.13249
     243 -> 246        0.30299
     244 -> 245        0.60817
 This state for optimization and/or second-order correction.
 Total Energy, E(TD-HF/TD-DFT) =  -3043.32098977
 Copying the excited state density for this state as the 1-particle RhoCI density.

 The electronic state is 1-A.
 Alpha  occ. eigenvalues --  -46.81470 -19.21851 -19.21363 -19.20430 -19.18974
 Alpha  occ. eigenvalues --  -19.17557 -19.17056 -19.15200 -14.39597 -14.37722
 Alpha  occ. eigenvalues --  -14.37415 -14.36493 -10.35944 -10.34953 -10.31625
 Alpha  occ. eigenvalues --  -10.30901 -10.28847 -10.28824 -10.27793 -10.27589
 Alpha  occ. eigenvalues --  -10.27325 -10.27037 -10.26717 -10.26703 -10.26399
 Alpha  occ. eigenvalues --  -10.26296 -10.25991 -10.25840 -10.25634 -10.25580
 Alpha  occ. eigenvalues --  -10.24602 -10.24582 -10.24549 -10.24430 -10.24199
 Alpha  occ. eigenvalues --  -10.24168 -10.23679 -10.23303 -10.23252 -10.23125
 Alpha  occ. eigenvalues --  -10.23093 -10.23001 -10.22990 -10.22829 -10.22766
 Alpha  occ. eigenvalues --  -10.22756 -10.22560 -10.22490 -10.22330 -10.22210
 Alpha  occ. eigenvalues --  -10.22184 -10.22073 -10.22050 -10.22027 -10.21636
 Alpha  occ. eigenvalues --  -10.21369 -10.21354 -10.21291 -10.20786 -10.20776
 Alpha  occ. eigenvalues --  -10.20113 -10.20040 -10.19986 -10.19612 -10.19395
 Alpha  occ. eigenvalues --  -10.19370  -3.10151  -1.85082  -1.84627  -1.84565
 Alpha  occ. eigenvalues --   -1.18917  -1.15042  -1.10031  -1.07662  -1.07619
 Alpha  occ. eigenvalues --   -1.04078  -1.01404  -1.01149  -1.00203  -0.98659
 Alpha  occ. eigenvalues --   -0.98089  -0.88946  -0.87503  -0.87280  -0.86214
 Alpha  occ. eigenvalues --   -0.85750  -0.85171  -0.85102  -0.84184  -0.83941
 Alpha  occ. eigenvalues --   -0.83451  -0.83194  -0.81966  -0.81011  -0.80510
 Alpha  occ. eigenvalues --   -0.80277  -0.78808  -0.77929  -0.77713  -0.76789
 Alpha  occ. eigenvalues --   -0.76388  -0.75475  -0.74457  -0.73840  -0.73526
 Alpha  occ. eigenvalues --   -0.70818  -0.70637  -0.70615  -0.70239  -0.70098
 Alpha  occ. eigenvalues --   -0.69239  -0.69182  -0.68408  -0.67509  -0.66968
 Alpha  occ. eigenvalues --   -0.66585  -0.65097  -0.64485  -0.63660  -0.62935
 Alpha  occ. eigenvalues --   -0.62765  -0.61847  -0.61342  -0.60554  -0.58754
 Alpha  occ. eigenvalues --   -0.58582  -0.58117  -0.57811  -0.57686  -0.57421
 Alpha  occ. eigenvalues --   -0.56664  -0.56581  -0.56063  -0.55994  -0.55627
 Alpha  occ. eigenvalues --   -0.55255  -0.54385  -0.54247  -0.54054  -0.53291
 Alpha  occ. eigenvalues --   -0.53089  -0.52457  -0.52429  -0.51877  -0.51726
 Alpha  occ. eigenvalues --   -0.51468  -0.50659  -0.50484  -0.50060  -0.49970
 Alpha  occ. eigenvalues --   -0.49408  -0.49089  -0.48962  -0.48899  -0.48389
 Alpha  occ. eigenvalues --   -0.48189  -0.47884  -0.47724  -0.47421  -0.47273
 Alpha  occ. eigenvalues --   -0.47201  -0.46794  -0.46759  -0.46448  -0.46380
 Alpha  occ. eigenvalues --   -0.46121  -0.45766  -0.45682  -0.45509  -0.45259
 Alpha  occ. eigenvalues --   -0.45060  -0.45028  -0.44548  -0.44367  -0.44269
 Alpha  occ. eigenvalues --   -0.44208  -0.43995  -0.43725  -0.43548  -0.43356
 Alpha  occ. eigenvalues --   -0.43008  -0.42651  -0.42597  -0.42375  -0.42181
 Alpha  occ. eigenvalues --   -0.41877  -0.41685  -0.41625  -0.41427  -0.41255
 Alpha  occ. eigenvalues --   -0.41107  -0.40750  -0.40736  -0.40490  -0.40418
 Alpha  occ. eigenvalues --   -0.40178  -0.39957  -0.39736  -0.39292  -0.39271
 Alpha  occ. eigenvalues --   -0.39004  -0.38754  -0.38744  -0.38695  -0.38463
 Alpha  occ. eigenvalues --   -0.38185  -0.37977  -0.37666  -0.37445  -0.37377
 Alpha  occ. eigenvalues --   -0.37350  -0.36981  -0.36805  -0.36592  -0.36288
 Alpha  occ. eigenvalues --   -0.35676  -0.35617  -0.35417  -0.35297  -0.34881
 Alpha  occ. eigenvalues --   -0.34670  -0.34240  -0.33927  -0.33640  -0.33448
 Alpha  occ. eigenvalues --   -0.33165  -0.32997  -0.32565  -0.32410  -0.32339
 Alpha  occ. eigenvalues --   -0.32057  -0.31476  -0.30996  -0.30478  -0.30422
 Alpha  occ. eigenvalues --   -0.28853  -0.28500  -0.28230  -0.28153  -0.27836
 Alpha  occ. eigenvalues --   -0.26471  -0.25286  -0.23527  -0.22204
 Alpha virt. eigenvalues --   -0.08434  -0.07320  -0.02922  -0.01673   0.00242
 Alpha virt. eigenvalues --    0.01544   0.03196   0.03358   0.03783   0.04468
 Alpha virt. eigenvalues --    0.04961   0.05909   0.07936   0.08591   0.08929

 Mulliken charges:
               1
     1  Mg   0.814687
     2  C    0.041186
     3  C   -0.195475
     4  C   -0.162981
     5  C   -0.139751
     6  N   -0.620723
     7  C    0.204260
     8  C   -0.093249
     9  C   -0.177894
    10  C    0.389362
    11  C   -0.324690
    12  C   -0.159298
    13  C   -0.251236
    14  C    0.564950
    15  O   -0.395787
    16  O   -0.468976
    17  N   -0.749972
    18  C    0.343854
    19  C    0.022086
    20  C    0.023294
    21  C    0.299719
    22  C   -0.387591
    23  C    0.228093
    24  O   -0.447287
    25  N   -0.659834
    26  C    0.343594
    27  C    0.049225
    28  C    0.034234
    29  C    0.239087
    30  C    0.157772
    31  C   -0.232264
    32  C   -0.301745
    33  N   -0.697626
    34  C    0.265961
    35  C   -0.024760
    36  C    0.035960
    37  C    0.280934
    38  C   -0.334323
    39  C    0.332465
    40  O   -0.445182
    41  C   -0.291822
    42  C    0.590862
    43  O   -0.365476
    44  O   -0.441879
    45  C   -0.086238
    46  C    0.000088
    47  C   -0.145827
    48  C    0.173752
    49  C   -0.390556
    50  C   -0.252865
    51  C   -0.179810
    52  C   -0.154260
    53  C   -0.062092
    54  C   -0.311719
    55  C   -0.161927
    56  C   -0.180350
    57  C   -0.169703
    58  C   -0.041627
    59  C   -0.284714
    60  C   -0.177355
    61  C   -0.174683
    62  C   -0.145316
    63  C   -0.048724
    64  C   -0.305435
    65  C   -0.285566
    66  H    0.081158
    67  H    0.106531
    68  H    0.073182
    69  H    0.125771
    70  H    0.082699
    71  H    0.130159
    72  H    0.100634
    73  H    0.127512
    74  H    0.106582
    75  H    0.123079
    76  H    0.134867
    77  H    0.143155
    78  H    0.128077
    79  H    0.176125
    80  H    0.129863
    81  H    0.117687
    82  H    0.115085
    83  H    0.114882
    84  H    0.116853
    85  H    0.126039
    86  H    0.103311
    87  H    0.125193
    88  H    0.148086
    89  H    0.139398
    90  H    0.165512
    91  H    0.085302
    92  H    0.103405
    93  H    0.091103
    94  H    0.136091
    95  H    0.112866
    96  H    0.110551
    97  H    0.084427
    98  H    0.089355
    99  H    0.098159
   100  H    0.108269
   101  H    0.077302
   102  H    0.102660
   103  H    0.078544
   104  H    0.126419
   105  H    0.072076
   106  H    0.091021
   107  H    0.083837
   108  H    0.052492
   109  H    0.105195
   110  H    0.075481
   111  H    0.094214
   112  H    0.100036
   113  H    0.062177
   114  H    0.076058
   115  H    0.104664
   116  H    0.084019
   117  H    0.069762
   118  H    0.079864
   119  H    0.102343
   120  H    0.102466
   121  H    0.089767
   122  H    0.077644
   123  H    0.067454
   124  H    0.123209
   125  H    0.078389
   126  H    0.086464
   127  H    0.074778
   128  H    0.118640
   129  H    0.063282
   130  H    0.113773
   131  H    0.122044
   132  H    0.100115
   133  O   -0.484238
   134  H    0.060244
 Sum of Mulliken charges =  -0.00000

 Dipole moment (field-independent basis, Debye):
    X=              1.6429    Y=             -4.8935    Z=             -0.9804  Tot=              5.2542
 Quadrupole moment (field-independent basis, Debye-Ang):
   XX=           -384.5891   YY=           -459.0891   ZZ=           -390.7597
   XY=             18.0779   XZ=             18.0953   YZ=            -38.6316

 Normal termination of Gaussian 16 at Thu Oct 10 20:39:44 2019.
