 Gaussian 16, Revision A.03,
 Gaussian 16:  ES64L-G16RevA.03 25-Dec-2016

 ----------------------------------------------------------------------
 # td=(NStates=1) iop(3/107=0140000000,3/108=0140000000) iop(3/107=0140
 000000,3/108=0140000000) CAM-B3LYP/6-31G(d,p)
 ----------------------------------------------------------------------

 --
 TD
 --
 Symbolic Z-matrix:
 Charge =  0 Multiplicity = 1

                         Standard orientation:
 ---------------------------------------------------------------------
 Center     Atomic      Atomic             Coordinates (Angstroms)
 Number     Number       Type             X           Y           Z
 ---------------------------------------------------------------------
      1         12           0       -5.621263    1.216342    0.217928
      2          6           0       -5.002614   -2.176754   -0.335664
      3          6           0       -3.474708    1.193372    2.721354
      4          6           0       -6.223759    4.574200    0.632805
      5          6           0       -8.068628    1.191409   -2.328064
      6          7           0       -4.318828   -0.270029    1.049783
      7          6           0       -4.272479   -1.624370    0.664017
      8          6           0       -3.176435   -2.285444    1.489588
      9          6           0       -2.993474   -1.313455    2.579152
     10          6           0       -3.571909   -0.020710    2.109026
     11          6           0       -3.425808   -1.669242    3.967595
     12          6           0       -1.952129   -2.683762    0.700604
     13          6           0       -0.935346   -3.516099    1.514007
     14          6           0        0.225622   -3.958434    0.540583
     15          8           0        0.403489   -3.500846   -0.526245
     16          8           0        1.061338   -4.724154    1.175138
     17          7           0       -4.895299    2.629544    1.389213
     18          6           0       -4.061653    2.429340    2.457866
     19          6           0       -3.800840    3.523323    3.224075
     20          6           0       -4.622564    4.532240    2.702804
     21          6           0       -5.283192    4.022133    1.533554
     22          6           0       -2.902881    3.782292    4.399317
     23          6           0       -4.823816    5.951226    3.080938
     24          8           0       -4.100185    6.598623    3.933024
     25          7           0       -6.983669    2.493836   -0.676435
     26          6           0       -6.923909    3.913609   -0.344062
     27          6           0       -7.771861    4.641896   -1.344019
     28          6           0       -8.354781    3.670852   -2.244893
     29          6           0       -7.770128    2.384892   -1.798682
     30          6           0       -8.155216    6.032701   -1.370840
     31          6           0       -9.339532    3.854152   -3.318170
     32          6           0       -8.706731    4.097421   -4.660796
     33          7           0       -6.424534   -0.106593   -0.976551
     34          6           0       -7.431804   -0.040968   -1.989673
     35          6           0       -7.613442   -1.309673   -2.609306
     36          6           0       -6.665510   -2.128913   -2.015365
     37          6           0       -5.966008   -1.401360   -1.079677
     38          6           0       -8.582541   -1.745357   -3.632062
     39          6           0       -6.166521   -3.498074   -1.911809
     40          8           0       -6.579562   -4.476704   -2.554298
     41          6           0       -4.949685   -3.543840   -0.873039
     42          6           0       -5.240463   -4.642824    0.080674
     43          8           0       -5.686809   -4.523186    1.228573
     44          8           0       -5.024906   -5.874836   -0.409743
     45          6           0       -5.211847   -6.992373    0.427792
     46          6           0        2.372691   -5.138966    0.550267
     47          6           0        3.345123   -4.180741    0.875846
     48          6           0        4.058764   -3.369535    0.186892
     49          6           0        3.786526   -3.210899   -1.358260
     50          6           0        5.161653   -2.403720    0.697499
     51          6           0        6.598112   -2.670354    0.093352
     52          6           0        7.647607   -1.692147    0.609780
     53          6           0        9.039899   -2.001401    0.036845
     54          6           0        9.533308   -3.363334    0.325907
     55          6           0        9.952070   -0.863925    0.450821
     56          6           0       11.347248   -0.841591   -0.315344
     57          6           0       12.221559    0.259875    0.139158
     58          6           0       13.440715    0.549511   -0.804715
     59          6           0       14.438727   -0.642826   -0.648327
     60          6           0       14.194521    1.867511   -0.140243
     61          6           0       15.376723    2.220941   -0.926704
     62          6           0       15.823421    3.601245   -0.638332
     63          6           0       17.252708    3.902272   -1.219054
     64          6           0       17.229575    3.803397   -2.701707
     65          6           0       17.930277    5.215952   -0.780516
     66          1           0       -2.838719    1.182441    3.642866
     67          1           0       -6.374519    5.636573    0.602490
     68          1           0       -8.772491    1.041454   -3.184751
     69          1           0       -3.732187   -3.195974    1.746870
     70          1           0       -1.924077   -1.270293    2.333796
     71          1           0       -2.854285   -2.541889    4.317425
     72          1           0       -3.145221   -0.964636    4.583560
     73          1           0       -4.563385   -2.068513    4.105207
     74          1           0       -2.002910   -3.278828   -0.159685
     75          1           0       -1.366184   -1.819845    0.388283
     76          1           0       -0.601881   -2.908379    2.296719
     77          1           0       -1.285971   -4.376144    1.958520
     78          1           0       -1.780749    3.805088    3.976753
     79          1           0       -3.155799    4.803931    4.922449
     80          1           0       -2.891674    2.923437    5.200969
     81          1           0       -5.695321    6.479272    2.533200
     82          1           0       -9.809177    2.855819   -3.390689
     83          1           0      -10.182704    4.619615   -2.988602
     84          1           0       -9.585593    4.135899   -5.435535
     85          1           0       -8.177297    5.108517   -4.509727
     86          1           0       -8.046284    3.255498   -4.646550
     87          1           0       -8.512808   -1.091034   -4.575681
     88          1           0       -8.343991   -2.800545   -3.677926
     89          1           0       -9.601296   -1.674753   -3.330238
     90          1           0       -4.091309   -3.610231   -1.577849
     91          1           0        2.495326   -6.267146    0.851616
     92          1           0        2.138568   -4.788973   -0.494210
     93          1           0        3.981869   -4.159818    2.068565
     94          1           0        2.825425   -3.510503   -1.540000
     95          1           0        3.768393   -2.245611   -1.646565
     96          1           0        4.456355   -3.948166   -1.887152
     97          1           0        4.818094   -1.358924    0.523246
     98          1           0        5.187577   -2.466149    1.830003
     99          1           0        6.911869   -3.664414    0.320919
    100          1           0        6.530664   -2.374913   -0.867222
    101          1           0        7.471300   -0.650677    0.317947
    102          1           0        7.790594   -1.699892    1.763759
    103          1           0        8.969956   -1.857289   -1.063040
    104          1           0        8.991838   -4.115682   -0.171447
    105          1           0       10.324984   -3.496592   -0.162572
    106          1           0        9.718873   -3.498140    1.499276
    107          1           0        9.428210   -0.009765    0.343557
    108          1           0       10.161529   -0.883641    1.436296
    109          1           0       11.707174   -1.897047   -0.337400
    110          1           0       11.135516   -0.674766   -1.463805
    111          1           0       11.853665    1.377259    0.235808
    112          1           0       12.599081   -0.076244    1.303746
    113          1           0       13.220333    0.850319   -1.764993
    114          1           0       14.678870   -0.768449    0.355124
    115          1           0       13.938516   -1.557902   -0.975326
    116          1           0       15.335933   -0.525889   -0.987431
    117          1           0       13.581477    2.604233   -0.179492
    118          1           0       14.557621    1.850273    0.858462
    119          1           0       16.168101    1.392627   -0.796430
    120          1           0       15.197771    2.355413   -2.004289
    121          1           0       15.131136    4.399687   -1.041470
    122          1           0       15.822878    3.832542    0.554701
    123          1           0       18.057791    3.050699   -1.044306
    124          1           0       16.665458    4.619487   -3.220809
    125          1           0       18.251557    3.856755   -3.245385
    126          1           0       16.818890    2.815555   -3.048624
    127          1           0       18.257907    5.213153    0.256966
    128          1           0       18.850980    5.354117   -1.431695
    129          1           0       17.185094    6.001388   -0.715548
    130          1           0       -5.066396   -7.925312   -0.012000
    131          1           0       -6.405335   -7.016090    0.755359
    132          1           0       -4.422200   -6.987037    1.304578
    133          8           0       -7.602682    6.847054   -0.622735
    134          1           0       -8.919217    6.305985   -1.934279
 ---------------------------------------------------------------------

 SCF Done:  E(RCAM-B3LYP) =  -3043.45985008     A.U. after   16 cycles

 Excitation energies and oscillator strengths:

 Excited State   1:      Singlet-A      1.9664 eV  630.52 nm  f=0.2087  <S**2>=0.000
     243 -> 246        0.23555
     244 -> 245        0.65322
 This state for optimization and/or second-order correction.
 Total Energy, E(TD-HF/TD-DFT) =  -3043.38758740
 Copying the excited state density for this state as the 1-particle RhoCI density.

 The electronic state is 1-A.
 Alpha  occ. eigenvalues --  -46.79871 -19.22822 -19.21589 -19.17152 -19.17041
 Alpha  occ. eigenvalues --  -19.16993 -19.16972 -19.16777 -14.38204 -14.37123
 Alpha  occ. eigenvalues --  -14.36399 -14.36226 -10.35819 -10.34399 -10.31817
 Alpha  occ. eigenvalues --  -10.31113 -10.29309 -10.29177 -10.28721 -10.27232
 Alpha  occ. eigenvalues --  -10.26831 -10.26690 -10.26536 -10.26263 -10.26129
 Alpha  occ. eigenvalues --  -10.25927 -10.25853 -10.25470 -10.25405 -10.24552
 Alpha  occ. eigenvalues --  -10.24534 -10.24400 -10.24201 -10.24052 -10.23860
 Alpha  occ. eigenvalues --  -10.23694 -10.23668 -10.23519 -10.23506 -10.23149
 Alpha  occ. eigenvalues --  -10.23048 -10.22952 -10.22847 -10.22749 -10.22570
 Alpha  occ. eigenvalues --  -10.22526 -10.22303 -10.22153 -10.22142 -10.22085
 Alpha  occ. eigenvalues --  -10.21955 -10.21951 -10.21884 -10.21735 -10.21590
 Alpha  occ. eigenvalues --  -10.21204 -10.20932 -10.20842 -10.20473 -10.20175
 Alpha  occ. eigenvalues --  -10.20154 -10.20096 -10.19181 -10.18740 -10.18463
 Alpha  occ. eigenvalues --  -10.17958  -3.08710  -1.83629  -1.83194  -1.83136
 Alpha  occ. eigenvalues --   -1.14763  -1.14075  -1.05970  -1.05909  -1.05808
 Alpha  occ. eigenvalues --   -1.03897  -1.02526  -1.00614  -0.98914  -0.98663
 Alpha  occ. eigenvalues --   -0.96948  -0.89486  -0.87099  -0.86698  -0.86119
 Alpha  occ. eigenvalues --   -0.86033  -0.85537  -0.84879  -0.84157  -0.83401
 Alpha  occ. eigenvalues --   -0.83041  -0.83006  -0.82016  -0.81076  -0.80309
 Alpha  occ. eigenvalues --   -0.79523  -0.79185  -0.78209  -0.77785  -0.77355
 Alpha  occ. eigenvalues --   -0.76215  -0.75094  -0.74435  -0.73526  -0.72994
 Alpha  occ. eigenvalues --   -0.72125  -0.71878  -0.71145  -0.70348  -0.70096
 Alpha  occ. eigenvalues --   -0.69854  -0.69551  -0.67935  -0.67099  -0.66452
 Alpha  occ. eigenvalues --   -0.65695  -0.65334  -0.63956  -0.62894  -0.62569
 Alpha  occ. eigenvalues --   -0.61534  -0.61098  -0.60936  -0.59516  -0.59262
 Alpha  occ. eigenvalues --   -0.58973  -0.58397  -0.58114  -0.57651  -0.57454
 Alpha  occ. eigenvalues --   -0.56440  -0.55626  -0.55377  -0.54944  -0.54868
 Alpha  occ. eigenvalues --   -0.54297  -0.53756  -0.52954  -0.52705  -0.52589
 Alpha  occ. eigenvalues --   -0.52391  -0.52172  -0.51694  -0.51569  -0.50941
 Alpha  occ. eigenvalues --   -0.50585  -0.50357  -0.50191  -0.49733  -0.49323
 Alpha  occ. eigenvalues --   -0.48939  -0.48809  -0.48489  -0.48211  -0.48116
 Alpha  occ. eigenvalues --   -0.47671  -0.47570  -0.47275  -0.47070  -0.47009
 Alpha  occ. eigenvalues --   -0.46980  -0.46563  -0.46192  -0.46119  -0.45975
 Alpha  occ. eigenvalues --   -0.45922  -0.45327  -0.45056  -0.45015  -0.44854
 Alpha  occ. eigenvalues --   -0.44764  -0.44686  -0.44346  -0.44001  -0.43671
 Alpha  occ. eigenvalues --   -0.43473  -0.43235  -0.43085  -0.42810  -0.42672
 Alpha  occ. eigenvalues --   -0.42496  -0.42415  -0.41944  -0.41527  -0.41458
 Alpha  occ. eigenvalues --   -0.41352  -0.41168  -0.41075  -0.41032  -0.40754
 Alpha  occ. eigenvalues --   -0.40645  -0.40496  -0.40463  -0.40360  -0.40187
 Alpha  occ. eigenvalues --   -0.40114  -0.40055  -0.39699  -0.39555  -0.39427
 Alpha  occ. eigenvalues --   -0.39227  -0.39102  -0.38922  -0.38672  -0.38536
 Alpha  occ. eigenvalues --   -0.38227  -0.37953  -0.37505  -0.37432  -0.37358
 Alpha  occ. eigenvalues --   -0.37097  -0.36753  -0.36627  -0.36403  -0.36013
 Alpha  occ. eigenvalues --   -0.35882  -0.35482  -0.35415  -0.34422  -0.34250
 Alpha  occ. eigenvalues --   -0.34105  -0.33993  -0.33529  -0.33483  -0.33027
 Alpha  occ. eigenvalues --   -0.32939  -0.32447  -0.32136  -0.31824  -0.31315
 Alpha  occ. eigenvalues --   -0.31051  -0.30910  -0.30782  -0.30246  -0.29852
 Alpha  occ. eigenvalues --   -0.28837  -0.28407  -0.28119  -0.27867  -0.27764
 Alpha  occ. eigenvalues --   -0.27515  -0.27209  -0.23039  -0.21928
 Alpha virt. eigenvalues --   -0.09419  -0.06558  -0.01742  -0.01233   0.00597
 Alpha virt. eigenvalues --    0.02567   0.02868   0.04389   0.04779   0.05127
 Alpha virt. eigenvalues --    0.05453   0.05853   0.07830   0.08755   0.08963

 Mulliken charges:
               1
     1  Mg   0.800517
     2  C    0.101891
     3  C   -0.207992
     4  C   -0.190903
     5  C   -0.175142
     6  N   -0.643474
     7  C    0.284096
     8  C   -0.158255
     9  C   -0.150792
    10  C    0.382807
    11  C   -0.301527
    12  C   -0.193128
    13  C   -0.274512
    14  C    0.576262
    15  O   -0.453874
    16  O   -0.459436
    17  N   -0.730131
    18  C    0.349973
    19  C    0.104545
    20  C   -0.026788
    21  C    0.284314
    22  C   -0.386789
    23  C    0.223286
    24  O   -0.446555
    25  N   -0.685390
    26  C    0.307075
    27  C   -0.058542
    28  C    0.059564
    29  C    0.322142
    30  C    0.263412
    31  C   -0.271774
    32  C   -0.274509
    33  N   -0.740589
    34  C    0.246474
    35  C    0.020518
    36  C    0.065110
    37  C    0.293953
    38  C   -0.389136
    39  C    0.330662
    40  O   -0.472078
    41  C   -0.331065
    42  C    0.640446
    43  O   -0.485983
    44  O   -0.428593
    45  C   -0.068347
    46  C   -0.045919
    47  C   -0.052085
    48  C    0.123714
    49  C   -0.380473
    50  C   -0.237119
    51  C   -0.159672
    52  C   -0.178352
    53  C   -0.074514
    54  C   -0.281947
    55  C   -0.161322
    56  C   -0.185002
    57  C   -0.136097
    58  C   -0.067496
    59  C   -0.308365
    60  C   -0.179434
    61  C   -0.166508
    62  C   -0.177491
    63  C   -0.031031
    64  C   -0.310384
    65  C   -0.312191
    66  H    0.074817
    67  H    0.142738
    68  H    0.089667
    69  H    0.128728
    70  H    0.108863
    71  H    0.108682
    72  H    0.123774
    73  H    0.116480
    74  H    0.120810
    75  H    0.117581
    76  H    0.137787
    77  H    0.129334
    78  H    0.117998
    79  H    0.164090
    80  H    0.104495
    81  H    0.100218
    82  H    0.112702
    83  H    0.103793
    84  H    0.109066
    85  H    0.108735
    86  H    0.119630
    87  H    0.115765
    88  H    0.155497
    89  H    0.136291
    90  H    0.181778
    91  H    0.136521
    92  H    0.134270
    93  H    0.017912
    94  H    0.141432
    95  H    0.120566
    96  H    0.117417
    97  H    0.105082
    98  H    0.088216
    99  H    0.111024
   100  H    0.113674
   101  H    0.087053
   102  H    0.070960
   103  H    0.072284
   104  H    0.098595
   105  H    0.107199
   106  H    0.083147
   107  H    0.093199
   108  H    0.094272
   109  H    0.103699
   110  H    0.065550
   111  H    0.078733
   112  H    0.055093
   113  H    0.094090
   114  H    0.106782
   115  H    0.092460
   116  H    0.104426
   117  H    0.091867
   118  H    0.095872
   119  H    0.085775
   120  H    0.093816
   121  H    0.091629
   122  H    0.054966
   123  H    0.069346
   124  H    0.089362
   125  H    0.084188
   126  H    0.100270
   127  H    0.101965
   128  H    0.097084
   129  H    0.101551
   130  H    0.136382
   131  H    0.110183
   132  H    0.105374
   133  O   -0.438718
   134  H    0.076059
 Sum of Mulliken charges =  -0.00000

 Dipole moment (field-independent basis, Debye):
    X=              2.6970    Y=             -5.0748    Z=             -2.2721  Tot=              6.1798
 Quadrupole moment (field-independent basis, Debye-Ang):
   XX=           -371.9242   YY=           -435.3757   ZZ=           -396.8699
   XY=             -5.7927   XZ=             23.1079   YZ=            -33.5015

 Normal termination of Gaussian 16 at Sat Oct  5 01:39:11 2019.
