 Gaussian 16, Revision A.03,
 Gaussian 16:  ES64L-G16RevA.03 25-Dec-2016

 ----------------------------------------------------------------------
 # td=(NStates=1) iop(3/107=0140000000,3/108=0140000000) iop(3/107=0140
 000000,3/108=0140000000) CAM-B3LYP/6-31G(d,p)
 ----------------------------------------------------------------------

 --
 TD
 --
 Symbolic Z-matrix:
 Charge =  0 Multiplicity = 1

                         Standard orientation:
 ---------------------------------------------------------------------
 Center     Atomic      Atomic             Coordinates (Angstroms)
 Number     Number       Type             X           Y           Z
 ---------------------------------------------------------------------
      1         12           0       -5.641443    1.259377    0.171629
      2          6           0       -5.106394   -2.150578   -0.331975
      3          6           0       -3.448813    1.162679    2.608640
      4          6           0       -6.272159    4.571425    0.706522
      5          6           0       -8.082401    1.149109   -2.375705
      6          7           0       -4.480038   -0.363746    1.090923
      7          6           0       -4.233466   -1.613113    0.704614
      8          6           0       -3.195126   -2.359820    1.473264
      9          6           0       -2.894050   -1.372762    2.645649
     10          6           0       -3.657405   -0.056448    2.066453
     11          6           0       -3.388440   -1.747306    3.991913
     12          6           0       -1.917184   -2.760222    0.606215
     13          6           0       -0.867988   -3.552735    1.314232
     14          6           0        0.360310   -3.875853    0.545276
     15          8           0        0.611885   -3.378865   -0.557407
     16          8           0        1.121735   -4.902414    1.089395
     17          7           0       -4.941589    2.641160    1.441601
     18          6           0       -3.994938    2.398624    2.432027
     19          6           0       -3.726200    3.721326    3.215639
     20          6           0       -4.565489    4.607139    2.615649
     21          6           0       -5.312899    3.989311    1.453288
     22          6           0       -2.769792    3.837206    4.235338
     23          6           0       -4.692121    6.101230    2.982902
     24          8           0       -4.077000    6.563580    3.820525
     25          7           0       -6.980171    2.632217   -0.660531
     26          6           0       -6.997883    3.945324   -0.418366
     27          6           0       -7.944407    4.636299   -1.378176
     28          6           0       -8.578540    3.598786   -2.085653
     29          6           0       -7.824346    2.426403   -1.698668
     30          6           0       -8.303656    6.055746   -1.289961
     31          6           0       -9.440487    3.773578   -3.196320
     32          6           0       -8.874565    4.025417   -4.561889
     33          7           0       -6.599649   -0.178706   -0.888204
     34          6           0       -7.518528   -0.041134   -1.887658
     35          6           0       -7.611445   -1.262092   -2.631640
     36          6           0       -6.806096   -2.243858   -1.933718
     37          6           0       -6.137915   -1.475857   -0.996426
     38          6           0       -8.527789   -1.585765   -3.827508
     39          6           0       -6.341002   -3.598420   -2.007261
     40          8           0       -6.627901   -4.578525   -2.567545
     41          6           0       -5.154900   -3.627470   -0.807734
     42          6           0       -5.351166   -4.673757    0.238334
     43          8           0       -5.842495   -4.498502    1.312940
     44          8           0       -5.009154   -5.898790   -0.265319
     45          6           0       -5.483105   -6.905783    0.699232
     46          6           0        2.370498   -5.058027    0.476565
     47          6           0        3.362241   -4.070377    0.845956
     48          6           0        4.100695   -3.241653    0.033776
     49          6           0        3.829278   -3.050791   -1.426314
     50          6           0        5.142324   -2.240467    0.597106
     51          6           0        6.545415   -2.588683    0.014847
     52          6           0        7.617056   -1.789892    0.664701
     53          6           0        9.027767   -1.985106    0.008985
     54          6           0        9.629706   -3.402609    0.201108
     55          6           0        9.997996   -0.771411    0.450682
     56          6           0       11.286912   -0.779819   -0.302659
     57          6           0       12.228977    0.394913    0.169129
     58          6           0       13.580104    0.439749   -0.559518
     59          6           0       14.472360   -0.731007   -0.296129
     60          6           0       14.184899    1.787012   -0.184521
     61          6           0       15.531204    2.107726   -0.875883
     62          6           0       16.166720    3.545902   -0.675889
     63          6           0       17.612200    3.756586   -1.350670
     64          6           0       17.517538    3.895084   -2.808222
     65          6           0       18.160215    5.104442   -0.780724
     66          1           0       -2.819344    1.193286    3.690217
     67          1           0       -6.591358    5.584425    0.774755
     68          1           0       -8.716832    1.060772   -3.300352
     69          1           0       -3.846371   -3.072780    1.905307
     70          1           0       -1.823266   -1.299813    2.663783
     71          1           0       -3.176942   -2.869232    4.061586
     72          1           0       -2.861763   -1.043869    4.720100
     73          1           0       -4.415369   -1.566111    4.051286
     74          1           0       -2.322670   -3.347098   -0.258784
     75          1           0       -1.476143   -1.906422   -0.007602
     76          1           0       -0.368135   -2.998362    2.160661
     77          1           0       -1.236014   -4.430424    1.984644
     78          1           0       -1.718935    3.758807    4.004877
     79          1           0       -2.749031    4.889510    4.719696
     80          1           0       -2.973606    3.143501    5.086008
     81          1           0       -5.440930    6.691053    2.475639
     82          1           0      -10.240601    2.930327   -3.140339
     83          1           0      -10.160531    4.631705   -2.882938
     84          1           0       -9.607010    4.079736   -5.482648
     85          1           0       -8.221726    4.998420   -4.854484
     86          1           0       -8.066812    3.230044   -4.652426
     87          1           0       -8.039863   -1.297288   -4.787686
     88          1           0       -8.385834   -2.650397   -3.933067
     89          1           0       -9.788796   -1.622195   -3.524841
     90          1           0       -4.320347   -3.712456   -1.500367
     91          1           0        2.731057   -6.073219    0.711479
     92          1           0        2.100919   -4.872295   -0.685315
     93          1           0        3.413869   -4.013467    2.041473
     94          1           0        2.873759   -3.391676   -1.692338
     95          1           0        4.117166   -2.216060   -1.947354
     96          1           0        4.452188   -3.929820   -1.945305
     97          1           0        4.863225   -1.216588    0.400926
     98          1           0        5.173501   -2.435653    1.611697
     99          1           0        6.862587   -3.759657    0.189613
    100          1           0        6.407741   -2.577975   -1.054487
    101          1           0        7.373190   -0.674122    0.569507
    102          1           0        7.769498   -1.813137    1.679885
    103          1           0        8.974646   -1.858116   -1.043285
    104          1           0        8.778934   -4.139439   -0.087440
    105          1           0       10.669122   -3.410965   -0.370153
    106          1           0        9.966380   -3.416035    1.332516
    107          1           0        9.485145    0.216208    0.406593
    108          1           0       10.211670   -0.945538    1.552996
    109          1           0       11.753263   -1.712269   -0.180990
    110          1           0       11.262676   -0.915435   -1.315836
    111          1           0       11.728610    1.443581    0.041708
    112          1           0       12.500248    0.427057    1.181706
    113          1           0       13.390403    0.609880   -1.587285
    114          1           0       14.759025   -0.818857    0.789087
    115          1           0       14.125258   -1.607531   -0.462353
    116          1           0       15.441954   -0.644066   -0.939028
    117          1           0       13.493896    2.562176   -0.272506
    118          1           0       14.352929    1.628034    0.904781
    119          1           0       16.422557    1.398230   -0.661185
    120          1           0       15.558475    1.681528   -1.980312
    121          1           0       15.525506    4.560279   -1.058689
    122          1           0       16.502774    3.555001    0.521324
    123          1           0       18.310748    3.123674   -1.115927
    124          1           0       16.826373    4.704303   -3.180435
    125          1           0       18.607406    3.812578   -3.323615
    126          1           0       16.705657    2.922048   -3.185809
    127          1           0       18.282132    4.958402    0.364900
    128          1           0       19.189124    5.322331   -1.133385
    129          1           0       17.437510    5.921429   -0.875263
    130          1           0       -5.119812   -7.812211    0.111358
    131          1           0       -6.622588   -6.620410    0.971552
    132          1           0       -4.819273   -6.839273    1.731780
    133          8           0       -7.812599    6.879032   -0.534164
    134          1           0       -8.901858    6.269606   -2.176218
 ---------------------------------------------------------------------

 SCF Done:  E(RCAM-B3LYP) =  -3043.44008838     A.U. after   15 cycles

 Excitation energies and oscillator strengths:

 Excited State   1:      Singlet-A      2.1457 eV  577.83 nm  f=0.0921  <S**2>=0.000
     243 -> 246       -0.37056
     244 -> 245        0.58536
 This state for optimization and/or second-order correction.
 Total Energy, E(TD-HF/TD-DFT) =  -3043.36123557
 Copying the excited state density for this state as the 1-particle RhoCI density.

 The electronic state is 1-A.
 Alpha  occ. eigenvalues --  -46.81966 -19.22463 -19.22230 -19.18123 -19.17837
 Alpha  occ. eigenvalues --  -19.17837 -19.17391 -19.17186 -14.38827 -14.37202
 Alpha  occ. eigenvalues --  -14.37072 -14.36228 -10.35872 -10.34545 -10.31823
 Alpha  occ. eigenvalues --  -10.30213 -10.29894 -10.29162 -10.27576 -10.27569
 Alpha  occ. eigenvalues --  -10.27418 -10.27170 -10.26618 -10.26600 -10.26094
 Alpha  occ. eigenvalues --  -10.25523 -10.25515 -10.25510 -10.25462 -10.25389
 Alpha  occ. eigenvalues --  -10.25102 -10.24967 -10.24414 -10.24395 -10.24348
 Alpha  occ. eigenvalues --  -10.24321 -10.24065 -10.23869 -10.23848 -10.23646
 Alpha  occ. eigenvalues --  -10.23623 -10.23589 -10.23540 -10.23278 -10.22830
 Alpha  occ. eigenvalues --  -10.22718 -10.22621 -10.22572 -10.22532 -10.22472
 Alpha  occ. eigenvalues --  -10.22308 -10.22270 -10.22181 -10.21827 -10.21281
 Alpha  occ. eigenvalues --  -10.21166 -10.21033 -10.20835 -10.20615 -10.20613
 Alpha  occ. eigenvalues --  -10.20554 -10.20470 -10.20421 -10.20238 -10.19695
 Alpha  occ. eigenvalues --  -10.19677  -3.10496  -1.85429  -1.84988  -1.84883
 Alpha  occ. eigenvalues --   -1.13393  -1.13247  -1.12178  -1.10538  -1.06476
 Alpha  occ. eigenvalues --   -1.05067  -1.04769  -1.02136  -1.00397  -0.99347
 Alpha  occ. eigenvalues --   -0.97791  -0.87809  -0.86383  -0.86175  -0.85765
 Alpha  occ. eigenvalues --   -0.85345  -0.84610  -0.83998  -0.83744  -0.83269
 Alpha  occ. eigenvalues --   -0.82786  -0.82431  -0.82101  -0.80328  -0.79415
 Alpha  occ. eigenvalues --   -0.78363  -0.77938  -0.77239  -0.76328  -0.76002
 Alpha  occ. eigenvalues --   -0.75240  -0.74869  -0.74274  -0.72410  -0.71745
 Alpha  occ. eigenvalues --   -0.71261  -0.71041  -0.69914  -0.69319  -0.69135
 Alpha  occ. eigenvalues --   -0.68586  -0.68259  -0.67136  -0.66658  -0.66443
 Alpha  occ. eigenvalues --   -0.65347  -0.64903  -0.63939  -0.62740  -0.62130
 Alpha  occ. eigenvalues --   -0.61318  -0.61266  -0.60148  -0.59552  -0.58882
 Alpha  occ. eigenvalues --   -0.58797  -0.58225  -0.57925  -0.57725  -0.57055
 Alpha  occ. eigenvalues --   -0.56424  -0.55594  -0.55435  -0.55293  -0.55046
 Alpha  occ. eigenvalues --   -0.54426  -0.53335  -0.52936  -0.52314  -0.52116
 Alpha  occ. eigenvalues --   -0.51681  -0.51039  -0.50949  -0.50499  -0.50462
 Alpha  occ. eigenvalues --   -0.49844  -0.49596  -0.49524  -0.49062  -0.48884
 Alpha  occ. eigenvalues --   -0.48661  -0.48519  -0.48337  -0.48290  -0.47929
 Alpha  occ. eigenvalues --   -0.47561  -0.47448  -0.47149  -0.47011  -0.46766
 Alpha  occ. eigenvalues --   -0.46514  -0.46398  -0.46110  -0.45846  -0.45634
 Alpha  occ. eigenvalues --   -0.45398  -0.45256  -0.45052  -0.44965  -0.44917
 Alpha  occ. eigenvalues --   -0.44747  -0.44530  -0.44359  -0.44174  -0.43946
 Alpha  occ. eigenvalues --   -0.43538  -0.43327  -0.43111  -0.43087  -0.42939
 Alpha  occ. eigenvalues --   -0.42477  -0.42287  -0.42183  -0.42109  -0.41820
 Alpha  occ. eigenvalues --   -0.41755  -0.41655  -0.41586  -0.41337  -0.41292
 Alpha  occ. eigenvalues --   -0.41216  -0.40697  -0.40572  -0.40511  -0.40139
 Alpha  occ. eigenvalues --   -0.39849  -0.39635  -0.39602  -0.39560  -0.39463
 Alpha  occ. eigenvalues --   -0.39284  -0.39243  -0.38932  -0.38868  -0.38442
 Alpha  occ. eigenvalues --   -0.38101  -0.37755  -0.37607  -0.36983  -0.36935
 Alpha  occ. eigenvalues --   -0.36735  -0.36425  -0.35960  -0.35669  -0.35554
 Alpha  occ. eigenvalues --   -0.35018  -0.34890  -0.34780  -0.34122  -0.34049
 Alpha  occ. eigenvalues --   -0.33886  -0.33682  -0.33637  -0.33252  -0.33068
 Alpha  occ. eigenvalues --   -0.32818  -0.32488  -0.32164  -0.31962  -0.31750
 Alpha  occ. eigenvalues --   -0.31202  -0.30885  -0.30563  -0.29804  -0.29664
 Alpha  occ. eigenvalues --   -0.28642  -0.28298  -0.27924  -0.27825  -0.27677
 Alpha  occ. eigenvalues --   -0.27541  -0.25982  -0.22632  -0.21401
 Alpha virt. eigenvalues --   -0.07450  -0.06805  -0.01911  -0.00269   0.01272
 Alpha virt. eigenvalues --    0.02322   0.02555   0.03328   0.03688   0.04925
 Alpha virt. eigenvalues --    0.05376   0.06407   0.07736   0.08240   0.08916

 Mulliken charges:
               1
     1  Mg   0.836962
     2  C    0.002851
     3  C   -0.211388
     4  C   -0.174180
     5  C   -0.154834
     6  N   -0.594664
     7  C    0.278895
     8  C   -0.154716
     9  C   -0.136735
    10  C    0.343726
    11  C   -0.297357
    12  C   -0.186697
    13  C   -0.262446
    14  C    0.621974
    15  O   -0.474621
    16  O   -0.466349
    17  N   -0.735053
    18  C    0.311029
    19  C    0.122927
    20  C   -0.095355
    21  C    0.342745
    22  C   -0.441606
    23  C    0.269729
    24  O   -0.351906
    25  N   -0.656873
    26  C    0.260152
    27  C   -0.051493
    28  C    0.052541
    29  C    0.272759
    30  C    0.254483
    31  C   -0.255361
    32  C   -0.295406
    33  N   -0.729715
    34  C    0.305366
    35  C   -0.018433
    36  C    0.052102
    37  C    0.306786
    38  C   -0.397159
    39  C    0.328446
    40  O   -0.403332
    41  C   -0.336610
    42  C    0.639477
    43  O   -0.474830
    44  O   -0.453173
    45  C   -0.081560
    46  C   -0.000651
    47  C   -0.145718
    48  C    0.136320
    49  C   -0.373514
    50  C   -0.224999
    51  C   -0.174020
    52  C   -0.162413
    53  C   -0.070841
    54  C   -0.297354
    55  C   -0.175456
    56  C   -0.179185
    57  C   -0.174050
    58  C   -0.069645
    59  C   -0.294760
    60  C   -0.159597
    61  C   -0.183917
    62  C   -0.148137
    63  C   -0.034932
    64  C   -0.267327
    65  C   -0.308739
    66  H    0.058322
    67  H    0.128501
    68  H    0.117481
    69  H    0.141401
    70  H    0.105892
    71  H    0.106432
    72  H    0.108442
    73  H    0.133554
    74  H    0.124713
    75  H    0.133894
    76  H    0.138145
    77  H    0.137590
    78  H    0.142103
    79  H    0.152915
    80  H    0.123824
    81  H    0.077646
    82  H    0.107554
    83  H    0.100817
    84  H    0.108675
    85  H    0.101851
    86  H    0.106404
    87  H    0.136954
    88  H    0.151895
    89  H    0.112896
    90  H    0.152905
    91  H    0.116457
    92  H    0.103526
    93  H    0.065590
    94  H    0.150571
    95  H    0.124398
    96  H    0.092874
    97  H    0.111365
    98  H    0.104729
    99  H    0.066847
   100  H    0.106926
   101  H    0.073781
   102  H    0.104385
   103  H    0.089249
   104  H    0.102952
   105  H    0.091118
   106  H    0.087427
   107  H    0.088185
   108  H    0.078619
   109  H    0.092623
   110  H    0.097486
   111  H    0.069787
   112  H    0.094433
   113  H    0.090000
   114  H    0.089563
   115  H    0.113842
   116  H    0.086841
   117  H    0.099924
   118  H    0.082633
   119  H    0.087877
   120  H    0.072649
   121  H    0.064016
   122  H    0.072204
   123  H    0.098389
   124  H    0.104789
   125  H    0.086056
   126  H    0.040504
   127  H    0.078705
   128  H    0.096167
   129  H    0.104017
   130  H    0.126884
   131  H    0.141058
   132  H    0.103452
   133  O   -0.431671
   134  H    0.065801
 Sum of Mulliken charges =  -0.00000

 Dipole moment (field-independent basis, Debye):
    X=              2.1326    Y=             -2.9162    Z=             -0.5575  Tot=              3.6555
 Quadrupole moment (field-independent basis, Debye-Ang):
   XX=           -392.0170   YY=           -444.2481   ZZ=           -389.2808
   XY=              1.9957   XZ=             23.0251   YZ=            -25.1248

 Normal termination of Gaussian 16 at Tue Oct  8 14:00:37 2019.
