 Gaussian 16, Revision A.03,
 Gaussian 16:  ES64L-G16RevA.03 25-Dec-2016

 ----------------------------------------------------------------------
 # td=(NStates=1) iop(3/107=0140000000,3/108=0140000000) iop(3/107=0140
 000000,3/108=0140000000) CAM-B3LYP/6-31G(d,p)
 ----------------------------------------------------------------------

 --
 TD
 --
 Symbolic Z-matrix:
 Charge =  0 Multiplicity = 1

                         Standard orientation:
 ---------------------------------------------------------------------
 Center     Atomic      Atomic             Coordinates (Angstroms)
 Number     Number       Type             X           Y           Z
 ---------------------------------------------------------------------
      1         12           0       -5.708995    1.130800    0.243828
      2          6           0       -5.043886   -2.100708   -0.431494
      3          6           0       -3.603025    0.935510    2.940333
      4          6           0       -6.273301    4.427335    0.746753
      5          6           0       -7.972356    1.265072   -2.434030
      6          7           0       -4.428749   -0.300027    1.199743
      7          6           0       -4.377015   -1.632621    0.661574
      8          6           0       -3.306428   -2.394490    1.452165
      9          6           0       -3.021290   -1.479012    2.669440
     10          6           0       -3.721672   -0.141099    2.293176
     11          6           0       -3.591118   -2.055769    4.077068
     12          6           0       -2.030025   -2.656353    0.596621
     13          6           0       -1.090268   -3.575672    1.342275
     14          6           0        0.179850   -3.858803    0.607423
     15          8           0        0.460684   -3.285859   -0.455434
     16          8           0        1.076442   -4.698191    1.392750
     17          7           0       -5.040800    2.574723    1.623274
     18          6           0       -4.113183    2.237117    2.575055
     19          6           0       -3.909925    3.527369    3.317702
     20          6           0       -4.584028    4.476272    2.676502
     21          6           0       -5.374769    3.908849    1.581469
     22          6           0       -2.933588    3.614897    4.404303
     23          6           0       -4.633069    5.896946    3.003572
     24          8           0       -3.950861    6.414640    3.875625
     25          7           0       -6.958495    2.590414   -0.652479
     26          6           0       -6.972279    3.904136   -0.265100
     27          6           0       -7.830507    4.676568   -1.186916
     28          6           0       -8.426905    3.795461   -2.046063
     29          6           0       -7.783110    2.481505   -1.764994
     30          6           0       -8.224863    6.052022   -1.224377
     31          6           0       -9.489491    3.952991   -3.125235
     32          6           0       -8.771880    4.307262   -4.413283
     33          7           0       -6.324102   -0.062650   -1.198432
     34          6           0       -7.337880    0.019503   -2.238695
     35          6           0       -7.629416   -1.302717   -2.807829
     36          6           0       -6.701227   -2.047412   -2.202307
     37          6           0       -6.039926   -1.399161   -1.185607
     38          6           0       -8.622284   -1.518699   -3.926378
     39          6           0       -6.172641   -3.506774   -2.186939
     40          8           0       -6.551900   -4.401990   -2.844027
     41          6           0       -5.073209   -3.528467   -1.079319
     42          6           0       -5.360626   -4.675945   -0.008080
     43          8           0       -5.652742   -4.499253    1.170181
     44          8           0       -5.043733   -5.896934   -0.444092
     45          6           0       -5.380487   -7.037688    0.254146
     46          6           0        2.403195   -4.946161    0.697686
     47          6           0        3.438674   -3.965991    1.056919
     48          6           0        4.141853   -3.200765    0.175063
     49          6           0        3.790616   -3.197014   -1.315541
     50          6           0        5.248906   -2.343894    0.582869
     51          6           0        6.518794   -2.537397   -0.054972
     52          6           0        7.663064   -1.658196    0.646777
     53          6           0        9.018860   -1.802462   -0.004061
     54          6           0        9.563155   -3.196213    0.226939
     55          6           0       10.079113   -0.789785    0.441038
     56          6           0       11.474138   -0.938407   -0.224562
     57          6           0       12.278173    0.300137    0.179637
     58          6           0       13.630285    0.394691   -0.540424
     59          6           0       14.603695   -0.648780   -0.239975
     60          6           0       14.287808    1.759018   -0.235258
     61          6           0       15.552209    2.093775   -1.047241
     62          6           0       16.126198    3.543547   -0.766478
     63          6           0       17.448624    3.811180   -1.372037
     64          6           0       17.439429    3.745208   -2.839225
     65          6           0       17.975883    5.270427   -0.817297
     66          1           0       -2.818767    0.865467    3.678362
     67          1           0       -6.417001    5.571584    0.865286
     68          1           0       -8.555083    1.199762   -3.245773
     69          1           0       -3.652429   -3.372231    1.830149
     70          1           0       -2.010668   -1.442332    2.998883
     71          1           0       -3.274799   -3.116232    4.346201
     72          1           0       -3.435012   -1.368590    4.798413
     73          1           0       -4.559034   -2.378975    3.912069
     74          1           0       -2.336553   -3.273297   -0.255571
     75          1           0       -1.558871   -1.796176    0.172465
     76          1           0       -0.622737   -3.064293    2.276954
     77          1           0       -1.480715   -4.561295    1.753566
     78          1           0       -1.876599    3.341640    4.219029
     79          1           0       -2.689854    4.802640    4.697977
     80          1           0       -2.949445    3.165436    5.464080
     81          1           0       -5.494573    6.443775    2.227967
     82          1           0       -9.901325    2.937187   -3.278773
     83          1           0      -10.194208    4.545482   -3.010746
     84          1           0       -9.448596    4.419328   -5.337604
     85          1           0       -8.504102    5.217476   -4.110734
     86          1           0       -7.970370    3.645510   -4.583647
     87          1           0       -8.511805   -0.837554   -4.732669
     88          1           0       -8.640613   -2.663138   -4.421481
     89          1           0       -9.720696   -1.373558   -3.625091
     90          1           0       -4.233162   -3.961590   -1.572437
     91          1           0        2.670302   -6.007765    1.332361
     92          1           0        2.139710   -4.966723   -0.378249
     93          1           0        4.007766   -3.976361    1.971339
     94          1           0        2.714464   -3.102320   -1.392238
     95          1           0        4.144771   -2.285046   -1.788201
     96          1           0        4.153653   -4.034502   -1.863586
     97          1           0        4.957024   -1.209903    0.415496
     98          1           0        5.451268   -2.075096    1.520517
     99          1           0        6.814690   -3.667016   -0.223955
    100          1           0        6.488991   -2.220274   -1.129911
    101          1           0        7.446974   -0.533449    0.529922
    102          1           0        7.702079   -1.946920    1.701789
    103          1           0        9.072192   -1.874300   -1.008601
    104          1           0        8.955718   -4.048115   -0.076882
    105          1           0       10.305617   -3.530728   -0.273644
    106          1           0        9.784554   -3.295013    1.361971
    107          1           0        9.755860    0.142378    0.521054
    108          1           0       10.593415   -1.282222    1.411249
    109          1           0       12.115910   -1.789512   -0.136292
    110          1           0       11.465866   -0.838659   -1.252302
    111          1           0       11.835241    1.149848    0.055805
    112          1           0       12.593860    0.082578    1.260117
    113          1           0       13.660000    0.665456   -1.714303
    114          1           0       14.892409   -0.764748    0.778025
    115          1           0       13.967029   -1.667234   -0.478068
    116          1           0       15.530204   -0.689203   -0.700426
    117          1           0       13.405307    2.481828   -0.246547
    118          1           0       14.477000    1.700541    0.887840
    119          1           0       16.437179    1.463962   -0.799322
    120          1           0       15.266000    2.093632   -2.069677
    121          1           0       15.408978    4.387122   -1.063031
    122          1           0       16.130964    3.639248    0.350674
    123          1           0       18.304062    3.113966   -0.933604
    124          1           0       16.746936    4.654386   -3.015382
    125          1           0       18.420399    3.803364   -3.447465
    126          1           0       17.059341    2.906736   -3.278988
    127          1           0       18.041507    5.208941    0.227918
    128          1           0       19.089726    5.454251   -1.296724
    129          1           0       17.487772    6.080663   -1.246635
    130          1           0       -4.995874   -7.904642   -0.363797
    131          1           0       -6.611579   -7.059907    0.390720
    132          1           0       -5.129025   -6.950255    1.302717
    133          8           0       -7.842295    6.940125   -0.431394
    134          1           0       -8.894125    6.415786   -2.084815
 ---------------------------------------------------------------------

 SCF Done:  E(RCAM-B3LYP) =  -3043.40825163     A.U. after   15 cycles

 Excitation energies and oscillator strengths:

 Excited State   1:      Singlet-A      2.1240 eV  583.73 nm  f=0.2292  <S**2>=0.000
     243 -> 246        0.25124
     244 -> 245        0.65362
 This state for optimization and/or second-order correction.
 Total Energy, E(TD-HF/TD-DFT) =  -3043.33019648
 Copying the excited state density for this state as the 1-particle RhoCI density.

 The electronic state is 1-A.
 Alpha  occ. eigenvalues --  -46.81602 -19.23428 -19.21074 -19.18473 -19.18168
 Alpha  occ. eigenvalues --  -19.17815 -19.17595 -19.16808 -14.38108 -14.37551
 Alpha  occ. eigenvalues --  -14.36857 -14.36809 -10.36384 -10.35385 -10.32327
 Alpha  occ. eigenvalues --  -10.31216 -10.30621 -10.29161 -10.28869 -10.27975
 Alpha  occ. eigenvalues --  -10.27634 -10.26746 -10.26741 -10.26481 -10.26476
 Alpha  occ. eigenvalues --  -10.25947 -10.25893 -10.25808 -10.25702 -10.25307
 Alpha  occ. eigenvalues --  -10.24966 -10.24772 -10.24750 -10.24512 -10.24114
 Alpha  occ. eigenvalues --  -10.23848 -10.23718 -10.23255 -10.23186 -10.23127
 Alpha  occ. eigenvalues --  -10.22892 -10.22620 -10.22516 -10.22383 -10.22297
 Alpha  occ. eigenvalues --  -10.22263 -10.22098 -10.21941 -10.21624 -10.21519
 Alpha  occ. eigenvalues --  -10.21182 -10.21091 -10.20948 -10.20876 -10.20863
 Alpha  occ. eigenvalues --  -10.20849 -10.20762 -10.20540 -10.20538 -10.20348
 Alpha  occ. eigenvalues --  -10.20193 -10.19986 -10.19906 -10.19881 -10.19713
 Alpha  occ. eigenvalues --  -10.18622  -3.10086  -1.85036  -1.84577  -1.84466
 Alpha  occ. eigenvalues --   -1.15469  -1.10525  -1.09300  -1.06583  -1.05244
 Alpha  occ. eigenvalues --   -1.04849  -1.02590  -1.00208  -0.99327  -0.99299
 Alpha  occ. eigenvalues --   -0.98315  -0.88324  -0.86978  -0.86677  -0.86192
 Alpha  occ. eigenvalues --   -0.85697  -0.85121  -0.84828  -0.84308  -0.83809
 Alpha  occ. eigenvalues --   -0.83679  -0.83052  -0.81530  -0.81064  -0.80330
 Alpha  occ. eigenvalues --   -0.80260  -0.78951  -0.78568  -0.77994  -0.76060
 Alpha  occ. eigenvalues --   -0.75367  -0.75280  -0.74045  -0.73542  -0.72323
 Alpha  occ. eigenvalues --   -0.71999  -0.71383  -0.71139  -0.70234  -0.69888
 Alpha  occ. eigenvalues --   -0.69626  -0.69090  -0.67627  -0.67059  -0.66646
 Alpha  occ. eigenvalues --   -0.65624  -0.65194  -0.63804  -0.62922  -0.62529
 Alpha  occ. eigenvalues --   -0.61763  -0.61538  -0.61220  -0.60568  -0.59810
 Alpha  occ. eigenvalues --   -0.59088  -0.57920  -0.57786  -0.57207  -0.56967
 Alpha  occ. eigenvalues --   -0.56457  -0.55982  -0.55869  -0.55185  -0.54967
 Alpha  occ. eigenvalues --   -0.54268  -0.53623  -0.53514  -0.53282  -0.52606
 Alpha  occ. eigenvalues --   -0.52413  -0.52169  -0.51537  -0.51274  -0.51218
 Alpha  occ. eigenvalues --   -0.50773  -0.50406  -0.50048  -0.49368  -0.49163
 Alpha  occ. eigenvalues --   -0.48962  -0.48761  -0.48413  -0.48252  -0.48108
 Alpha  occ. eigenvalues --   -0.47960  -0.47930  -0.47616  -0.47477  -0.47275
 Alpha  occ. eigenvalues --   -0.47101  -0.46978  -0.46678  -0.46509  -0.46471
 Alpha  occ. eigenvalues --   -0.46080  -0.45894  -0.45302  -0.45179  -0.45115
 Alpha  occ. eigenvalues --   -0.44679  -0.44337  -0.44092  -0.43873  -0.43751
 Alpha  occ. eigenvalues --   -0.43458  -0.43224  -0.43018  -0.42961  -0.42874
 Alpha  occ. eigenvalues --   -0.42732  -0.42569  -0.42376  -0.42157  -0.41721
 Alpha  occ. eigenvalues --   -0.41454  -0.41293  -0.41125  -0.41035  -0.40945
 Alpha  occ. eigenvalues --   -0.40847  -0.40751  -0.40640  -0.40526  -0.40255
 Alpha  occ. eigenvalues --   -0.39966  -0.39626  -0.39518  -0.39390  -0.39191
 Alpha  occ. eigenvalues --   -0.39160  -0.38904  -0.38849  -0.38683  -0.38067
 Alpha  occ. eigenvalues --   -0.37899  -0.37782  -0.37466  -0.37364  -0.37262
 Alpha  occ. eigenvalues --   -0.36990  -0.36657  -0.36459  -0.36307  -0.36166
 Alpha  occ. eigenvalues --   -0.35796  -0.35446  -0.35023  -0.34486  -0.34247
 Alpha  occ. eigenvalues --   -0.34073  -0.33837  -0.33074  -0.32906  -0.32869
 Alpha  occ. eigenvalues --   -0.32773  -0.32004  -0.31751  -0.31655  -0.31358
 Alpha  occ. eigenvalues --   -0.31296  -0.31062  -0.30705  -0.30612  -0.29431
 Alpha  occ. eigenvalues --   -0.29404  -0.28745  -0.28309  -0.28190  -0.27841
 Alpha  occ. eigenvalues --   -0.27090  -0.26814  -0.23540  -0.22087
 Alpha virt. eigenvalues --   -0.08700  -0.06307  -0.00988  -0.00889   0.00647
 Alpha virt. eigenvalues --    0.02103   0.02259   0.02945   0.03747   0.04157
 Alpha virt. eigenvalues --    0.04676   0.06088   0.07981   0.08860   0.09566

 Mulliken charges:
               1
     1  Mg   0.816230
     2  C    0.083335
     3  C   -0.188435
     4  C   -0.189214
     5  C   -0.151887
     6  N   -0.678458
     7  C    0.275976
     8  C   -0.158749
     9  C   -0.162260
    10  C    0.445787
    11  C   -0.331829
    12  C   -0.162932
    13  C   -0.263449
    14  C    0.596166
    15  O   -0.462849
    16  O   -0.507485
    17  N   -0.730331
    18  C    0.294034
    19  C    0.085895
    20  C   -0.015366
    21  C    0.357367
    22  C   -0.443666
    23  C    0.255347
    24  O   -0.414181
    25  N   -0.688548
    26  C    0.341162
    27  C   -0.002910
    28  C    0.025308
    29  C    0.286728
    30  C    0.217274
    31  C   -0.218492
    32  C   -0.304989
    33  N   -0.714931
    34  C    0.206825
    35  C    0.062640
    36  C   -0.017691
    37  C    0.298226
    38  C   -0.398912
    39  C    0.388230
    40  O   -0.409372
    41  C   -0.315917
    42  C    0.591950
    43  O   -0.467353
    44  O   -0.408104
    45  C   -0.085265
    46  C   -0.005068
    47  C   -0.092770
    48  C    0.131934
    49  C   -0.400300
    50  C   -0.221013
    51  C   -0.169208
    52  C   -0.179121
    53  C   -0.046693
    54  C   -0.316801
    55  C   -0.157280
    56  C   -0.203649
    57  C   -0.156575
    58  C   -0.053755
    59  C   -0.294909
    60  C   -0.178214
    61  C   -0.179323
    62  C   -0.160702
    63  C   -0.058652
    64  C   -0.286190
    65  C   -0.311423
    66  H    0.085132
    67  H    0.139340
    68  H    0.068682
    69  H    0.125125
    70  H    0.107752
    71  H    0.098011
    72  H    0.120135
    73  H    0.134683
    74  H    0.111405
    75  H    0.134146
    76  H    0.137418
    77  H    0.135466
    78  H    0.129320
    79  H    0.138644
    80  H    0.125090
    81  H    0.047786
    82  H    0.104163
    83  H    0.115125
    84  H    0.096355
    85  H    0.121873
    86  H    0.119087
    87  H    0.141262
    88  H    0.127358
    89  H    0.127715
    90  H    0.168317
    91  H    0.096506
    92  H    0.132116
    93  H    0.081576
    94  H    0.155912
    95  H    0.107014
    96  H    0.124490
    97  H    0.082974
    98  H    0.105339
    99  H    0.085837
   100  H    0.094052
   101  H    0.080603
   102  H    0.101038
   103  H    0.096347
   104  H    0.086074
   105  H    0.110365
   106  H    0.078259
   107  H    0.089009
   108  H    0.079550
   109  H    0.105698
   110  H    0.094294
   111  H    0.094271
   112  H    0.083032
   113  H    0.056868
   114  H    0.104086
   115  H    0.059346
   116  H    0.114058
   117  H    0.073629
   118  H    0.067274
   119  H    0.099375
   120  H    0.105009
   121  H    0.076843
   122  H    0.088167
   123  H    0.062026
   124  H    0.084676
   125  H    0.089723
   126  H    0.114055
   127  H    0.113674
   128  H    0.066042
   129  H    0.112458
   130  H    0.133271
   131  H    0.096229
   132  H    0.138139
   133  O   -0.439793
   134  H    0.065907
 Sum of Mulliken charges =  -0.00000

 Dipole moment (field-independent basis, Debye):
    X=              1.0929    Y=             -5.8664    Z=             -2.5583  Tot=              6.4926
 Quadrupole moment (field-independent basis, Debye-Ang):
   XX=           -369.4046   YY=           -439.4732   ZZ=           -393.7947
   XY=             14.5593   XZ=             27.1450   YZ=            -29.8129

 Normal termination of Gaussian 16 at Fri Oct  4 18:34:43 2019.
