 Gaussian 16, Revision A.03,
 Gaussian 16:  ES64L-G16RevA.03 25-Dec-2016

 ----------------------------------------------------------------------
 # td=(NStates=1) iop(3/107=0140000000,3/108=0140000000) iop(3/107=0140
 000000,3/108=0140000000) CAM-B3LYP/6-31G(d,p)
 ----------------------------------------------------------------------

 --
 TD
 --
 Symbolic Z-matrix:
 Charge =  0 Multiplicity = 1

                         Standard orientation:
 ---------------------------------------------------------------------
 Center     Atomic      Atomic             Coordinates (Angstroms)
 Number     Number       Type             X           Y           Z
 ---------------------------------------------------------------------
      1         12           0       -5.537090    1.279650    0.216676
      2          6           0       -4.838854   -2.057659   -0.528905
      3          6           0       -3.204175    1.069837    2.717831
      4          6           0       -6.085014    4.624221    0.765352
      5          6           0       -8.003770    1.222910   -2.242554
      6          7           0       -4.275514   -0.267719    0.879068
      7          6           0       -4.121883   -1.566136    0.532897
      8          6           0       -3.196130   -2.349637    1.318982
      9          6           0       -2.794616   -1.375867    2.406999
     10          6           0       -3.394979   -0.097520    1.920298
     11          6           0       -3.471918   -1.895547    3.766830
     12          6           0       -2.021391   -2.969303    0.500555
     13          6           0       -0.997992   -3.721983    1.399816
     14          6           0        0.193724   -4.041276    0.597611
     15          8           0        0.411666   -3.621999   -0.506797
     16          8           0        1.019265   -4.838037    1.284814
     17          7           0       -4.654913    2.678385    1.487201
     18          6           0       -3.736543    2.371960    2.430486
     19          6           0       -3.548301    3.515383    3.233207
     20          6           0       -4.320312    4.609426    2.588677
     21          6           0       -5.026670    4.017892    1.488094
     22          6           0       -2.576314    3.636991    4.409210
     23          6           0       -4.457484    5.991851    3.065980
     24          8           0       -3.753046    6.522423    3.935482
     25          7           0       -6.718994    2.698219   -0.657866
     26          6           0       -6.805263    4.052334   -0.278811
     27          6           0       -7.770015    4.664836   -1.061041
     28          6           0       -8.375787    3.776122   -1.960114
     29          6           0       -7.644827    2.526977   -1.616148
     30          6           0       -8.126313    6.100584   -0.966010
     31          6           0       -9.403156    3.943698   -3.033775
     32          6           0       -8.647062    4.308740   -4.364159
     33          7           0       -6.147878   -0.099639   -1.183851
     34          6           0       -7.346827    0.020772   -2.015273
     35          6           0       -7.561607   -1.288246   -2.678922
     36          6           0       -6.527413   -2.197766   -2.207371
     37          6           0       -5.861452   -1.340781   -1.251041
     38          6           0       -8.600357   -1.496726   -3.773584
     39          6           0       -6.221285   -3.509215   -2.121616
     40          8           0       -6.711678   -4.476673   -2.578398
     41          6           0       -5.095173   -3.442901   -1.126695
     42          6           0       -5.396629   -4.477006   -0.014014
     43          8           0       -5.857088   -4.312008    1.056813
     44          8           0       -5.180443   -5.873948   -0.431100
     45          6           0       -5.523590   -6.906070    0.388868
     46          6           0        2.252910   -5.201616    0.780223
     47          6           0        3.342555   -4.242833    1.176759
     48          6           0        4.026580   -3.352689    0.270702
     49          6           0        3.685974   -3.271202   -1.180373
     50          6           0        5.137574   -2.474294    0.765807
     51          6           0        6.464987   -2.770098    0.122907
     52          6           0        7.577172   -1.953354    0.866710
     53          6           0        8.912226   -2.029998    0.038992
     54          6           0        9.503071   -3.468974    0.244918
     55          6           0        9.858051   -0.969761    0.438018
     56          6           0       11.186651   -0.939265   -0.180265
     57          6           0       12.021786    0.371932    0.118034
     58          6           0       13.414485    0.480250   -0.557519
     59          6           0       14.311861   -0.803120   -0.293408
     60          6           0       14.037264    1.833861   -0.285451
     61          6           0       15.355035    2.099373   -1.074993
     62          6           0       15.757172    3.553029   -0.764806
     63          6           0       17.082651    4.086147   -1.494681
     64          6           0       16.923609    4.165257   -3.032300
     65          6           0       17.521950    5.328979   -0.853603
     66          1           0       -2.564198    1.120018    3.511110
     67          1           0       -6.431331    5.707888    1.091448
     68          1           0       -8.973093    1.259413   -2.719779
     69          1           0       -3.683722   -3.200573    1.565786
     70          1           0       -1.621963   -1.240885    2.850882
     71          1           0       -3.112028   -2.894563    4.010975
     72          1           0       -3.177766   -1.310798    4.491853
     73          1           0       -4.625026   -2.018801    3.811143
     74          1           0       -2.390617   -3.774703   -0.288060
     75          1           0       -1.419627   -2.219330   -0.085757
     76          1           0       -0.569711   -3.303070    2.218623
     77          1           0       -1.383164   -4.688526    1.602551
     78          1           0       -1.480288    3.760124    3.810110
     79          1           0       -2.706231    4.590040    5.059453
     80          1           0       -2.813805    2.608595    5.073020
     81          1           0       -5.357672    6.673146    2.501188
     82          1           0       -9.975644    3.076501   -3.365812
     83          1           0      -10.275722    4.661656   -2.937515
     84          1           0       -9.357513    4.357371   -5.094582
     85          1           0       -8.179584    5.385272   -4.308619
     86          1           0       -8.014942    3.554270   -4.553841
     87          1           0       -8.798573   -0.770450   -4.609395
     88          1           0       -8.644227   -2.606536   -4.019560
     89          1           0       -9.756139   -1.559398   -3.346535
     90          1           0       -4.202790   -3.787202   -1.762532
     91          1           0        2.515765   -6.167983    1.235495
     92          1           0        2.357289   -5.213442   -0.362701
     93          1           0        3.615672   -4.175363    2.214586
     94          1           0        2.654567   -3.716068   -1.556082
     95          1           0        3.864709   -2.338978   -1.592356
     96          1           0        4.393054   -3.668366   -1.928595
     97          1           0        4.826757   -1.239848    0.674228
     98          1           0        5.111243   -2.579483    1.774109
     99          1           0        6.769828   -3.768023    0.179299
    100          1           0        6.687932   -2.503616   -1.030345
    101          1           0        7.191959   -0.845240    1.016982
    102          1           0        7.716097   -2.412996    2.061499
    103          1           0        8.630956   -1.702083   -1.177093
    104          1           0        8.761477   -4.225679    0.110726
    105          1           0       10.235268   -3.720794   -0.391779
    106          1           0       10.021397   -3.624256    1.383161
    107          1           0        9.482004    0.085438    0.207259
    108          1           0       10.151656   -0.797455    1.537670
    109          1           0       11.724018   -1.864564    0.039021
    110          1           0       11.164339   -1.195303   -1.205856
    111          1           0       11.361508    1.332618   -0.075179
    112          1           0       12.150560    0.420018    1.322874
    113          1           0       13.022580    0.491652   -1.783116
    114          1           0       14.394259   -0.958605    0.864671
    115          1           0       14.026372   -1.821228   -0.775109
    116          1           0       15.253982   -0.482106   -0.783349
    117          1           0       13.388753    2.660657   -0.708948
    118          1           0       14.369127    1.987462    0.885287
    119          1           0       16.206334    1.440313   -0.924284
    120          1           0       15.042424    2.077732   -2.066949
    121          1           0       14.866961    4.112770   -0.907988
    122          1           0       15.963447    3.418820    0.248839
    123          1           0       17.732416    3.281721   -1.346300
    124          1           0       16.110684    4.741574   -3.299404
    125          1           0       18.008689    4.416005   -3.471716
    126          1           0       16.604390    3.251924   -3.474405
    127          1           0       17.709795    5.192804    0.335457
    128          1           0       18.614573    5.746981   -1.337506
    129          1           0       16.826051    5.979489   -1.192531
    130          1           0       -5.141150   -7.683933   -0.123222
    131          1           0       -6.630008   -7.041204    0.435653
    132          1           0       -5.245163   -6.855192    1.541249
    133          8           0       -7.699867    6.963210   -0.254400
    134          1           0       -8.986604    6.284973   -1.766688
 ---------------------------------------------------------------------

 SCF Done:  E(RCAM-B3LYP) =  -3043.39589812     A.U. after   15 cycles

 Excitation energies and oscillator strengths:

 Excited State   1:      Singlet-A      1.9404 eV  638.96 nm  f=0.1820  <S**2>=0.000
     243 -> 246       -0.21168
     244 -> 245        0.65450
 This state for optimization and/or second-order correction.
 Total Energy, E(TD-HF/TD-DFT) =  -3043.32459001
 Copying the excited state density for this state as the 1-particle RhoCI density.

 The electronic state is 1-A.
 Alpha  occ. eigenvalues --  -46.82232 -19.22426 -19.19798 -19.18853 -19.18334
 Alpha  occ. eigenvalues --  -19.17005 -19.16839 -19.16668 -14.39375 -14.37901
 Alpha  occ. eigenvalues --  -14.37361 -14.36580 -10.35581 -10.34419 -10.31262
 Alpha  occ. eigenvalues --  -10.30907 -10.30391 -10.28214 -10.28084 -10.27821
 Alpha  occ. eigenvalues --  -10.27783 -10.27632 -10.27578 -10.26614 -10.26407
 Alpha  occ. eigenvalues --  -10.26318 -10.26234 -10.26215 -10.26086 -10.25738
 Alpha  occ. eigenvalues --  -10.25729 -10.25450 -10.25396 -10.25383 -10.25381
 Alpha  occ. eigenvalues --  -10.24917 -10.24723 -10.24404 -10.24377 -10.24111
 Alpha  occ. eigenvalues --  -10.24017 -10.23645 -10.23340 -10.23317 -10.23165
 Alpha  occ. eigenvalues --  -10.23136 -10.22876 -10.22774 -10.22757 -10.22754
 Alpha  occ. eigenvalues --  -10.22638 -10.22490 -10.22341 -10.22131 -10.21897
 Alpha  occ. eigenvalues --  -10.21710 -10.21502 -10.21380 -10.21376 -10.20813
 Alpha  occ. eigenvalues --  -10.20626 -10.20559 -10.20122 -10.19800 -10.19699
 Alpha  occ. eigenvalues --  -10.19522  -3.10723  -1.85667  -1.85203  -1.85118
 Alpha  occ. eigenvalues --   -1.14904  -1.13043  -1.09637  -1.08721  -1.05915
 Alpha  occ. eigenvalues --   -1.05069  -1.04858  -1.01978  -1.00678  -1.00125
 Alpha  occ. eigenvalues --   -0.98878  -0.89881  -0.86701  -0.85772  -0.85653
 Alpha  occ. eigenvalues --   -0.85111  -0.85062  -0.84450  -0.83933  -0.83685
 Alpha  occ. eigenvalues --   -0.83113  -0.82436  -0.81049  -0.80611  -0.79984
 Alpha  occ. eigenvalues --   -0.79734  -0.78477  -0.78182  -0.76942  -0.76184
 Alpha  occ. eigenvalues --   -0.75555  -0.75054  -0.74574  -0.72119  -0.71808
 Alpha  occ. eigenvalues --   -0.71504  -0.71248  -0.70302  -0.69788  -0.69539
 Alpha  occ. eigenvalues --   -0.69470  -0.68964  -0.67748  -0.66835  -0.66642
 Alpha  occ. eigenvalues --   -0.65496  -0.65148  -0.64398  -0.62324  -0.62085
 Alpha  occ. eigenvalues --   -0.61780  -0.61116  -0.60319  -0.59442  -0.58987
 Alpha  occ. eigenvalues --   -0.58857  -0.58042  -0.57999  -0.57511  -0.56643
 Alpha  occ. eigenvalues --   -0.56480  -0.56044  -0.55428  -0.54878  -0.54642
 Alpha  occ. eigenvalues --   -0.54152  -0.53825  -0.53503  -0.52816  -0.52432
 Alpha  occ. eigenvalues --   -0.51790  -0.51572  -0.51379  -0.51134  -0.50464
 Alpha  occ. eigenvalues --   -0.50085  -0.49871  -0.49522  -0.49402  -0.49244
 Alpha  occ. eigenvalues --   -0.48716  -0.48631  -0.48424  -0.48042  -0.47945
 Alpha  occ. eigenvalues --   -0.47715  -0.47408  -0.47318  -0.47083  -0.46916
 Alpha  occ. eigenvalues --   -0.46813  -0.46516  -0.46268  -0.45911  -0.45897
 Alpha  occ. eigenvalues --   -0.45712  -0.45575  -0.45226  -0.45002  -0.44912
 Alpha  occ. eigenvalues --   -0.44421  -0.44147  -0.43962  -0.43820  -0.43750
 Alpha  occ. eigenvalues --   -0.43355  -0.43167  -0.43049  -0.42776  -0.42638
 Alpha  occ. eigenvalues --   -0.42505  -0.42432  -0.42306  -0.42047  -0.41958
 Alpha  occ. eigenvalues --   -0.41843  -0.41587  -0.41407  -0.41264  -0.41092
 Alpha  occ. eigenvalues --   -0.40932  -0.40879  -0.40657  -0.40233  -0.40109
 Alpha  occ. eigenvalues --   -0.39950  -0.39917  -0.39657  -0.39194  -0.39076
 Alpha  occ. eigenvalues --   -0.38920  -0.38624  -0.38364  -0.38189  -0.37912
 Alpha  occ. eigenvalues --   -0.37878  -0.37757  -0.37569  -0.37458  -0.37335
 Alpha  occ. eigenvalues --   -0.37222  -0.37169  -0.36894  -0.36549  -0.36088
 Alpha  occ. eigenvalues --   -0.35691  -0.35186  -0.35085  -0.34712  -0.34564
 Alpha  occ. eigenvalues --   -0.34274  -0.34265  -0.33956  -0.33696  -0.33388
 Alpha  occ. eigenvalues --   -0.32450  -0.32166  -0.31811  -0.31776  -0.31698
 Alpha  occ. eigenvalues --   -0.30969  -0.30954  -0.30662  -0.30573  -0.29886
 Alpha  occ. eigenvalues --   -0.29105  -0.28752  -0.28313  -0.28241  -0.27061
 Alpha  occ. eigenvalues --   -0.26449  -0.25731  -0.23522  -0.21956
 Alpha virt. eigenvalues --   -0.09522  -0.07164  -0.01890  -0.00673   0.00559
 Alpha virt. eigenvalues --    0.02230   0.02323   0.02711   0.03829   0.04697
 Alpha virt. eigenvalues --    0.05127   0.05406   0.07439   0.08033   0.08464

 Mulliken charges:
               1
     1  Mg   0.835418
     2  C    0.042333
     3  C   -0.170238
     4  C   -0.170556
     5  C   -0.168221
     6  N   -0.645542
     7  C    0.348821
     8  C   -0.118547
     9  C   -0.165732
    10  C    0.366160
    11  C   -0.307441
    12  C   -0.197996
    13  C   -0.250880
    14  C    0.586832
    15  O   -0.460466
    16  O   -0.438608
    17  N   -0.724643
    18  C    0.339596
    19  C    0.010077
    20  C   -0.040241
    21  C    0.311702
    22  C   -0.352006
    23  C    0.230234
    24  O   -0.427262
    25  N   -0.694647
    26  C    0.320271
    27  C   -0.048480
    28  C    0.068147
    29  C    0.257963
    30  C    0.268009
    31  C   -0.289813
    32  C   -0.302968
    33  N   -0.695516
    34  C    0.266481
    35  C    0.045193
    36  C    0.061943
    37  C    0.310457
    38  C   -0.406717
    39  C    0.350820
    40  O   -0.435630
    41  C   -0.343919
    42  C    0.601107
    43  O   -0.423421
    44  O   -0.476118
    45  C   -0.061538
    46  C    0.005620
    47  C   -0.163364
    48  C    0.146958
    49  C   -0.393963
    50  C   -0.212152
    51  C   -0.159868
    52  C   -0.152087
    53  C   -0.041293
    54  C   -0.307964
    55  C   -0.153294
    56  C   -0.179237
    57  C   -0.157247
    58  C   -0.032800
    59  C   -0.309605
    60  C   -0.159489
    61  C   -0.198271
    62  C   -0.180391
    63  C   -0.054399
    64  C   -0.316632
    65  C   -0.266136
    66  H    0.074012
    67  H    0.154032
    68  H    0.104311
    69  H    0.132903
    70  H    0.095079
    71  H    0.113452
    72  H    0.118422
    73  H    0.117378
    74  H    0.102370
    75  H    0.132129
    76  H    0.140704
    77  H    0.144383
    78  H    0.116710
    79  H    0.158398
    80  H    0.092038
    81  H    0.050381
    82  H    0.115365
    83  H    0.121237
    84  H    0.115308
    85  H    0.105557
    86  H    0.127346
    87  H    0.142569
    88  H    0.152648
    89  H    0.104465
    90  H    0.161817
    91  H    0.111970
    92  H    0.112951
    93  H    0.078005
    94  H    0.137975
    95  H    0.120764
    96  H    0.108971
    97  H    0.068442
    98  H    0.112799
    99  H    0.117575
   100  H    0.079648
   101  H    0.080058
   102  H    0.057238
   103  H    0.055796
   104  H    0.106083
   105  H    0.118722
   106  H    0.079643
   107  H    0.077507
   108  H    0.080897
   109  H    0.088522
   110  H    0.084035
   111  H    0.074084
   112  H    0.059109
   113  H    0.042122
   114  H    0.097580
   115  H    0.103623
   116  H    0.107064
   117  H    0.097387
   118  H    0.068358
   119  H    0.096057
   120  H    0.098434
   121  H    0.084027
   122  H    0.095259
   123  H    0.088493
   124  H    0.107149
   125  H    0.086269
   126  H    0.107678
   127  H    0.087525
   128  H    0.054672
   129  H    0.117814
   130  H    0.124751
   131  H    0.102784
   132  H    0.086180
   133  O   -0.409705
   134  H    0.033867
 Sum of Mulliken charges =  -0.00000

 Dipole moment (field-independent basis, Debye):
    X=              0.5858    Y=             -4.5946    Z=             -1.8981  Tot=              5.0056
 Quadrupole moment (field-independent basis, Debye-Ang):
   XX=           -357.9106   YY=           -456.1888   ZZ=           -393.5289
   XY=             -8.9080   XZ=             24.5984   YZ=            -37.6221

 Normal termination of Gaussian 16 at Wed Oct  9 12:17:11 2019.
