 Gaussian 16, Revision A.03,
 Gaussian 16:  ES64L-G16RevA.03 25-Dec-2016

 ----------------------------------------------------------------------
 # td=(NStates=1) iop(3/107=0140000000,3/108=0140000000) iop(3/107=0140
 000000,3/108=0140000000) CAM-B3LYP/6-31G(d,p)
 ----------------------------------------------------------------------

 --
 TD
 --
 Symbolic Z-matrix:
 Charge =  0 Multiplicity = 1

                         Standard orientation:
 ---------------------------------------------------------------------
 Center     Atomic      Atomic             Coordinates (Angstroms)
 Number     Number       Type             X           Y           Z
 ---------------------------------------------------------------------
      1         12           0       -5.596224    1.156896    0.241654
      2          6           0       -5.070701   -2.219190   -0.301476
      3          6           0       -3.435276    1.180232    2.686388
      4          6           0       -6.240446    4.599907    0.705652
      5          6           0       -8.015193    1.137579   -2.360710
      6          7           0       -4.441152   -0.303534    1.076482
      7          6           0       -4.276322   -1.614488    0.693625
      8          6           0       -3.249803   -2.322057    1.475586
      9          6           0       -2.904075   -1.288412    2.528628
     10          6           0       -3.619949   -0.009669    2.032830
     11          6           0       -3.381885   -1.634643    3.929526
     12          6           0       -1.959992   -2.630477    0.639867
     13          6           0       -0.956289   -3.541326    1.241037
     14          6           0        0.244048   -3.852884    0.436422
     15          8           0        0.516076   -3.577616   -0.720415
     16          8           0        1.142590   -4.666350    1.242416
     17          7           0       -4.923994    2.631656    1.464846
     18          6           0       -4.062092    2.466489    2.497550
     19          6           0       -3.752149    3.655170    3.158668
     20          6           0       -4.592616    4.623342    2.606341
     21          6           0       -5.362493    3.925808    1.554279
     22          6           0       -2.760369    3.904440    4.330049
     23          6           0       -4.728874    6.025586    2.858056
     24          8           0       -3.932566    6.701364    3.650266
     25          7           0       -6.921699    2.607421   -0.681297
     26          6           0       -6.986140    3.968257   -0.333901
     27          6           0       -7.974944    4.578504   -1.152592
     28          6           0       -8.558352    3.580605   -2.101622
     29          6           0       -7.782660    2.410559   -1.742479
     30          6           0       -8.398237    5.952688   -1.181346
     31          6           0       -9.578019    3.727695   -3.178369
     32          6           0       -8.903295    4.054855   -4.506130
     33          7           0       -6.458265   -0.165995   -1.030131
     34          6           0       -7.436681   -0.020040   -2.052569
     35          6           0       -7.602181   -1.381711   -2.673570
     36          6           0       -6.723990   -2.212822   -2.020355
     37          6           0       -5.984309   -1.439914   -1.122966
     38          6           0       -8.638552   -1.712006   -3.802001
     39          6           0       -6.213469   -3.554306   -1.977372
     40          8           0       -6.580564   -4.496954   -2.655549
     41          6           0       -5.150735   -3.618922   -0.855047
     42          6           0       -5.361941   -4.667511    0.182495
     43          8           0       -5.787392   -4.455166    1.298699
     44          8           0       -4.895508   -5.930355   -0.145864
     45          6           0       -5.135873   -6.986743    0.739881
     46          6           0        2.293225   -5.074464    0.519207
     47          6           0        3.423422   -4.086180    0.886176
     48          6           0        4.105870   -3.269641    0.099846
     49          6           0        3.618116   -3.070184   -1.378523
     50          6           0        5.183739   -2.502545    0.619089
     51          6           0        6.592396   -2.832626   -0.021168
     52          6           0        7.655127   -1.906482    0.520585
     53          6           0        9.062194   -2.015132   -0.002109
     54          6           0        9.634024   -3.438335    0.373673
     55          6           0       10.047261   -0.879419    0.465018
     56          6           0       11.412508   -0.770760   -0.282194
     57          6           0       12.235058    0.317785    0.237373
     58          6           0       13.549644    0.513933   -0.561315
     59          6           0       14.575423   -0.657019   -0.245121
     60          6           0       14.350026    1.851881   -0.076355
     61          6           0       15.507346    2.184561   -1.128877
     62          6           0       16.038204    3.530711   -0.591156
     63          6           0       17.283472    3.877057   -1.304052
     64          6           0       17.264814    3.930301   -2.885888
     65          6           0       17.953145    5.303213   -0.916977
     66          1           0       -2.365311    1.155792    3.372051
     67          1           0       -6.595435    5.709093    0.838495
     68          1           0       -8.801932    1.217984   -3.200797
     69          1           0       -3.567657   -3.301201    1.734097
     70          1           0       -1.797196   -0.983209    2.850985
     71          1           0       -2.752934   -2.311646    4.535294
     72          1           0       -2.982385   -0.603377    4.624628
     73          1           0       -4.640454   -1.984988    4.058741
     74          1           0       -2.354004   -3.102008   -0.404630
     75          1           0       -1.264174   -1.866891    0.288554
     76          1           0       -0.834279   -3.125744    2.197697
     77          1           0       -1.299503   -4.621410    1.568062
     78          1           0       -1.734858    3.830852    4.045818
     79          1           0       -2.891670    4.981648    4.901120
     80          1           0       -2.782683    3.248416    5.302263
     81          1           0       -5.610276    6.561477    2.316963
     82          1           0      -10.093064    2.859769   -3.089051
     83          1           0      -10.109988    4.750313   -2.906551
     84          1           0       -9.551516    4.205824   -5.341660
     85          1           0       -8.093327    4.874298   -4.540558
     86          1           0       -8.243258    3.124557   -4.684287
     87          1           0       -8.378761   -1.069557   -4.596743
     88          1           0       -8.476655   -2.727576   -4.046477
     89          1           0       -9.551172   -1.329360   -3.505890
     90          1           0       -4.076514   -3.861778   -1.298035
     91          1           0        2.463889   -6.016277    1.064699
     92          1           0        2.290527   -5.451945   -0.511678
     93          1           0        3.715054   -4.148853    1.969148
     94          1           0        2.486546   -3.297350   -1.637886
     95          1           0        3.830988   -2.014658   -1.374162
     96          1           0        4.348348   -3.733036   -1.938089
     97          1           0        5.025448   -1.440909    0.566371
     98          1           0        5.519225   -2.829336    1.761670
     99          1           0        6.885894   -3.797198    0.131214
    100          1           0        6.270128   -2.927914   -0.989253
    101          1           0        7.281360   -0.676507    0.443101
    102          1           0        7.653528   -2.126229    1.538896
    103          1           0        8.917612   -2.052246   -1.173998
    104          1           0        8.884105   -4.179106   -0.244184
    105          1           0       10.677619   -3.497674    0.157809
    106          1           0        9.520980   -3.374849    1.582466
    107          1           0        9.660288    0.109829    0.392662
    108          1           0       10.309336   -0.995905    1.529783
    109          1           0       12.161720   -1.620430   -0.490785
    110          1           0       11.133770   -0.415443   -1.346859
    111          1           0       11.789930    1.108648   -0.019699
    112          1           0       12.416176    0.069906    1.147298
    113          1           0       13.371592    0.608162   -1.550262
    114          1           0       14.850325   -0.523144    0.866699
    115          1           0       13.980684   -1.453215   -0.433694
    116          1           0       15.522652   -0.559604   -0.641421
    117          1           0       13.518488    2.639171    0.096276
    118          1           0       14.665541    1.818761    0.982226
    119          1           0       16.140305    1.380874   -1.392577
    120          1           0       14.912309    2.376660   -2.021078
    121          1           0       15.225650    4.311362   -0.877059
    122          1           0       16.328398    3.484393    0.437049
    123          1           0       17.942819    3.053689   -1.065057
    124          1           0       16.616296    4.675000   -3.238895
    125          1           0       18.080958    4.054432   -3.544842
    126          1           0       16.810794    2.975027   -3.241129
    127          1           0       18.176396    5.379418    0.211487
    128          1           0       18.890994    5.634920   -1.170486
    129          1           0       17.376776    6.100829   -1.313477
    130          1           0       -5.118343   -7.910470    0.246123
    131          1           0       -6.239913   -6.862822    1.203404
    132          1           0       -4.366640   -6.910167    1.474871
    133          8           0       -7.845101    6.859572   -0.501535
    134          1           0       -9.036333    6.109894   -2.229706
 ---------------------------------------------------------------------

 SCF Done:  E(RCAM-B3LYP) =  -3043.38613784     A.U. after   16 cycles

 Excitation energies and oscillator strengths:

 Excited State   1:      Singlet-A      2.0630 eV  600.98 nm  f=0.1053  <S**2>=0.000
     243 -> 245        0.13712
     243 -> 246       -0.31185
     244 -> 245        0.59832
     244 -> 246        0.12524
 This state for optimization and/or second-order correction.
 Total Energy, E(TD-HF/TD-DFT) =  -3043.31032305
 Copying the excited state density for this state as the 1-particle RhoCI density.

 The electronic state is 1-A.
 Alpha  occ. eigenvalues --  -46.82188 -19.22683 -19.21752 -19.19543 -19.18359
 Alpha  occ. eigenvalues --  -19.18093 -19.17258 -19.16691 -14.39679 -14.37831
 Alpha  occ. eigenvalues --  -14.37511 -14.37257 -10.36583 -10.36483 -10.32454
 Alpha  occ. eigenvalues --  -10.31044 -10.30790 -10.28941 -10.27858 -10.27640
 Alpha  occ. eigenvalues --  -10.27553 -10.27160 -10.27138 -10.27065 -10.27039
 Alpha  occ. eigenvalues --  -10.27034 -10.26869 -10.26665 -10.26525 -10.26194
 Alpha  occ. eigenvalues --  -10.25977 -10.25752 -10.25305 -10.25303 -10.25270
 Alpha  occ. eigenvalues --  -10.25260 -10.25162 -10.25138 -10.25078 -10.24571
 Alpha  occ. eigenvalues --  -10.24533 -10.23876 -10.23380 -10.23333 -10.23179
 Alpha  occ. eigenvalues --  -10.22817 -10.22703 -10.22640 -10.22539 -10.22015
 Alpha  occ. eigenvalues --  -10.21993 -10.21840 -10.21608 -10.21580 -10.21423
 Alpha  occ. eigenvalues --  -10.21298 -10.21106 -10.21105 -10.21000 -10.20578
 Alpha  occ. eigenvalues --  -10.20457 -10.19774 -10.19292 -10.18992 -10.18901
 Alpha  occ. eigenvalues --  -10.17013  -3.10763  -1.85704  -1.85222  -1.85186
 Alpha  occ. eigenvalues --   -1.14043  -1.12152  -1.08092  -1.05764  -1.05080
 Alpha  occ. eigenvalues --   -1.04452  -1.03163  -1.01682  -1.00753  -0.99950
 Alpha  occ. eigenvalues --   -0.97957  -0.90027  -0.87970  -0.86380  -0.85891
 Alpha  occ. eigenvalues --   -0.85754  -0.84854  -0.84169  -0.84103  -0.83686
 Alpha  occ. eigenvalues --   -0.83555  -0.83332  -0.83003  -0.81526  -0.79605
 Alpha  occ. eigenvalues --   -0.79490  -0.78250  -0.77877  -0.77513  -0.76347
 Alpha  occ. eigenvalues --   -0.75613  -0.75071  -0.74221  -0.73613  -0.72554
 Alpha  occ. eigenvalues --   -0.71013  -0.70820  -0.70525  -0.70189  -0.69985
 Alpha  occ. eigenvalues --   -0.69861  -0.69052  -0.67607  -0.67401  -0.66802
 Alpha  occ. eigenvalues --   -0.66488  -0.65171  -0.64569  -0.63777  -0.63053
 Alpha  occ. eigenvalues --   -0.62648  -0.61127  -0.60995  -0.60211  -0.59560
 Alpha  occ. eigenvalues --   -0.58922  -0.58640  -0.58117  -0.57748  -0.57471
 Alpha  occ. eigenvalues --   -0.56931  -0.56104  -0.55861  -0.55007  -0.54967
 Alpha  occ. eigenvalues --   -0.54361  -0.54068  -0.53667  -0.53031  -0.52798
 Alpha  occ. eigenvalues --   -0.52376  -0.52157  -0.51734  -0.51267  -0.50878
 Alpha  occ. eigenvalues --   -0.50605  -0.50539  -0.50240  -0.49835  -0.49719
 Alpha  occ. eigenvalues --   -0.49171  -0.48977  -0.48568  -0.48364  -0.48006
 Alpha  occ. eigenvalues --   -0.47988  -0.47914  -0.47561  -0.47466  -0.47165
 Alpha  occ. eigenvalues --   -0.46763  -0.46502  -0.46361  -0.46106  -0.46067
 Alpha  occ. eigenvalues --   -0.45752  -0.45548  -0.45492  -0.45197  -0.44887
 Alpha  occ. eigenvalues --   -0.44858  -0.44566  -0.44225  -0.44051  -0.43910
 Alpha  occ. eigenvalues --   -0.43866  -0.43670  -0.43610  -0.43138  -0.42792
 Alpha  occ. eigenvalues --   -0.42574  -0.42412  -0.42342  -0.42208  -0.41866
 Alpha  occ. eigenvalues --   -0.41698  -0.41481  -0.41349  -0.41191  -0.41010
 Alpha  occ. eigenvalues --   -0.40656  -0.40575  -0.40541  -0.40143  -0.40120
 Alpha  occ. eigenvalues --   -0.39929  -0.39879  -0.39694  -0.39479  -0.39311
 Alpha  occ. eigenvalues --   -0.39048  -0.38742  -0.38730  -0.38569  -0.38481
 Alpha  occ. eigenvalues --   -0.38012  -0.37855  -0.37817  -0.37645  -0.37411
 Alpha  occ. eigenvalues --   -0.37113  -0.36969  -0.36222  -0.35950  -0.35854
 Alpha  occ. eigenvalues --   -0.35806  -0.35418  -0.34917  -0.34811  -0.34307
 Alpha  occ. eigenvalues --   -0.33870  -0.33738  -0.33676  -0.33541  -0.33151
 Alpha  occ. eigenvalues --   -0.32690  -0.32576  -0.32259  -0.32052  -0.31841
 Alpha  occ. eigenvalues --   -0.31723  -0.31583  -0.31237  -0.30336  -0.29502
 Alpha  occ. eigenvalues --   -0.29363  -0.29122  -0.28655  -0.27986  -0.27206
 Alpha  occ. eigenvalues --   -0.26796  -0.26455  -0.23627  -0.22692
 Alpha virt. eigenvalues --   -0.09225  -0.07833  -0.02570  -0.01912  -0.00219
 Alpha virt. eigenvalues --    0.01253   0.01703   0.02661   0.03302   0.04339
 Alpha virt. eigenvalues --    0.04612   0.05094   0.06101   0.06857   0.07844

 Mulliken charges:
               1
     1  Mg   0.828667
     2  C    0.073902
     3  C   -0.207547
     4  C   -0.174345
     5  C   -0.180394
     6  N   -0.664919
     7  C    0.316487
     8  C   -0.145929
     9  C   -0.156577
    10  C    0.420990
    11  C   -0.274101
    12  C   -0.182840
    13  C   -0.251828
    14  C    0.608440
    15  O   -0.450417
    16  O   -0.486461
    17  N   -0.699656
    18  C    0.298501
    19  C    0.078866
    20  C    0.007979
    21  C    0.311974
    22  C   -0.392544
    23  C    0.206726
    24  O   -0.454538
    25  N   -0.688040
    26  C    0.315663
    27  C   -0.044439
    28  C    0.030118
    29  C    0.291258
    30  C    0.220163
    31  C   -0.227634
    32  C   -0.308193
    33  N   -0.720035
    34  C    0.306860
    35  C   -0.035056
    36  C    0.073976
    37  C    0.271308
    38  C   -0.356939
    39  C    0.362674
    40  O   -0.452851
    41  C   -0.336497
    42  C    0.627078
    43  O   -0.454490
    44  O   -0.458755
    45  C   -0.075898
    46  C    0.000259
    47  C   -0.137313
    48  C    0.133141
    49  C   -0.362546
    50  C   -0.239637
    51  C   -0.192396
    52  C   -0.129454
    53  C   -0.062703
    54  C   -0.291414
    55  C   -0.170405
    56  C   -0.205976
    57  C   -0.117963
    58  C   -0.090984
    59  C   -0.304860
    60  C   -0.192825
    61  C   -0.190499
    62  C   -0.144401
    63  C   -0.055877
    64  C   -0.332061
    65  C   -0.328323
    66  H    0.072698
    67  H    0.160093
    68  H    0.090151
    69  H    0.136734
    70  H    0.103537
    71  H    0.122049
    72  H    0.064129
    73  H    0.097416
    74  H    0.081419
    75  H    0.129435
    76  H    0.151528
    77  H    0.131111
    78  H    0.134597
    79  H    0.149364
    80  H    0.107618
    81  H    0.096909
    82  H    0.123311
    83  H    0.108204
    84  H    0.122401
    85  H    0.121824
    86  H    0.092968
    87  H    0.136096
    88  H    0.155440
    89  H    0.139528
    90  H    0.162961
    91  H    0.104303
    92  H    0.124359
    93  H    0.070336
    94  H    0.150218
    95  H    0.110289
    96  H    0.112064
    97  H    0.106425
    98  H    0.073465
    99  H    0.107804
   100  H    0.096891
   101  H    0.040836
   102  H    0.097250
   103  H    0.070477
   104  H    0.090476
   105  H    0.118835
   106  H    0.076863
   107  H    0.099763
   108  H    0.085087
   109  H    0.079762
   110  H    0.070746
   111  H    0.095020
   112  H    0.093861
   113  H    0.084435
   114  H    0.084870
   115  H    0.100106
   116  H    0.105555
   117  H    0.068435
   118  H    0.085925
   119  H    0.106462
   120  H    0.110772
   121  H    0.087977
   122  H    0.106970
   123  H    0.086527
   124  H    0.102938
   125  H    0.111070
   126  H    0.082618
   127  H    0.070700
   128  H    0.110939
   129  H    0.103839
   130  H    0.135554
   131  H    0.114429
   132  H    0.121457
   133  O   -0.447068
   134  H    0.044368
 Sum of Mulliken charges =  -0.00000

 Dipole moment (field-independent basis, Debye):
    X=              0.5017    Y=             -6.0038    Z=             -1.8520  Tot=              6.3029
 Quadrupole moment (field-independent basis, Debye-Ang):
   XX=           -378.9742   YY=           -454.1962   ZZ=           -394.8846
   XY=             19.4052   XZ=             25.9671   YZ=            -33.7944

 Normal termination of Gaussian 16 at Thu Oct  3 16:20:04 2019.
