 Gaussian 16, Revision A.03,
 Gaussian 16:  ES64L-G16RevA.03 25-Dec-2016

 ----------------------------------------------------------------------
 # td=(NStates=1) iop(3/107=0140000000,3/108=0140000000) iop(3/107=0140
 000000,3/108=0140000000) CAM-B3LYP/6-31G(d,p)
 ----------------------------------------------------------------------

 --
 TD
 --
 Symbolic Z-matrix:
 Charge =  0 Multiplicity = 1

                         Standard orientation:
 ---------------------------------------------------------------------
 Center     Atomic      Atomic             Coordinates (Angstroms)
 Number     Number       Type             X           Y           Z
 ---------------------------------------------------------------------
      1         12           0       -5.677967    1.168239    0.246765
      2          6           0       -5.094911   -2.197810   -0.319434
      3          6           0       -3.408149    1.223789    2.743706
      4          6           0       -6.234862    4.556804    0.658267
      5          6           0       -7.968012    1.200935   -2.327290
      6          7           0       -4.439040   -0.326577    0.983309
      7          6           0       -4.325970   -1.696868    0.634890
      8          6           0       -3.176271   -2.372689    1.351820
      9          6           0       -2.873598   -1.390079    2.543403
     10          6           0       -3.621625   -0.036996    2.112212
     11          6           0       -3.513759   -1.838812    3.921587
     12          6           0       -1.961963   -2.708660    0.644272
     13          6           0       -0.979789   -3.549488    1.367034
     14          6           0        0.257593   -3.820710    0.526052
     15          8           0        0.609134   -3.370879   -0.476242
     16          8           0        1.078205   -4.701900    1.155216
     17          7           0       -4.935875    2.601061    1.567356
     18          6           0       -4.069366    2.437130    2.499017
     19          6           0       -3.775797    3.622190    3.129786
     20          6           0       -4.476517    4.605517    2.599751
     21          6           0       -5.284281    3.995721    1.475523
     22          6           0       -2.846376    3.841925    4.317131
     23          6           0       -4.659485    6.069444    2.978212
     24          8           0       -3.972998    6.604238    3.805924
     25          7           0       -6.861982    2.631458   -0.693851
     26          6           0       -7.017279    3.899913   -0.280201
     27          6           0       -7.927334    4.665363   -1.202687
     28          6           0       -8.382971    3.708458   -2.108872
     29          6           0       -7.812606    2.442561   -1.740164
     30          6           0       -8.288608    5.983571   -1.194766
     31          6           0       -9.509120    3.837846   -3.227268
     32          6           0       -8.698230    4.055139   -4.628274
     33          7           0       -6.345727   -0.132083   -1.132610
     34          6           0       -7.360450   -0.022313   -2.127842
     35          6           0       -7.584790   -1.357512   -2.713359
     36          6           0       -6.704668   -2.270815   -2.076466
     37          6           0       -6.026911   -1.364265   -1.130675
     38          6           0       -8.550631   -1.704120   -3.731428
     39          6           0       -6.317795   -3.687096   -1.930931
     40          8           0       -6.740820   -4.571730   -2.603434
     41          6           0       -5.105758   -3.590639   -0.886418
     42          6           0       -5.304938   -4.676570    0.220448
     43          8           0       -5.695100   -4.498480    1.289215
     44          8           0       -5.099661   -5.911951   -0.386515
     45          6           0       -5.495728   -6.994588    0.546974
     46          6           0        2.487994   -4.917065    0.605597
     47          6           0        3.381638   -3.884283    1.084506
     48          6           0        3.981542   -3.090207    0.209227
     49          6           0        3.700276   -3.020380   -1.238873
     50          6           0        5.094637   -2.187471    0.737884
     51          6           0        6.547911   -2.576534    0.090351
     52          6           0        7.565673   -1.704148    0.590190
     53          6           0        9.005526   -1.949678   -0.100522
     54          6           0        9.593374   -3.341756    0.036979
     55          6           0        9.985243   -1.000170    0.430891
     56          6           0       11.372388   -0.869357   -0.245318
     57          6           0       12.337259    0.158664    0.216251
     58          6           0       13.695335    0.402581   -0.470044
     59          6           0       14.631464   -0.814115   -0.118804
     60          6           0       14.398641    1.683321   -0.152761
     61          6           0       15.584832    2.015981   -1.007629
     62          6           0       16.182299    3.417974   -0.538099
     63          6           0       17.421715    3.862816   -1.405320
     64          6           0       17.277194    3.840827   -2.974248
     65          6           0       17.798476    5.310505   -0.930200
     66          1           0       -2.777780    1.076499    3.634281
     67          1           0       -6.405268    5.662204    0.950793
     68          1           0       -8.758214    1.287015   -3.274099
     69          1           0       -3.715610   -3.253617    1.935604
     70          1           0       -1.844305   -1.130328    2.549902
     71          1           0       -3.039654   -2.722135    4.259253
     72          1           0       -3.225387   -1.109179    4.536033
     73          1           0       -4.699993   -2.026168    3.849477
     74          1           0       -2.373256   -3.177447   -0.300166
     75          1           0       -1.743850   -1.670928    0.368883
     76          1           0       -0.661649   -2.976972    2.235223
     77          1           0       -1.551866   -4.474376    1.713776
     78          1           0       -1.747020    4.026206    3.955099
     79          1           0       -3.149509    4.752868    5.025152
     80          1           0       -2.792242    2.672849    4.858251
     81          1           0       -5.316490    6.806872    2.510673
     82          1           0      -10.074000    2.995641   -3.179724
     83          1           0       -9.969210    4.835813   -3.194847
     84          1           0       -9.454511    4.025995   -5.299381
     85          1           0       -8.252539    5.067761   -4.649689
     86          1           0       -7.900995    3.477806   -4.939204
     87          1           0       -8.488172   -0.771689   -4.433182
     88          1           0       -8.283594   -2.647896   -4.345182
     89          1           0       -9.647869   -1.749614   -3.284377
     90          1           0       -4.307356   -3.956485   -1.563484
     91          1           0        2.677598   -5.750866    1.044691
     92          1           0        2.356399   -5.193880   -0.360004
     93          1           0        3.606960   -3.611090    2.125709
     94          1           0        2.585159   -3.265245   -1.490986
     95          1           0        3.865418   -2.072446   -1.784267
     96          1           0        4.313842   -3.821530   -1.593983
     97          1           0        4.830193   -1.174028    0.558201
     98          1           0        4.979204   -2.237693    1.902070
     99          1           0        6.706570   -3.578267    0.154271
    100          1           0        6.377889   -2.359305   -1.031888
    101          1           0        7.246044   -0.738592    0.660031
    102          1           0        7.803270   -1.882381    1.649299
    103          1           0        8.927535   -1.701390   -1.264683
    104          1           0        9.069114   -4.279709   -0.561897
    105          1           0       10.301683   -3.323759   -0.605447
    106          1           0        9.710073   -3.620229    1.097473
    107          1           0        9.534411    0.022851    0.318834
    108          1           0       10.117354   -1.085684    1.438181
    109          1           0       11.849147   -1.807313   -0.311003
    110          1           0       11.044591   -0.811730   -1.458496
    111          1           0       11.771787    1.082980    0.261869
    112          1           0       12.536318    0.079136    1.315447
    113          1           0       13.591151    0.281171   -1.527045
    114          1           0       15.049192   -0.828385    0.969821
    115          1           0       13.908001   -1.763767   -0.361592
    116          1           0       15.425157   -0.768515   -0.938250
    117          1           0       13.654312    2.566139   -0.310980
    118          1           0       14.631208    1.709113    0.902798
    119          1           0       16.302001    1.322782   -0.853779
    120          1           0       15.322194    2.089763   -2.034694
    121          1           0       15.424234    4.180612   -0.776271
    122          1           0       16.280071    3.492801    0.678888
    123          1           0       18.340543    3.261696   -1.146169
    124          1           0       16.457600    4.620533   -3.015687
    125          1           0       18.168205    4.184646   -3.345440
    126          1           0       17.021831    2.843512   -3.492788
    127          1           0       18.067132    5.508168    0.141142
    128          1           0       18.673352    5.423722   -1.537921
    129          1           0       17.197265    6.122446   -1.227896
    130          1           0       -5.234543   -8.046756    0.196925
    131          1           0       -6.597868   -6.987446    0.689763
    132          1           0       -4.877477   -6.873580    1.452529
    133          8           0       -7.862177    6.802395   -0.435439
    134          1           0       -8.807247    6.298735   -2.050642
 ---------------------------------------------------------------------

 SCF Done:  E(RCAM-B3LYP) =  -3043.47178594     A.U. after   15 cycles

 Excitation energies and oscillator strengths:

 Excited State   1:      Singlet-A      2.1467 eV  577.56 nm  f=0.1655  <S**2>=0.000
     243 -> 246        0.25353
     244 -> 245        0.64773
 This state for optimization and/or second-order correction.
 Total Energy, E(TD-HF/TD-DFT) =  -3043.39289632
 Copying the excited state density for this state as the 1-particle RhoCI density.

 The electronic state is 1-A.
 Alpha  occ. eigenvalues --  -46.81503 -19.22086 -19.18917 -19.18469 -19.17604
 Alpha  occ. eigenvalues --  -19.17320 -19.16413 -19.15496 -14.38192 -14.37444
 Alpha  occ. eigenvalues --  -14.37029 -14.36440 -10.35039 -10.33561 -10.31822
 Alpha  occ. eigenvalues --  -10.30740 -10.28295 -10.27806 -10.27787 -10.26556
 Alpha  occ. eigenvalues --  -10.26522 -10.26485 -10.26481 -10.26099 -10.26080
 Alpha  occ. eigenvalues --  -10.25987 -10.25893 -10.25595 -10.25297 -10.24992
 Alpha  occ. eigenvalues --  -10.24781 -10.24777 -10.24415 -10.24268 -10.24108
 Alpha  occ. eigenvalues --  -10.24055 -10.23645 -10.23525 -10.23443 -10.23300
 Alpha  occ. eigenvalues --  -10.23086 -10.22722 -10.22626 -10.22539 -10.22414
 Alpha  occ. eigenvalues --  -10.22046 -10.22036 -10.21979 -10.21940 -10.21898
 Alpha  occ. eigenvalues --  -10.21848 -10.21801 -10.21568 -10.21169 -10.21155
 Alpha  occ. eigenvalues --  -10.21043 -10.21002 -10.20441 -10.20436 -10.20313
 Alpha  occ. eigenvalues --  -10.20278 -10.20141 -10.19983 -10.19921 -10.19525
 Alpha  occ. eigenvalues --  -10.19350  -3.10040  -1.84987  -1.84479  -1.84475
 Alpha  occ. eigenvalues --   -1.14569  -1.13449  -1.08833  -1.08161  -1.07132
 Alpha  occ. eigenvalues --   -1.05943  -1.03172  -1.01152  -1.00883  -0.98737
 Alpha  occ. eigenvalues --   -0.96614  -0.87608  -0.86917  -0.86431  -0.85666
 Alpha  occ. eigenvalues --   -0.85295  -0.84747  -0.84148  -0.83635  -0.83539
 Alpha  occ. eigenvalues --   -0.82875  -0.82584  -0.81327  -0.80779  -0.79611
 Alpha  occ. eigenvalues --   -0.78933  -0.78730  -0.77681  -0.77002  -0.76214
 Alpha  occ. eigenvalues --   -0.75256  -0.74488  -0.73816  -0.72488  -0.71810
 Alpha  occ. eigenvalues --   -0.71387  -0.71001  -0.70913  -0.69467  -0.69018
 Alpha  occ. eigenvalues --   -0.68898  -0.68627  -0.67459  -0.67391  -0.66496
 Alpha  occ. eigenvalues --   -0.65837  -0.65229  -0.64019  -0.63142  -0.62498
 Alpha  occ. eigenvalues --   -0.61190  -0.60550  -0.60045  -0.58841  -0.58406
 Alpha  occ. eigenvalues --   -0.58332  -0.58290  -0.57939  -0.57587  -0.57555
 Alpha  occ. eigenvalues --   -0.55859  -0.55440  -0.55170  -0.54765  -0.53907
 Alpha  occ. eigenvalues --   -0.53733  -0.53377  -0.52698  -0.52567  -0.52029
 Alpha  occ. eigenvalues --   -0.51811  -0.51684  -0.51352  -0.50834  -0.50579
 Alpha  occ. eigenvalues --   -0.50302  -0.50170  -0.49641  -0.49253  -0.49109
 Alpha  occ. eigenvalues --   -0.48574  -0.48472  -0.48391  -0.48181  -0.47849
 Alpha  occ. eigenvalues --   -0.47619  -0.47285  -0.47225  -0.47185  -0.46850
 Alpha  occ. eigenvalues --   -0.46845  -0.46681  -0.46366  -0.46311  -0.45989
 Alpha  occ. eigenvalues --   -0.45856  -0.45781  -0.45694  -0.45339  -0.45172
 Alpha  occ. eigenvalues --   -0.44719  -0.44573  -0.44205  -0.44018  -0.43844
 Alpha  occ. eigenvalues --   -0.43465  -0.43101  -0.42899  -0.42769  -0.42679
 Alpha  occ. eigenvalues --   -0.42335  -0.42245  -0.42186  -0.41994  -0.41771
 Alpha  occ. eigenvalues --   -0.41641  -0.41541  -0.41505  -0.41357  -0.41148
 Alpha  occ. eigenvalues --   -0.41058  -0.40918  -0.40505  -0.40402  -0.40308
 Alpha  occ. eigenvalues --   -0.39954  -0.39855  -0.39768  -0.39448  -0.39311
 Alpha  occ. eigenvalues --   -0.39089  -0.38822  -0.38727  -0.38204  -0.38142
 Alpha  occ. eigenvalues --   -0.37856  -0.37440  -0.37308  -0.37218  -0.36895
 Alpha  occ. eigenvalues --   -0.36733  -0.36308  -0.36085  -0.35964  -0.35470
 Alpha  occ. eigenvalues --   -0.35372  -0.35228  -0.34659  -0.34497  -0.34350
 Alpha  occ. eigenvalues --   -0.34326  -0.33993  -0.33902  -0.33602  -0.33114
 Alpha  occ. eigenvalues --   -0.32748  -0.32505  -0.32039  -0.31953  -0.31772
 Alpha  occ. eigenvalues --   -0.31086  -0.30851  -0.30617  -0.30000  -0.29809
 Alpha  occ. eigenvalues --   -0.28682  -0.28333  -0.27918  -0.27785  -0.27673
 Alpha  occ. eigenvalues --   -0.27078  -0.26473  -0.22945  -0.21939
 Alpha virt. eigenvalues --   -0.08173  -0.06050  -0.00715  -0.00471   0.01040
 Alpha virt. eigenvalues --    0.03426   0.04043   0.04192   0.04487   0.05248
 Alpha virt. eigenvalues --    0.05923   0.06378   0.07813   0.08612   0.09291

 Mulliken charges:
               1
     1  Mg   0.818070
     2  C    0.071528
     3  C   -0.199841
     4  C   -0.169507
     5  C   -0.216398
     6  N   -0.651536
     7  C    0.306886
     8  C   -0.162040
     9  C   -0.164221
    10  C    0.304681
    11  C   -0.302414
    12  C   -0.141485
    13  C   -0.263436
    14  C    0.597332
    15  O   -0.425497
    16  O   -0.523278
    17  N   -0.724271
    18  C    0.405178
    19  C    0.045103
    20  C   -0.014217
    21  C    0.251937
    22  C   -0.354720
    23  C    0.235614
    24  O   -0.395926
    25  N   -0.669174
    26  C    0.316219
    27  C   -0.008128
    28  C    0.034295
    29  C    0.277096
    30  C    0.216706
    31  C   -0.234233
    32  C   -0.339187
    33  N   -0.720815
    34  C    0.283282
    35  C    0.017871
    36  C    0.017355
    37  C    0.334179
    38  C   -0.384074
    39  C    0.376365
    40  O   -0.427375
    41  C   -0.347937
    42  C    0.616868
    43  O   -0.417109
    44  O   -0.475330
    45  C   -0.094489
    46  C    0.034649
    47  C   -0.142632
    48  C    0.148039
    49  C   -0.387771
    50  C   -0.245267
    51  C   -0.162027
    52  C   -0.156980
    53  C   -0.075831
    54  C   -0.282458
    55  C   -0.160172
    56  C   -0.172578
    57  C   -0.168314
    58  C   -0.057533
    59  C   -0.301561
    60  C   -0.158711
    61  C   -0.176271
    62  C   -0.161242
    63  C   -0.077527
    64  C   -0.307681
    65  C   -0.324216
    66  H    0.078565
    67  H    0.140679
    68  H    0.080566
    69  H    0.107099
    70  H    0.107289
    71  H    0.115923
    72  H    0.119467
    73  H    0.118890
    74  H    0.101272
    75  H    0.115338
    76  H    0.141114
    77  H    0.134915
    78  H    0.126216
    79  H    0.150363
    80  H    0.065865
    81  H    0.101255
    82  H    0.124279
    83  H    0.126021
    84  H    0.120761
    85  H    0.112209
    86  H    0.127346
    87  H    0.106191
    88  H    0.145252
    89  H    0.127030
    90  H    0.167480
    91  H    0.114619
    92  H    0.123406
    93  H    0.083587
    94  H    0.147391
    95  H    0.111197
    96  H    0.124317
    97  H    0.105388
    98  H    0.069781
    99  H    0.110558
   100  H    0.088127
   101  H    0.098453
   102  H    0.082919
   103  H    0.059504
   104  H    0.056100
   105  H    0.126747
   106  H    0.105951
   107  H    0.084663
   108  H    0.096130
   109  H    0.101296
   110  H    0.041116
   111  H    0.085107
   112  H    0.081221
   113  H    0.085932
   114  H    0.094700
   115  H    0.078195
   116  H    0.096439
   117  H    0.067582
   118  H    0.086917
   119  H    0.106507
   120  H    0.098921
   121  H    0.087637
   122  H    0.069753
   123  H    0.080678
   124  H    0.102121
   125  H    0.117910
   126  H    0.101214
   127  H    0.101768
   128  H    0.096623
   129  H    0.106151
   130  H    0.120176
   131  H    0.135966
   132  H    0.127895
   133  O   -0.433155
   134  H    0.047262
 Sum of Mulliken charges =  -0.00000

 Dipole moment (field-independent basis, Debye):
    X=              1.8452    Y=             -3.7897    Z=             -0.9821  Tot=              4.3279
 Quadrupole moment (field-independent basis, Debye-Ang):
   XX=           -360.0233   YY=           -432.6249   ZZ=           -391.8254
   XY=             10.7360   XZ=             15.1554   YZ=            -31.3409

 Normal termination of Gaussian 16 at Thu Oct  3 22:58:34 2019.
