 Gaussian 16, Revision A.03,
 Gaussian 16:  ES64L-G16RevA.03 25-Dec-2016

 ----------------------------------------------------------------------
 # td=(NStates=1) iop(3/107=0140000000,3/108=0140000000) iop(3/107=0140
 000000,3/108=0140000000) CAM-B3LYP/6-31G(d,p)
 ----------------------------------------------------------------------

 --
 TD
 --
 Symbolic Z-matrix:
 Charge =  0 Multiplicity = 1

                         Standard orientation:
 ---------------------------------------------------------------------
 Center     Atomic      Atomic             Coordinates (Angstroms)
 Number     Number       Type             X           Y           Z
 ---------------------------------------------------------------------
      1         12           0       -5.684943    1.296704    0.075723
      2          6           0       -5.030676   -2.117232   -0.352198
      3          6           0       -3.347415    1.234327    2.700009
      4          6           0       -6.244441    4.532966    0.625561
      5          6           0       -7.932331    1.172456   -2.390903
      6          7           0       -4.399649   -0.291974    1.144453
      7          6           0       -4.169163   -1.618066    0.697954
      8          6           0       -3.177767   -2.350023    1.485095
      9          6           0       -2.883877   -1.290803    2.577180
     10          6           0       -3.555502    0.025123    2.110985
     11          6           0       -3.319617   -1.670856    3.963716
     12          6           0       -1.976199   -2.768950    0.667419
     13          6           0       -0.997259   -3.600316    1.546187
     14          6           0        0.267014   -3.952425    0.647117
     15          8           0        0.331967   -3.692098   -0.486323
     16          8           0        1.093780   -4.758805    1.428375
     17          7           0       -4.897876    2.663665    1.480972
     18          6           0       -4.002714    2.406437    2.379160
     19          6           0       -3.758399    3.654596    3.140516
     20          6           0       -4.531673    4.689939    2.521380
     21          6           0       -5.320615    3.949916    1.435082
     22          6           0       -2.769776    3.789695    4.343953
     23          6           0       -4.708427    6.036832    3.020497
     24          8           0       -4.067865    6.558353    3.875127
     25          7           0       -6.888017    2.579381   -0.696590
     26          6           0       -6.921571    3.928611   -0.363292
     27          6           0       -7.891216    4.556416   -1.217044
     28          6           0       -8.311943    3.603729   -2.066120
     29          6           0       -7.686929    2.399572   -1.813261
     30          6           0       -8.258600    6.025209   -1.132958
     31          6           0       -9.350879    3.805218   -3.253441
     32          6           0       -8.649819    4.016776   -4.553248
     33          7           0       -6.384106   -0.138101   -1.086360
     34          6           0       -7.343651   -0.031321   -2.078379
     35          6           0       -7.534365   -1.311423   -2.714559
     36          6           0       -6.648108   -2.190986   -2.115937
     37          6           0       -5.931084   -1.447350   -1.067380
     38          6           0       -8.490275   -1.621753   -3.722473
     39          6           0       -6.133354   -3.585955   -2.045422
     40          8           0       -6.459666   -4.562265   -2.627939
     41          6           0       -4.957742   -3.491926   -0.881731
     42          6           0       -5.237877   -4.589799    0.159839
     43          8           0       -5.574549   -4.290863    1.299284
     44          8           0       -5.066169   -5.821925   -0.399138
     45          6           0       -5.152105   -6.911287    0.553589
     46          6           0        2.290841   -5.106763    0.667821
     47          6           0        3.480852   -4.129518    1.016055
     48          6           0        3.952084   -3.274483    0.188700
     49          6           0        3.694029   -3.372772   -1.277799
     50          6           0        5.019597   -2.320241    0.566463
     51          6           0        6.455020   -2.617886    0.012103
     52          6           0        7.469998   -1.773320    0.530815
     53          6           0        8.974445   -1.964326   -0.056704
     54          6           0        9.353615   -3.451035    0.263187
     55          6           0        9.917911   -0.930455    0.455326
     56          6           0       11.331643   -0.926294   -0.326258
     57          6           0       12.166889    0.369945    0.066838
     58          6           0       13.461771    0.499341   -0.611011
     59          6           0       14.389997   -0.757799   -0.307861
     60          6           0       14.120595    1.799493   -0.290855
     61          6           0       15.408392    2.135656   -1.000632
     62          6           0       16.028024    3.546046   -0.686474
     63          6           0       17.359924    3.975442   -1.358712
     64          6           0       17.220806    4.103279   -2.827041
     65          6           0       17.710287    5.373310   -0.617838
     66          1           0       -2.577634    1.262011    3.422483
     67          1           0       -6.334347    5.546684    0.593901
     68          1           0       -8.806219    1.214847   -3.086301
     69          1           0       -3.868018   -3.137995    1.841466
     70          1           0       -1.584399   -1.197226    2.667963
     71          1           0       -2.693284   -2.560346    4.165792
     72          1           0       -2.768801   -1.078329    4.675731
     73          1           0       -4.582437   -1.691048    4.107024
     74          1           0       -2.322610   -3.467848   -0.300336
     75          1           0       -1.241313   -1.990365    0.327095
     76          1           0       -0.680259   -3.075064    2.334217
     77          1           0       -1.411148   -4.436674    1.794994
     78          1           0       -1.793957    3.672566    3.954680
     79          1           0       -2.802043    4.677689    4.829175
     80          1           0       -2.885071    2.891684    5.047773
     81          1           0       -5.885284    6.587610    2.785272
     82          1           0       -9.927711    2.959157   -3.358153
     83          1           0       -9.968241    4.691310   -2.860802
     84          1           0       -9.218531    3.948060   -5.535689
     85          1           0       -8.031057    4.944259   -4.824860
     86          1           0       -8.021300    3.161923   -4.685219
     87          1           0       -8.352489   -1.010605   -4.576062
     88          1           0       -8.561764   -2.910735   -4.025269
     89          1           0       -9.547356   -1.288629   -3.517345
     90          1           0       -4.061536   -3.903134   -1.456534
     91          1           0        2.908752   -6.040507    0.996804
     92          1           0        2.277639   -5.225727   -0.515437
     93          1           0        4.008507   -4.149299    2.036128
     94          1           0        2.820511   -3.784763   -1.632808
     95          1           0        3.935175   -2.319904   -1.957819
     96          1           0        4.372984   -4.130220   -1.712931
     97          1           0        4.706767   -1.297807    0.216996
     98          1           0        5.233397   -2.305541    1.665170
     99          1           0        6.596603   -3.736381    0.148657
    100          1           0        6.165043   -2.510976   -1.196098
    101          1           0        7.037112   -0.710851    0.366792
    102          1           0        7.544553   -2.119332    1.429960
    103          1           0        8.999164   -1.766908   -1.173685
    104          1           0        8.618385   -4.150471   -0.194916
    105          1           0       10.353394   -3.757369   -0.057331
    106          1           0        9.473414   -3.934511    1.267944
    107          1           0        9.400393   -0.002598    0.264532
    108          1           0       10.040040   -0.915636    1.511370
    109          1           0       11.868725   -1.785050   -0.101521
    110          1           0       11.044670   -0.909697   -1.448682
    111          1           0       11.515340    1.041853   -0.316008
    112          1           0       12.515165    0.378542    1.177896
    113          1           0       13.256055    0.369560   -1.844562
    114          1           0       14.450521   -0.835590    0.847947
    115          1           0       13.998134   -1.792162   -0.304142
    116          1           0       15.342169   -0.580483   -0.934855
    117          1           0       13.302062    2.683664   -0.355537
    118          1           0       14.277601    1.673990    0.698026
    119          1           0       16.167936    1.487105   -0.664653
    120          1           0       15.128490    1.953595   -1.988328
    121          1           0       15.373334    4.396656   -0.966622
    122          1           0       16.031735    3.672423    0.449270
    123          1           0       18.233261    3.396061   -1.164606
    124          1           0       16.468083    4.778167   -3.119940
    125          1           0       17.984514    4.366755   -3.411830
    126          1           0       17.213170    3.072319   -3.271957
    127          1           0       17.763352    5.406301    0.491976
    128          1           0       18.622835    5.481025   -1.083195
    129          1           0       16.885300    6.164824   -0.811851
    130          1           0       -4.670679   -7.742403    0.065425
    131          1           0       -6.194107   -7.016281    0.928825
    132          1           0       -4.606092   -6.741582    1.453889
    133          8           0       -7.792787    6.793809   -0.367094
    134          1           0       -9.137616    6.338719   -1.971715
 ---------------------------------------------------------------------

 SCF Done:  E(RCAM-B3LYP) =  -3043.41100539     A.U. after   16 cycles

 Excitation energies and oscillator strengths:

 Excited State   1:      Singlet-A      2.1098 eV  587.67 nm  f=0.1659  <S**2>=0.000
     243 -> 246       -0.29298
     244 -> 245        0.63716
 This state for optimization and/or second-order correction.
 Total Energy, E(TD-HF/TD-DFT) =  -3043.33347281
 Copying the excited state density for this state as the 1-particle RhoCI density.

 The electronic state is 1-A.
 Alpha  occ. eigenvalues --  -46.80551 -19.23852 -19.23820 -19.19305 -19.18618
 Alpha  occ. eigenvalues --  -19.18231 -19.18015 -19.16909 -14.38587 -14.36702
 Alpha  occ. eigenvalues --  -14.36156 -14.35816 -10.35867 -10.35768 -10.32138
 Alpha  occ. eigenvalues --  -10.32073 -10.30747 -10.29530 -10.28119 -10.27653
 Alpha  occ. eigenvalues --  -10.26664 -10.26263 -10.26261 -10.26064 -10.25817
 Alpha  occ. eigenvalues --  -10.25579 -10.25060 -10.25020 -10.25011 -10.24982
 Alpha  occ. eigenvalues --  -10.24980 -10.24660 -10.24009 -10.23991 -10.23688
 Alpha  occ. eigenvalues --  -10.23540 -10.23532 -10.23522 -10.23274 -10.23246
 Alpha  occ. eigenvalues --  -10.22909 -10.22660 -10.22297 -10.22260 -10.22052
 Alpha  occ. eigenvalues --  -10.22019 -10.21991 -10.21965 -10.21891 -10.21794
 Alpha  occ. eigenvalues --  -10.21703 -10.21651 -10.21553 -10.21430 -10.21396
 Alpha  occ. eigenvalues --  -10.21354 -10.21337 -10.21071 -10.20660 -10.20355
 Alpha  occ. eigenvalues --  -10.20334 -10.20175 -10.20146 -10.20102 -10.19509
 Alpha  occ. eigenvalues --  -10.18802  -3.09345  -1.84261  -1.83831  -1.83749
 Alpha  occ. eigenvalues --   -1.14605  -1.13440  -1.10000  -1.09343  -1.07954
 Alpha  occ. eigenvalues --   -1.07425  -1.05730  -1.01051  -0.99795  -0.99593
 Alpha  occ. eigenvalues --   -0.98448  -0.89016  -0.87023  -0.86321  -0.85842
 Alpha  occ. eigenvalues --   -0.85800  -0.84557  -0.84182  -0.83931  -0.83553
 Alpha  occ. eigenvalues --   -0.83426  -0.81726  -0.81566  -0.80790  -0.80504
 Alpha  occ. eigenvalues --   -0.79016  -0.78369  -0.78136  -0.77937  -0.75952
 Alpha  occ. eigenvalues --   -0.74802  -0.74723  -0.74054  -0.73269  -0.72166
 Alpha  occ. eigenvalues --   -0.72067  -0.71841  -0.70680  -0.69964  -0.69683
 Alpha  occ. eigenvalues --   -0.69393  -0.68862  -0.66434  -0.66385  -0.66136
 Alpha  occ. eigenvalues --   -0.65761  -0.65406  -0.64205  -0.62559  -0.62224
 Alpha  occ. eigenvalues --   -0.61642  -0.61129  -0.60423  -0.59482  -0.59389
 Alpha  occ. eigenvalues --   -0.59233  -0.58832  -0.57388  -0.56728  -0.56353
 Alpha  occ. eigenvalues --   -0.56166  -0.55871  -0.54998  -0.54623  -0.54415
 Alpha  occ. eigenvalues --   -0.54054  -0.53402  -0.53103  -0.52589  -0.52251
 Alpha  occ. eigenvalues --   -0.52190  -0.51965  -0.51696  -0.51442  -0.51354
 Alpha  occ. eigenvalues --   -0.50919  -0.50519  -0.50457  -0.49983  -0.49554
 Alpha  occ. eigenvalues --   -0.49056  -0.48938  -0.48758  -0.48373  -0.47817
 Alpha  occ. eigenvalues --   -0.47564  -0.47436  -0.47212  -0.47025  -0.46875
 Alpha  occ. eigenvalues --   -0.46681  -0.46583  -0.46444  -0.46303  -0.46035
 Alpha  occ. eigenvalues --   -0.45843  -0.45612  -0.45391  -0.45155  -0.45108
 Alpha  occ. eigenvalues --   -0.44784  -0.44593  -0.44184  -0.44006  -0.43914
 Alpha  occ. eigenvalues --   -0.43844  -0.43356  -0.43311  -0.43002  -0.42898
 Alpha  occ. eigenvalues --   -0.42822  -0.42716  -0.42571  -0.42468  -0.42285
 Alpha  occ. eigenvalues --   -0.42117  -0.42003  -0.41833  -0.41700  -0.41453
 Alpha  occ. eigenvalues --   -0.41148  -0.41002  -0.40578  -0.40523  -0.40220
 Alpha  occ. eigenvalues --   -0.39875  -0.39794  -0.39649  -0.39438  -0.39117
 Alpha  occ. eigenvalues --   -0.39047  -0.38842  -0.38763  -0.38689  -0.38025
 Alpha  occ. eigenvalues --   -0.37971  -0.37769  -0.37527  -0.37373  -0.37320
 Alpha  occ. eigenvalues --   -0.36604  -0.36491  -0.35957  -0.35842  -0.35680
 Alpha  occ. eigenvalues --   -0.35559  -0.35528  -0.35296  -0.34916  -0.34385
 Alpha  occ. eigenvalues --   -0.34128  -0.33845  -0.33668  -0.33516  -0.33279
 Alpha  occ. eigenvalues --   -0.32965  -0.32799  -0.32122  -0.32021  -0.31504
 Alpha  occ. eigenvalues --   -0.31403  -0.31293  -0.30758  -0.30490  -0.30174
 Alpha  occ. eigenvalues --   -0.28840  -0.28371  -0.27957  -0.27782  -0.27612
 Alpha  occ. eigenvalues --   -0.27324  -0.26747  -0.23096  -0.21300
 Alpha virt. eigenvalues --   -0.07785  -0.06260  -0.01743  -0.00198   0.01245
 Alpha virt. eigenvalues --    0.02549   0.03569   0.03911   0.04692   0.04735
 Alpha virt. eigenvalues --    0.05465   0.06041   0.08094   0.08384   0.08825

 Mulliken charges:
               1
     1  Mg   0.848413
     2  C    0.140380
     3  C   -0.161248
     4  C   -0.117439
     5  C   -0.189000
     6  N   -0.624379
     7  C    0.278494
     8  C   -0.131286
     9  C   -0.169444
    10  C    0.390773
    11  C   -0.285422
    12  C   -0.178298
    13  C   -0.253181
    14  C    0.590399
    15  O   -0.408669
    16  O   -0.460159
    17  N   -0.724867
    18  C    0.363922
    19  C    0.000540
    20  C   -0.035949
    21  C    0.305079
    22  C   -0.365626
    23  C    0.226619
    24  O   -0.384991
    25  N   -0.772972
    26  C    0.294870
    27  C   -0.016475
    28  C   -0.024829
    29  C    0.333882
    30  C    0.268564
    31  C   -0.212567
    32  C   -0.314865
    33  N   -0.776291
    34  C    0.322827
    35  C    0.060625
    36  C    0.026724
    37  C    0.261042
    38  C   -0.407932
    39  C    0.362986
    40  O   -0.415611
    41  C   -0.388419
    42  C    0.634979
    43  O   -0.474547
    44  O   -0.443552
    45  C   -0.099494
    46  C   -0.019849
    47  C   -0.171963
    48  C    0.208238
    49  C   -0.379278
    50  C   -0.242519
    51  C   -0.170275
    52  C   -0.138488
    53  C   -0.045936
    54  C   -0.346821
    55  C   -0.172831
    56  C   -0.197856
    57  C   -0.141180
    58  C   -0.053963
    59  C   -0.315065
    60  C   -0.147196
    61  C   -0.179616
    62  C   -0.159290
    63  C   -0.077471
    64  C   -0.303774
    65  C   -0.311717
    66  H    0.081631
    67  H    0.120341
    68  H    0.084034
    69  H    0.162080
    70  H    0.054057
    71  H    0.108643
    72  H    0.115662
    73  H    0.111131
    74  H    0.091073
    75  H    0.124094
    76  H    0.132277
    77  H    0.140312
    78  H    0.134749
    79  H    0.154488
    80  H    0.105740
    81  H    0.023199
    82  H    0.116571
    83  H    0.099211
    84  H    0.097184
    85  H    0.110733
    86  H    0.113538
    87  H    0.137234
    88  H    0.116766
    89  H    0.126918
    90  H    0.156147
    91  H    0.113467
    92  H    0.123519
    93  H    0.078490
    94  H    0.138481
    95  H    0.073637
    96  H    0.123887
    97  H    0.097337
    98  H    0.082019
    99  H    0.087032
   100  H    0.053290
   101  H    0.079697
   102  H    0.107908
   103  H    0.081485
   104  H    0.105384
   105  H    0.100226
   106  H    0.096957
   107  H    0.088402
   108  H    0.091811
   109  H    0.102396
   110  H    0.082617
   111  H    0.103083
   112  H    0.075480
   113  H    0.031804
   114  H    0.073831
   115  H    0.106950
   116  H    0.104652
   117  H    0.065937
   118  H    0.094408
   119  H    0.102115
   120  H    0.100954
   121  H    0.081787
   122  H    0.077072
   123  H    0.087021
   124  H    0.106936
   125  H    0.109220
   126  H    0.095801
   127  H    0.101487
   128  H    0.105511
   129  H    0.086140
   130  H    0.133628
   131  H    0.138098
   132  H    0.130847
   133  O   -0.379923
   134  H    0.034548
 Sum of Mulliken charges =  -0.00000

 Dipole moment (field-independent basis, Debye):
    X=              3.3203    Y=             -6.0500    Z=             -1.3263  Tot=              7.0275
 Quadrupole moment (field-independent basis, Debye-Ang):
   XX=           -375.2670   YY=           -434.8307   ZZ=           -395.6083
   XY=             12.3559   XZ=             21.9977   YZ=            -36.0570

 Normal termination of Gaussian 16 at Thu Oct 10 09:06:18 2019.
