 Gaussian 16, Revision A.03,
 Gaussian 16:  ES64L-G16RevA.03 25-Dec-2016

 ----------------------------------------------------------------------
 # td=(NStates=1) iop(3/107=0140000000,3/108=0140000000) iop(3/107=0140
 000000,3/108=0140000000) CAM-B3LYP/6-31G(d,p)
 ----------------------------------------------------------------------

 --
 TD
 --
 Symbolic Z-matrix:
 Charge =  0 Multiplicity = 1

                         Standard orientation:
 ---------------------------------------------------------------------
 Center     Atomic      Atomic             Coordinates (Angstroms)
 Number     Number       Type             X           Y           Z
 ---------------------------------------------------------------------
      1         12           0       -5.709071    1.211335    0.198523
      2          6           0       -5.048759   -2.164029   -0.330050
      3          6           0       -3.412449    1.220826    2.712162
      4          6           0       -6.282989    4.523196    0.646456
      5          6           0       -8.135933    1.155102   -2.331901
      6          7           0       -4.374223   -0.292061    1.076566
      7          6           0       -4.293719   -1.591770    0.721239
      8          6           0       -3.193252   -2.285818    1.433493
      9          6           0       -2.805388   -1.304478    2.548926
     10          6           0       -3.578624    0.064294    2.016969
     11          6           0       -3.147123   -1.817081    3.976645
     12          6           0       -1.989987   -2.643864    0.576589
     13          6           0       -1.007486   -3.472012    1.381287
     14          6           0        0.231119   -3.799546    0.677400
     15          8           0        0.545670   -3.497988   -0.480041
     16          8           0        1.012790   -4.673785    1.268628
     17          7           0       -5.082634    2.603423    1.501668
     18          6           0       -4.071545    2.358632    2.367549
     19          6           0       -3.848626    3.599717    3.173637
     20          6           0       -4.695727    4.588960    2.563977
     21          6           0       -5.386927    3.917288    1.536380
     22          6           0       -2.901106    3.770586    4.361708
     23          6           0       -4.822343    6.062043    2.811218
     24          8           0       -4.127204    6.584689    3.765492
     25          7           0       -6.961900    2.560676   -0.684844
     26          6           0       -7.066477    3.860640   -0.285761
     27          6           0       -7.990497    4.544625   -1.254521
     28          6           0       -8.531573    3.613735   -1.995242
     29          6           0       -7.893781    2.401564   -1.677508
     30          6           0       -8.443471    5.977943   -1.189780
     31          6           0       -9.504928    3.727085   -3.150322
     32          6           0       -8.982988    3.787080   -4.687107
     33          7           0       -6.480249   -0.081284   -1.092277
     34          6           0       -7.413158   -0.058252   -2.056574
     35          6           0       -7.638020   -1.412653   -2.670167
     36          6           0       -6.745357   -2.261461   -2.035999
     37          6           0       -6.107049   -1.402494   -1.062747
     38          6           0       -8.539245   -1.733834   -3.810870
     39          6           0       -6.171648   -3.613560   -1.996263
     40          8           0       -6.626301   -4.594408   -2.533482
     41          6           0       -5.029412   -3.572369   -0.915313
     42          6           0       -5.167635   -4.663707    0.208320
     43          8           0       -5.672734   -4.446262    1.270422
     44          8           0       -4.896857   -5.906484   -0.295639
     45          6           0       -5.179987   -6.963294    0.505817
     46          6           0        2.357910   -4.983193    0.691067
     47          6           0        3.378987   -3.937206    1.027088
     48          6           0        4.074107   -3.168437    0.234800
     49          6           0        3.845047   -2.993441   -1.292241
     50          6           0        5.185438   -2.253826    0.674004
     51          6           0        6.550277   -2.545807    0.061760
     52          6           0        7.736966   -1.665990    0.561739
     53          6           0        9.144415   -1.963326   -0.059985
     54          6           0        9.683761   -3.417331    0.234018
     55          6           0        9.983314   -0.913149    0.317146
     56          6           0       11.431022   -0.868115   -0.247397
     57          6           0       12.344432    0.302192    0.222293
     58          6           0       13.582631    0.435479   -0.519351
     59          6           0       14.588757   -0.811033   -0.425324
     60          6           0       14.338389    1.786790   -0.110297
     61          6           0       15.542121    2.156307   -0.975620
     62          6           0       16.196623    3.488411   -0.627893
     63          6           0       17.533611    3.857928   -1.374700
     64          6           0       17.242793    3.959482   -2.963602
     65          6           0       17.967958    5.277303   -0.822693
     66          1           0       -2.755282    1.318046    3.498939
     67          1           0       -6.326379    5.706878    0.743163
     68          1           0       -8.774818    1.111071   -3.125732
     69          1           0       -3.505677   -3.170177    2.010297
     70          1           0       -1.694983   -0.784668    2.422167
     71          1           0       -2.543493   -2.679225    4.231973
     72          1           0       -2.903801   -0.980883    4.900206
     73          1           0       -4.165532   -1.959102    4.214859
     74          1           0       -2.187634   -3.233693   -0.200766
     75          1           0       -1.472565   -1.877545    0.224645
     76          1           0       -0.842797   -2.935467    2.476846
     77          1           0       -1.601576   -4.368182    1.740824
     78          1           0       -1.878378    3.865360    3.756443
     79          1           0       -3.051264    4.920420    4.627973
     80          1           0       -2.977706    3.036148    5.100542
     81          1           0       -5.439695    6.644167    2.071755
     82          1           0      -10.336188    2.871671   -3.191988
     83          1           0      -10.139437    4.662121   -3.042812
     84          1           0       -9.859150    3.977737   -5.369972
     85          1           0       -8.236840    4.569137   -4.647481
     86          1           0       -8.711687    2.661525   -5.039311
     87          1           0       -8.282877   -1.096734   -4.707995
     88          1           0       -8.651052   -2.870462   -3.976241
     89          1           0       -9.601983   -1.380088   -3.489212
     90          1           0       -4.032644   -3.693166   -1.459293
     91          1           0        2.583237   -6.005196    1.151418
     92          1           0        2.206028   -5.025293   -0.486173
     93          1           0        3.678168   -3.922738    2.070575
     94          1           0        2.732787   -3.477113   -1.689883
     95          1           0        3.714853   -2.068338   -1.659197
     96          1           0        4.306883   -3.807772   -2.075726
     97          1           0        5.042497   -1.119842    0.418249
     98          1           0        5.291471   -2.046466    1.750754
     99          1           0        6.607766   -3.557436    0.256116
    100          1           0        6.459561   -2.306319   -1.025345
    101          1           0        7.538876   -0.601644    0.288088
    102          1           0        7.767852   -1.751210    1.565761
    103          1           0        8.925664   -1.929366   -1.204746
    104          1           0        8.986458   -4.044685   -0.203082
    105          1           0       10.706036   -3.462533   -0.171260
    106          1           0        9.929344   -3.455992    1.278072
    107          1           0        9.499981    0.080304    0.149373
    108          1           0       10.228845   -1.153891    1.511999
    109          1           0       11.978577   -1.792265   -0.090616
    110          1           0       11.409954   -0.840486   -1.488210
    111          1           0       11.716491    1.259408    0.214398
    112          1           0       12.620066    0.231824    1.208470
    113          1           0       13.331596    0.735718   -1.508004
    114          1           0       14.961962   -0.925338    0.560129
    115          1           0       14.334820   -1.636988   -0.587074
    116          1           0       15.414689   -0.587929   -1.173377
    117          1           0       13.686288    2.578387   -0.186456
    118          1           0       14.700052    1.944832    1.054882
    119          1           0       16.385723    1.385936   -0.939078
    120          1           0       15.231924    2.102069   -2.085603
    121          1           0       15.438955    4.137745   -0.829270
    122          1           0       16.302784    3.718656    0.396421
    123          1           0       18.325441    3.158575   -1.091591
    124          1           0       16.426702    4.555023   -3.120850
    125          1           0       18.026724    4.317537   -3.524223
    126          1           0       17.247874    2.907301   -3.419705
    127          1           0       17.971684    5.160216    0.277610
    128          1           0       18.935691    5.492586   -1.180685
    129          1           0       17.274823    6.134585   -0.972048
    130          1           0       -4.897277   -7.976586   -0.002215
    131          1           0       -6.308937   -6.944079    0.902627
    132          1           0       -4.539607   -7.079395    1.344080
    133          8           0       -7.928025    6.778871   -0.492090
    134          1           0       -9.341498    6.338148   -1.717568
 ---------------------------------------------------------------------

 SCF Done:  E(RCAM-B3LYP) =  -3043.45943391     A.U. after   15 cycles

 Excitation energies and oscillator strengths:

 Excited State   1:      Singlet-A      2.0450 eV  606.29 nm  f=0.2083  <S**2>=0.000
     243 -> 246       -0.25273
     244 -> 245        0.64841
 This state for optimization and/or second-order correction.
 Total Energy, E(TD-HF/TD-DFT) =  -3043.38428253
 Copying the excited state density for this state as the 1-particle RhoCI density.

 The electronic state is 1-A.
 Alpha  occ. eigenvalues --  -46.81440 -19.23598 -19.21314 -19.18801 -19.17875
 Alpha  occ. eigenvalues --  -19.17456 -19.17202 -19.15528 -14.39002 -14.37309
 Alpha  occ. eigenvalues --  -14.36803 -14.36460 -10.36454 -10.34328 -10.32360
 Alpha  occ. eigenvalues --  -10.31365 -10.30532 -10.29130 -10.28097 -10.27443
 Alpha  occ. eigenvalues --  -10.27020 -10.26670 -10.26537 -10.26524 -10.26414
 Alpha  occ. eigenvalues --  -10.26084 -10.25623 -10.25594 -10.25494 -10.25472
 Alpha  occ. eigenvalues --  -10.25008 -10.24990 -10.24979 -10.24931 -10.24058
 Alpha  occ. eigenvalues --  -10.24056 -10.24052 -10.23806 -10.23753 -10.23638
 Alpha  occ. eigenvalues --  -10.23582 -10.23367 -10.22863 -10.22844 -10.22661
 Alpha  occ. eigenvalues --  -10.22542 -10.22485 -10.22410 -10.22052 -10.21942
 Alpha  occ. eigenvalues --  -10.21827 -10.21813 -10.21741 -10.21567 -10.21523
 Alpha  occ. eigenvalues --  -10.20993 -10.20897 -10.20874 -10.20577 -10.20420
 Alpha  occ. eigenvalues --  -10.19836 -10.19795 -10.19789 -10.19349 -10.18945
 Alpha  occ. eigenvalues --  -10.18348  -3.10137  -1.85067  -1.84602  -1.84564
 Alpha  occ. eigenvalues --   -1.15501  -1.13148  -1.09432  -1.08185  -1.07490
 Alpha  occ. eigenvalues --   -1.02901  -1.02085  -1.01963  -1.00666  -1.00192
 Alpha  occ. eigenvalues --   -0.99381  -0.88351  -0.87034  -0.86455  -0.85700
 Alpha  occ. eigenvalues --   -0.85512  -0.84671  -0.84419  -0.83309  -0.82749
 Alpha  occ. eigenvalues --   -0.82497  -0.82052  -0.81402  -0.80310  -0.79943
 Alpha  occ. eigenvalues --   -0.78204  -0.77905  -0.77557  -0.77120  -0.76336
 Alpha  occ. eigenvalues --   -0.75078  -0.74771  -0.73810  -0.73033  -0.72446
 Alpha  occ. eigenvalues --   -0.71748  -0.71439  -0.71153  -0.70634  -0.69797
 Alpha  occ. eigenvalues --   -0.68683  -0.68490  -0.67451  -0.66684  -0.66203
 Alpha  occ. eigenvalues --   -0.65782  -0.65443  -0.64389  -0.62516  -0.62182
 Alpha  occ. eigenvalues --   -0.61579  -0.61303  -0.60481  -0.59945  -0.59612
 Alpha  occ. eigenvalues --   -0.59007  -0.58790  -0.57768  -0.57299  -0.56950
 Alpha  occ. eigenvalues --   -0.56505  -0.56269  -0.55500  -0.55218  -0.55048
 Alpha  occ. eigenvalues --   -0.54373  -0.53859  -0.53153  -0.52501  -0.52226
 Alpha  occ. eigenvalues --   -0.51986  -0.51862  -0.51686  -0.51432  -0.50779
 Alpha  occ. eigenvalues --   -0.50333  -0.49964  -0.49872  -0.49467  -0.49159
 Alpha  occ. eigenvalues --   -0.48943  -0.48719  -0.48587  -0.48060  -0.47971
 Alpha  occ. eigenvalues --   -0.47587  -0.47534  -0.47293  -0.47049  -0.46746
 Alpha  occ. eigenvalues --   -0.46553  -0.46412  -0.46020  -0.45860  -0.45830
 Alpha  occ. eigenvalues --   -0.45658  -0.45450  -0.45381  -0.44965  -0.44935
 Alpha  occ. eigenvalues --   -0.44721  -0.44518  -0.44180  -0.44047  -0.43850
 Alpha  occ. eigenvalues --   -0.43782  -0.43431  -0.43323  -0.42969  -0.42798
 Alpha  occ. eigenvalues --   -0.42723  -0.42450  -0.42370  -0.42184  -0.42049
 Alpha  occ. eigenvalues --   -0.41852  -0.41757  -0.41663  -0.41494  -0.41170
 Alpha  occ. eigenvalues --   -0.40996  -0.40615  -0.40507  -0.40291  -0.39648
 Alpha  occ. eigenvalues --   -0.39581  -0.39463  -0.39173  -0.39016  -0.38749
 Alpha  occ. eigenvalues --   -0.38731  -0.38632  -0.38444  -0.38246  -0.38046
 Alpha  occ. eigenvalues --   -0.37942  -0.37814  -0.37462  -0.37223  -0.36693
 Alpha  occ. eigenvalues --   -0.36408  -0.36185  -0.36164  -0.35423  -0.35370
 Alpha  occ. eigenvalues --   -0.34909  -0.34883  -0.34719  -0.34395  -0.34260
 Alpha  occ. eigenvalues --   -0.33873  -0.33764  -0.33582  -0.33460  -0.33360
 Alpha  occ. eigenvalues --   -0.33132  -0.32498  -0.32243  -0.31982  -0.31801
 Alpha  occ. eigenvalues --   -0.31394  -0.30973  -0.30960  -0.30022  -0.29334
 Alpha  occ. eigenvalues --   -0.29078  -0.28802  -0.28514  -0.28366  -0.28026
 Alpha  occ. eigenvalues --   -0.27703  -0.27204  -0.22796  -0.21096
 Alpha virt. eigenvalues --   -0.08192  -0.05873  -0.02146  -0.01112   0.00629
 Alpha virt. eigenvalues --    0.02242   0.02494   0.03334   0.03407   0.04202
 Alpha virt. eigenvalues --    0.05288   0.05624   0.07518   0.08214   0.09074

 Mulliken charges:
               1
     1  Mg   0.827562
     2  C    0.044532
     3  C   -0.126391
     4  C   -0.190891
     5  C   -0.153101
     6  N   -0.617995
     7  C    0.317848
     8  C   -0.179700
     9  C   -0.143597
    10  C    0.315602
    11  C   -0.314477
    12  C   -0.136067
    13  C   -0.286102
    14  C    0.612458
    15  O   -0.499330
    16  O   -0.465929
    17  N   -0.733534
    18  C    0.327113
    19  C   -0.002858
    20  C   -0.021133
    21  C    0.334892
    22  C   -0.391380
    23  C    0.241906
    24  O   -0.447528
    25  N   -0.682127
    26  C    0.282760
    27  C   -0.070724
    28  C    0.094368
    29  C    0.291789
    30  C    0.249420
    31  C   -0.270435
    32  C   -0.296373
    33  N   -0.690297
    34  C    0.275695
    35  C   -0.001588
    36  C    0.059833
    37  C    0.252530
    38  C   -0.391351
    39  C    0.376037
    40  O   -0.434987
    41  C   -0.322951
    42  C    0.615293
    43  O   -0.436785
    44  O   -0.411095
    45  C   -0.091714
    46  C    0.006287
    47  C   -0.134506
    48  C    0.188215
    49  C   -0.380162
    50  C   -0.253058
    51  C   -0.174758
    52  C   -0.170819
    53  C   -0.049084
    54  C   -0.315618
    55  C   -0.136433
    56  C   -0.177400
    57  C   -0.160225
    58  C   -0.055015
    59  C   -0.296965
    60  C   -0.177983
    61  C   -0.178462
    62  C   -0.167924
    63  C   -0.064485
    64  C   -0.312797
    65  C   -0.318771
    66  H    0.082743
    67  H    0.132110
    68  H    0.070769
    69  H    0.121490
    70  H    0.089818
    71  H    0.121719
    72  H    0.069894
    73  H    0.142277
    74  H    0.118139
    75  H    0.128619
    76  H    0.117098
    77  H    0.133025
    78  H    0.118901
    79  H    0.169075
    80  H    0.130905
    81  H    0.108493
    82  H    0.094640
    83  H    0.103359
    84  H    0.116117
    85  H    0.127504
    86  H    0.092533
    87  H    0.131229
    88  H    0.146668
    89  H    0.115376
    90  H    0.160350
    91  H    0.119469
    92  H    0.125385
    93  H    0.085389
    94  H    0.099828
    95  H    0.138079
    96  H    0.104180
    97  H    0.084304
    98  H    0.091966
    99  H    0.103333
   100  H    0.100292
   101  H    0.082573
   102  H    0.097984
   103  H    0.063264
   104  H    0.117177
   105  H    0.103990
   106  H    0.102090
   107  H    0.087828
   108  H    0.052264
   109  H    0.095760
   110  H    0.048927
   111  H    0.072722
   112  H    0.099213
   113  H    0.091119
   114  H    0.101973
   115  H    0.101400
   116  H    0.095050
   117  H    0.098114
   118  H    0.052482
   119  H    0.079110
   120  H    0.080211
   121  H    0.095937
   122  H    0.085338
   123  H    0.089300
   124  H    0.114448
   125  H    0.104847
   126  H    0.089037
   127  H    0.094288
   128  H    0.105213
   129  H    0.099433
   130  H    0.111520
   131  H    0.113762
   132  H    0.119418
   133  O   -0.389281
   134  H    0.069181
 Sum of Mulliken charges =  -0.00000

 Dipole moment (field-independent basis, Debye):
    X=              1.4759    Y=             -3.9664    Z=             -1.3707  Tot=              4.4485
 Quadrupole moment (field-independent basis, Debye-Ang):
   XX=           -375.7987   YY=           -432.3415   ZZ=           -395.1527
   XY=              1.5952   XZ=             24.4289   YZ=            -37.4670

 Normal termination of Gaussian 16 at Fri Oct 11 04:30:21 2019.
