 Gaussian 16, Revision A.03,
 Gaussian 16:  ES64L-G16RevA.03 25-Dec-2016

 ----------------------------------------------------------------------
 # td=(NStates=1) iop(3/107=0140000000,3/108=0140000000) iop(3/107=0140
 000000,3/108=0140000000) CAM-B3LYP/6-31G(d,p)
 ----------------------------------------------------------------------

 --
 TD
 --
 Symbolic Z-matrix:
 Charge =  0 Multiplicity = 1

                         Standard orientation:
 ---------------------------------------------------------------------
 Center     Atomic      Atomic             Coordinates (Angstroms)
 Number     Number       Type             X           Y           Z
 ---------------------------------------------------------------------
      1         12           0       -5.608609    1.183987    0.234638
      2          6           0       -4.885170   -2.082265   -0.380111
      3          6           0       -3.445790    1.147408    2.754104
      4          6           0       -6.204213    4.588947    0.684280
      5          6           0       -7.924201    1.113559   -2.439829
      6          7           0       -4.349057   -0.265101    1.092413
      7          6           0       -4.207597   -1.562512    0.700338
      8          6           0       -3.195384   -2.306589    1.414401
      9          6           0       -2.914754   -1.323169    2.640933
     10          6           0       -3.685305   -0.077817    2.183732
     11          6           0       -3.457036   -1.736805    3.942338
     12          6           0       -1.966705   -2.610227    0.636690
     13          6           0       -1.031325   -3.570629    1.356644
     14          6           0        0.241709   -3.914792    0.621707
     15          8           0        0.577553   -3.491831   -0.492203
     16          8           0        0.980037   -4.817992    1.252755
     17          7           0       -5.006388    2.574517    1.540585
     18          6           0       -4.017023    2.319631    2.519795
     19          6           0       -3.858201    3.631547    3.239650
     20          6           0       -4.516582    4.573712    2.582034
     21          6           0       -5.352220    3.866698    1.540380
     22          6           0       -2.911508    3.846472    4.452807
     23          6           0       -4.562977    6.017938    2.831639
     24          8           0       -4.148107    6.574964    3.802139
     25          7           0       -6.879512    2.634499   -0.632053
     26          6           0       -6.918188    3.910322   -0.379595
     27          6           0       -7.803128    4.648968   -1.256154
     28          6           0       -8.301774    3.682449   -2.134923
     29          6           0       -7.736395    2.409839   -1.766181
     30          6           0       -8.194169    6.045481   -1.227323
     31          6           0       -9.355460    3.816289   -3.098232
     32          6           0       -8.846882    4.065966   -4.571112
     33          7           0       -6.302279   -0.077926   -1.100466
     34          6           0       -7.317718   -0.034497   -2.069754
     35          6           0       -7.534804   -1.261915   -2.767912
     36          6           0       -6.522315   -2.169824   -2.105709
     37          6           0       -5.947045   -1.421714   -1.180620
     38          6           0       -8.481910   -1.644670   -3.798839
     39          6           0       -6.042313   -3.560060   -1.991910
     40          8           0       -6.492219   -4.388101   -2.672747
     41          6           0       -4.970305   -3.567378   -0.971415
     42          6           0       -5.267800   -4.627494    0.120539
     43          8           0       -5.796695   -4.509566    1.223549
     44          8           0       -4.915903   -5.795737   -0.400194
     45          6           0       -5.397621   -6.834030    0.336736
     46          6           0        2.261139   -5.116563    0.608175
     47          6           0        3.327163   -4.192928    1.019271
     48          6           0        3.973524   -3.352276    0.177922
     49          6           0        3.757174   -3.173049   -1.376544
     50          6           0        5.053597   -2.384670    0.754282
     51          6           0        6.522442   -2.758745    0.282462
     52          6           0        7.613644   -1.810748    0.749419
     53          6           0        8.946723   -2.133711    0.043677
     54          6           0        9.465890   -3.528875    0.240366
     55          6           0        9.992119   -0.952815    0.502928
     56          6           0       11.284398   -1.009949   -0.264681
     57          6           0       12.151567    0.329089    0.118547
     58          6           0       13.423524    0.548711   -0.637821
     59          6           0       14.410763   -0.642746   -0.445523
     60          6           0       14.186830    1.796321   -0.285513
     61          6           0       15.556859    2.184870   -0.853964
     62          6           0       15.915675    3.665365   -0.687545
     63          6           0       17.374192    3.958419   -1.317755
     64          6           0       17.252322    4.009365   -2.835064
     65          6           0       17.854968    5.346755   -0.918347
     66          1           0       -2.819591    1.210404    3.708607
     67          1           0       -6.480943    5.495768    0.951946
     68          1           0       -8.698282    1.009372   -3.281721
     69          1           0       -3.621478   -3.266628    1.858898
     70          1           0       -1.842162   -1.182975    2.694392
     71          1           0       -2.661034   -2.502272    4.426809
     72          1           0       -3.350286   -0.786298    4.693962
     73          1           0       -4.564977   -2.136544    3.822276
     74          1           0       -2.437049   -3.119862   -0.367274
     75          1           0       -1.284399   -1.777398    0.355424
     76          1           0       -0.699112   -3.230696    2.349656
     77          1           0       -1.530255   -4.488308    1.616524
     78          1           0       -1.695234    3.713774    4.084883
     79          1           0       -3.204607    4.925639    4.895593
     80          1           0       -3.174449    3.080732    5.141297
     81          1           0       -5.294335    6.644966    2.305780
     82          1           0      -10.055752    2.774473   -3.246126
     83          1           0      -10.058816    4.570192   -2.776030
     84          1           0       -9.739194    4.143435   -5.364504
     85          1           0       -8.402884    5.197410   -4.697055
     86          1           0       -7.994789    3.320836   -4.971317
     87          1           0       -8.219398   -1.016233   -4.747477
     88          1           0       -8.148910   -2.634484   -4.004649
     89          1           0       -9.501497   -1.363516   -3.522260
     90          1           0       -3.970860   -3.593491   -1.316443
     91          1           0        2.571633   -6.246187    1.102752
     92          1           0        2.394025   -5.118605   -0.559236
     93          1           0        3.766481   -4.202171    2.061180
     94          1           0        2.736723   -3.113479   -1.522341
     95          1           0        4.181914   -2.245754   -1.825471
     96          1           0        4.410712   -3.978635   -1.975094
     97          1           0        4.913871   -1.417841    0.431519
     98          1           0        4.872721   -2.580113    1.831459
     99          1           0        6.904073   -3.837217    0.408347
    100          1           0        6.443569   -2.563614   -0.767830
    101          1           0        7.380034   -0.930866    0.546833
    102          1           0        7.608180   -1.835330    1.893599
    103          1           0        8.719016   -2.031128   -1.079270
    104          1           0        8.793483   -4.344601   -0.157627
    105          1           0       10.493105   -3.742519   -0.237516
    106          1           0        9.612722   -3.692607    1.340985
    107          1           0        9.437095    0.107574    0.370931
    108          1           0       10.153951   -1.165468    1.562437
    109          1           0       12.024498   -1.804731   -0.083961
    110          1           0       10.949599   -1.021048   -1.244836
    111          1           0       11.541674    1.195732   -0.283579
    112          1           0       12.265804    0.305837    1.175913
    113          1           0       13.016421    0.562612   -1.659818
    114          1           0       14.578672   -0.883578    0.503711
    115          1           0       14.115947   -1.434190   -1.089585
    116          1           0       15.269349   -0.205198   -0.856885
    117          1           0       13.505371    2.741330   -0.470267
    118          1           0       14.236609    1.577419    0.931361
    119          1           0       16.418011    1.583618   -0.268016
    120          1           0       15.370358    2.019313   -2.021888
    121          1           0       15.228745    4.367936   -1.144993
    122          1           0       15.971290    3.776991    0.368703
    123          1           0       18.090569    3.159421   -0.900673
    124          1           0       16.356938    4.630636   -3.105736
    125          1           0       18.095722    4.434887   -3.325951
    126          1           0       16.945294    3.006374   -3.162971
    127          1           0       18.151597    5.369042    0.325431
    128          1           0       18.805823    5.780537   -1.406472
    129          1           0       17.088872    5.986235   -1.027567
    130          1           0       -5.042393   -7.885183   -0.300314
    131          1           0       -6.425686   -6.972819    0.253636
    132          1           0       -4.885068   -6.967941    1.345095
    133          8           0       -7.740730    6.820512   -0.398941
    134          1           0       -9.018982    6.255307   -1.981571
 ---------------------------------------------------------------------

 SCF Done:  E(RCAM-B3LYP) =  -3043.46922118     A.U. after   15 cycles

 Excitation energies and oscillator strengths:

 Excited State   1:      Singlet-A      2.1914 eV  565.79 nm  f=0.1332  <S**2>=0.000
     243 -> 246        0.28636
     244 -> 245        0.63151
 This state for optimization and/or second-order correction.
 Total Energy, E(TD-HF/TD-DFT) =  -3043.38869038
 Copying the excited state density for this state as the 1-particle RhoCI density.

 The electronic state is 1-A.
 Alpha  occ. eigenvalues --  -46.80567 -19.24481 -19.23442 -19.18725 -19.17301
 Alpha  occ. eigenvalues --  -19.17214 -19.16829 -19.16647 -14.39117 -14.36477
 Alpha  occ. eigenvalues --  -14.36475 -14.35870 -10.36689 -10.35364 -10.31207
 Alpha  occ. eigenvalues --  -10.30121 -10.29943 -10.29819 -10.28651 -10.27724
 Alpha  occ. eigenvalues --  -10.27145 -10.26847 -10.26369 -10.26213 -10.25731
 Alpha  occ. eigenvalues --  -10.25703 -10.25695 -10.25460 -10.25211 -10.25125
 Alpha  occ. eigenvalues --  -10.25095 -10.25020 -10.24951 -10.24744 -10.24636
 Alpha  occ. eigenvalues --  -10.24487 -10.24381 -10.24238 -10.24167 -10.23996
 Alpha  occ. eigenvalues --  -10.23863 -10.23795 -10.23303 -10.23015 -10.22699
 Alpha  occ. eigenvalues --  -10.22680 -10.22533 -10.22427 -10.22368 -10.22113
 Alpha  occ. eigenvalues --  -10.21839 -10.21670 -10.21637 -10.21569 -10.21496
 Alpha  occ. eigenvalues --  -10.21361 -10.21194 -10.21156 -10.21026 -10.20874
 Alpha  occ. eigenvalues --  -10.20789 -10.20513 -10.20433 -10.19972 -10.19411
 Alpha  occ. eigenvalues --  -10.17688  -3.09329  -1.84257  -1.83802  -1.83753
 Alpha  occ. eigenvalues --   -1.17363  -1.14260  -1.10748  -1.08440  -1.06191
 Alpha  occ. eigenvalues --   -1.06154  -1.03622  -1.02930  -0.99626  -0.98847
 Alpha  occ. eigenvalues --   -0.98225  -0.89246  -0.87378  -0.85768  -0.85629
 Alpha  occ. eigenvalues --   -0.85229  -0.85104  -0.84119  -0.83633  -0.83383
 Alpha  occ. eigenvalues --   -0.83229  -0.82879  -0.82322  -0.80954  -0.80008
 Alpha  occ. eigenvalues --   -0.79215  -0.78110  -0.77919  -0.77100  -0.76762
 Alpha  occ. eigenvalues --   -0.75389  -0.74403  -0.74112  -0.73355  -0.71912
 Alpha  occ. eigenvalues --   -0.71568  -0.71056  -0.70377  -0.69833  -0.69269
 Alpha  occ. eigenvalues --   -0.69213  -0.68467  -0.66746  -0.66544  -0.65700
 Alpha  occ. eigenvalues --   -0.65371  -0.64672  -0.63564  -0.62724  -0.61854
 Alpha  occ. eigenvalues --   -0.61844  -0.61083  -0.60069  -0.59504  -0.59048
 Alpha  occ. eigenvalues --   -0.58546  -0.58384  -0.58022  -0.57248  -0.56905
 Alpha  occ. eigenvalues --   -0.56872  -0.56304  -0.55912  -0.55245  -0.54974
 Alpha  occ. eigenvalues --   -0.54293  -0.53983  -0.53398  -0.52992  -0.52527
 Alpha  occ. eigenvalues --   -0.52287  -0.51932  -0.51617  -0.51238  -0.51168
 Alpha  occ. eigenvalues --   -0.50968  -0.50844  -0.50297  -0.50021  -0.49402
 Alpha  occ. eigenvalues --   -0.48946  -0.48624  -0.48475  -0.48137  -0.47915
 Alpha  occ. eigenvalues --   -0.47453  -0.47339  -0.46995  -0.46876  -0.46789
 Alpha  occ. eigenvalues --   -0.46611  -0.46350  -0.46251  -0.46063  -0.45802
 Alpha  occ. eigenvalues --   -0.45726  -0.45642  -0.45491  -0.44922  -0.44876
 Alpha  occ. eigenvalues --   -0.44473  -0.44330  -0.44008  -0.43829  -0.43781
 Alpha  occ. eigenvalues --   -0.43536  -0.43450  -0.43189  -0.42961  -0.42887
 Alpha  occ. eigenvalues --   -0.42464  -0.42454  -0.42336  -0.42122  -0.41945
 Alpha  occ. eigenvalues --   -0.41858  -0.41585  -0.41556  -0.41317  -0.41200
 Alpha  occ. eigenvalues --   -0.41117  -0.40997  -0.40706  -0.40546  -0.40360
 Alpha  occ. eigenvalues --   -0.40190  -0.39919  -0.39776  -0.39617  -0.39387
 Alpha  occ. eigenvalues --   -0.39226  -0.38767  -0.38725  -0.38227  -0.37984
 Alpha  occ. eigenvalues --   -0.37843  -0.37557  -0.37337  -0.37021  -0.36620
 Alpha  occ. eigenvalues --   -0.36608  -0.36407  -0.36033  -0.35930  -0.35772
 Alpha  occ. eigenvalues --   -0.35505  -0.35222  -0.34977  -0.34932  -0.34702
 Alpha  occ. eigenvalues --   -0.34436  -0.34153  -0.34089  -0.33799  -0.33561
 Alpha  occ. eigenvalues --   -0.33081  -0.32664  -0.32437  -0.32232  -0.32002
 Alpha  occ. eigenvalues --   -0.31546  -0.30855  -0.30689  -0.30387  -0.29803
 Alpha  occ. eigenvalues --   -0.28743  -0.28410  -0.27710  -0.27652  -0.27409
 Alpha  occ. eigenvalues --   -0.27184  -0.26767  -0.23247  -0.21613
 Alpha virt. eigenvalues --   -0.07798  -0.06717  -0.01635  -0.00176   0.00449
 Alpha virt. eigenvalues --    0.02522   0.02949   0.03612   0.03891   0.04293
 Alpha virt. eigenvalues --    0.05063   0.05920   0.07156   0.08119   0.08964

 Mulliken charges:
               1
     1  Mg   0.812876
     2  C   -0.035354
     3  C   -0.206148
     4  C   -0.118539
     5  C   -0.170067
     6  N   -0.621066
     7  C    0.326725
     8  C   -0.164134
     9  C   -0.142627
    10  C    0.368289
    11  C   -0.291840
    12  C   -0.154037
    13  C   -0.274680
    14  C    0.606437
    15  O   -0.490334
    16  O   -0.442758
    17  N   -0.740749
    18  C    0.337509
    19  C    0.021884
    20  C   -0.019315
    21  C    0.324986
    22  C   -0.367576
    23  C    0.229551
    24  O   -0.392993
    25  N   -0.671083
    26  C    0.315735
    27  C   -0.018183
    28  C    0.070646
    29  C    0.229297
    30  C    0.245465
    31  C   -0.261278
    32  C   -0.298055
    33  N   -0.724197
    34  C    0.314892
    35  C    0.017262
    36  C   -0.031191
    37  C    0.306213
    38  C   -0.386260
    39  C    0.386090
    40  O   -0.422429
    41  C   -0.286587
    42  C    0.597514
    43  O   -0.474505
    44  O   -0.375423
    45  C   -0.088431
    46  C   -0.006003
    47  C   -0.126511
    48  C    0.130619
    49  C   -0.384371
    50  C   -0.223603
    51  C   -0.191285
    52  C   -0.135510
    53  C   -0.066604
    54  C   -0.310519
    55  C   -0.170103
    56  C   -0.183116
    57  C   -0.167111
    58  C   -0.068455
    59  C   -0.319536
    60  C   -0.139461
    61  C   -0.166730
    62  C   -0.175408
    63  C   -0.056116
    64  C   -0.304203
    65  C   -0.283960
    66  H    0.081063
    67  H    0.108847
    68  H    0.097168
    69  H    0.123319
    70  H    0.112611
    71  H    0.091341
    72  H    0.095302
    73  H    0.126882
    74  H    0.088231
    75  H    0.128551
    76  H    0.136456
    77  H    0.142540
    78  H    0.098630
    79  H    0.156069
    80  H    0.124542
    81  H    0.087231
    82  H    0.082624
    83  H    0.120937
    84  H    0.097188
    85  H    0.091127
    86  H    0.108364
    87  H    0.116778
    88  H    0.161290
    89  H    0.139456
    90  H    0.177753
    91  H    0.085281
    92  H    0.140610
    93  H    0.081433
    94  H    0.163799
    95  H    0.105452
    96  H    0.105503
    97  H    0.109283
    98  H    0.085795
    99  H    0.088535
   100  H    0.093231
   101  H    0.093441
   102  H    0.073652
   103  H    0.068968
   104  H    0.102483
   105  H    0.095881
   106  H    0.098062
   107  H    0.076929
   108  H    0.094234
   109  H    0.101650
   110  H    0.098998
   111  H    0.075390
   112  H    0.088416
   113  H    0.073319
   114  H    0.107106
   115  H    0.101900
   116  H    0.107092
   117  H    0.067019
   118  H    0.049211
   119  H    0.089982
   120  H    0.081272
   121  H    0.093410
   122  H    0.102331
   123  H    0.078076
   124  H    0.091718
   125  H    0.108558
   126  H    0.102102
   127  H    0.047654
   128  H    0.092896
   129  H    0.116541
   130  H    0.074489
   131  H    0.146873
   132  H    0.125221
   133  O   -0.433291
   134  H    0.061646
 Sum of Mulliken charges =  -0.00000

 Dipole moment (field-independent basis, Debye):
    X=              2.2604    Y=             -4.8921    Z=             -1.0185  Tot=              5.4845
 Quadrupole moment (field-independent basis, Debye-Ang):
   XX=           -386.5074   YY=           -442.6768   ZZ=           -395.2235
   XY=             14.4632   XZ=             16.9901   YZ=            -32.5937

 Normal termination of Gaussian 16 at Tue Oct  8 09:16:01 2019.
