 Gaussian 16, Revision A.03,
 Gaussian 16:  ES64L-G16RevA.03 25-Dec-2016

 ----------------------------------------------------------------------
 # td=(NStates=1) iop(3/107=0140000000,3/108=0140000000) iop(3/107=0140
 000000,3/108=0140000000) CAM-B3LYP/6-31G(d,p)
 ----------------------------------------------------------------------

 --
 TD
 --
 Symbolic Z-matrix:
 Charge =  0 Multiplicity = 1

                         Standard orientation:
 ---------------------------------------------------------------------
 Center     Atomic      Atomic             Coordinates (Angstroms)
 Number     Number       Type             X           Y           Z
 ---------------------------------------------------------------------
      1         12           0       -5.676048    1.125846    0.237457
      2          6           0       -5.029516   -2.139572   -0.298150
      3          6           0       -3.355603    1.297847    2.665768
      4          6           0       -6.442172    4.521475    0.651929
      5          6           0       -8.038217    1.017370   -2.342800
      6          7           0       -4.459988   -0.181652    1.055173
      7          6           0       -4.282604   -1.542234    0.692965
      8          6           0       -3.230143   -2.230467    1.499352
      9          6           0       -2.890849   -1.195853    2.577858
     10          6           0       -3.548079    0.038422    2.105147
     11          6           0       -3.317842   -1.547935    3.974390
     12          6           0       -2.103386   -2.674618    0.674045
     13          6           0       -1.016487   -3.535196    1.454361
     14          6           0        0.220972   -3.881312    0.562664
     15          8           0        0.450089   -3.416353   -0.553330
     16          8           0        1.144824   -4.569503    1.309257
     17          7           0       -4.993376    2.678110    1.428768
     18          6           0       -4.028434    2.499963    2.430436
     19          6           0       -3.806329    3.772960    3.085159
     20          6           0       -4.749354    4.645840    2.497767
     21          6           0       -5.360705    3.971895    1.375806
     22          6           0       -2.884221    3.990140    4.251766
     23          6           0       -4.843071    6.010140    2.850460
     24          8           0       -4.264972    6.509370    3.826971
     25          7           0       -6.972963    2.518370   -0.713127
     26          6           0       -7.073678    3.804500   -0.419286
     27          6           0       -7.997920    4.435559   -1.323550
     28          6           0       -8.550453    3.444083   -2.077188
     29          6           0       -7.803114    2.270758   -1.736960
     30          6           0       -8.530834    5.768759   -1.205855
     31          6           0       -9.558171    3.601650   -3.286093
     32          6           0       -8.856486    4.007839   -4.606145
     33          7           0       -6.454787   -0.228368   -1.068584
     34          6           0       -7.453300   -0.162651   -2.099758
     35          6           0       -7.607835   -1.526001   -2.760034
     36          6           0       -6.650732   -2.320693   -2.161317
     37          6           0       -6.028119   -1.522379   -1.059209
     38          6           0       -8.425949   -1.852805   -3.879325
     39          6           0       -6.005770   -3.648580   -1.973453
     40          8           0       -6.410845   -4.645413   -2.469823
     41          6           0       -4.960021   -3.565141   -0.829661
     42          6           0       -5.247838   -4.630450    0.286192
     43          8           0       -5.672950   -4.300455    1.416202
     44          8           0       -4.928462   -5.865368   -0.196880
     45          6           0       -5.043792   -6.838981    0.819236
     46          6           0        2.372967   -4.928155    0.628145
     47          6           0        3.500069   -4.055216    1.060178
     48          6           0        4.118201   -3.188649    0.139034
     49          6           0        3.799653   -2.998910   -1.400349
     50          6           0        5.278994   -2.315442    0.707691
     51          6           0        6.560715   -2.598067    0.025293
     52          6           0        7.748356   -1.741115    0.579213
     53          6           0        9.039722   -1.987298   -0.155298
     54          6           0        9.437741   -3.430783    0.011695
     55          6           0       10.067203   -0.936800    0.430401
     56          6           0       11.540431   -0.928206   -0.282720
     57          6           0       12.309327    0.326696    0.122008
     58          6           0       13.764049    0.415587   -0.550171
     59          6           0       14.753474   -0.807558   -0.342442
     60          6           0       14.338140    1.813074   -0.227141
     61          6           0       15.558615    2.228578   -0.903569
     62          6           0       16.040068    3.586831   -0.566509
     63          6           0       17.385658    3.901430   -1.359428
     64          6           0       17.290599    4.045664   -2.865471
     65          6           0       17.814421    5.238853   -0.803418
     66          1           0       -2.602928    1.249871    3.485051
     67          1           0       -6.932753    5.685989    0.760875
     68          1           0       -8.788267    1.244440   -3.124657
     69          1           0       -3.713011   -2.957703    1.921760
     70          1           0       -1.901396   -1.106307    2.511404
     71          1           0       -2.801945   -2.263200    4.228378
     72          1           0       -3.071126   -0.834964    4.758505
     73          1           0       -4.384564   -1.910956    4.177627
     74          1           0       -2.318121   -3.194575   -0.259313
     75          1           0       -1.634701   -1.724118    0.258833
     76          1           0       -0.656483   -2.813690    2.356756
     77          1           0       -1.556052   -4.384897    1.732808
     78          1           0       -1.961894    3.904951    4.026206
     79          1           0       -3.067521    4.998540    4.841370
     80          1           0       -2.925268    3.082798    4.917231
     81          1           0       -5.469170    6.575325    2.170193
     82          1           0      -10.418910    2.720870   -3.498290
     83          1           0      -10.426845    4.365812   -3.262412
     84          1           0       -9.683896    4.057401   -5.451885
     85          1           0       -8.168907    4.850322   -4.411253
     86          1           0       -8.177139    3.267324   -5.101128
     87          1           0       -8.170288   -1.200474   -4.659733
     88          1           0       -8.457230   -2.876468   -4.156018
     89          1           0       -9.511459   -1.480876   -3.755165
     90          1           0       -3.935173   -3.736756   -1.313513
     91          1           0        2.598526   -6.018759    1.195697
     92          1           0        2.258372   -5.001628   -0.377044
     93          1           0        3.840508   -3.829620    1.946235
     94          1           0        2.629024   -3.272129   -1.462249
     95          1           0        3.875038   -1.789954   -1.521346
     96          1           0        4.310686   -3.700296   -1.913422
     97          1           0        4.913742   -1.426115    0.370115
     98          1           0        5.296055   -2.386447    1.799774
     99          1           0        6.770475   -3.655316   -0.103109
    100          1           0        6.430962   -2.382350   -1.184695
    101          1           0        7.352630   -0.735873    0.532938
    102          1           0        7.868495   -2.134530    1.550551
    103          1           0        9.028709   -1.735671   -1.285342
    104          1           0        8.754254   -4.036544   -0.365131
    105          1           0       10.633166   -3.467497   -0.118894
    106          1           0        9.240708   -3.546044    1.265038
    107          1           0        9.775058    0.161649    0.176630
    108          1           0       10.209740   -1.125032    1.497567
    109          1           0       12.170767   -1.838338    0.127098
    110          1           0       11.550334   -1.018395   -1.381764
    111          1           0       11.790122    1.294810    0.225086
    112          1           0       12.557332    0.140155    1.190425
    113          1           0       13.598858    0.628050   -1.589452
    114          1           0       15.099674   -0.590583    0.650238
    115          1           0       14.178856   -1.710977   -0.292127
    116          1           0       15.770225   -0.681092   -0.974801
    117          1           0       13.469476    2.517498   -0.271973
    118          1           0       14.525700    1.837974    0.875445
    119          1           0       16.476279    1.487674   -0.805093
    120          1           0       15.251307    1.935770   -1.827274
    121          1           0       15.267245    4.481837   -0.824194
    122          1           0       16.367083    3.700622    0.517987
    123          1           0       18.075420    3.185574   -0.944772
    124          1           0       16.427768    4.737791   -3.082117
    125          1           0       18.175452    4.290589   -3.389148
    126          1           0       16.873390    3.218809   -3.332430
    127          1           0       17.765995    5.242779    0.369111
    128          1           0       18.865560    5.637030   -1.184190
    129          1           0       17.209420    6.033301   -1.146518
    130          1           0       -4.613807   -7.772489    0.429282
    131          1           0       -6.103887   -7.138196    0.936941
    132          1           0       -4.416280   -6.479318    1.733898
    133          8           0       -8.211617    6.632168   -0.435610
    134          1           0       -9.261672    6.102607   -1.967939
 ---------------------------------------------------------------------

 SCF Done:  E(RCAM-B3LYP) =  -3043.45152893     A.U. after   15 cycles

 Excitation energies and oscillator strengths:

 Excited State   1:      Singlet-A      2.0836 eV  595.03 nm  f=0.1680  <S**2>=0.000
     243 -> 246       -0.27186
     244 -> 245        0.64365
 This state for optimization and/or second-order correction.
 Total Energy, E(TD-HF/TD-DFT) =  -3043.37495624
 Copying the excited state density for this state as the 1-particle RhoCI density.

 The electronic state is 1-A.
 Alpha  occ. eigenvalues --  -46.80544 -19.24833 -19.22806 -19.19190 -19.18511
 Alpha  occ. eigenvalues --  -19.17517 -19.16852 -19.15321 -14.38750 -14.36757
 Alpha  occ. eigenvalues --  -14.36401 -14.36316 -10.37184 -10.36462 -10.31913
 Alpha  occ. eigenvalues --  -10.29554 -10.28793 -10.28548 -10.28147 -10.27629
 Alpha  occ. eigenvalues --  -10.27314 -10.26581 -10.26388 -10.26273 -10.26189
 Alpha  occ. eigenvalues --  -10.26188 -10.26173 -10.25918 -10.25602 -10.25236
 Alpha  occ. eigenvalues --  -10.25207 -10.24704 -10.24354 -10.23945 -10.23858
 Alpha  occ. eigenvalues --  -10.23720 -10.23666 -10.23327 -10.23293 -10.23150
 Alpha  occ. eigenvalues --  -10.23017 -10.22972 -10.22670 -10.22446 -10.22418
 Alpha  occ. eigenvalues --  -10.22294 -10.22240 -10.22237 -10.22234 -10.22095
 Alpha  occ. eigenvalues --  -10.22015 -10.21697 -10.21574 -10.21366 -10.21351
 Alpha  occ. eigenvalues --  -10.21239 -10.21216 -10.20992 -10.20916 -10.20630
 Alpha  occ. eigenvalues --  -10.20620 -10.20390 -10.20332 -10.20033 -10.19917
 Alpha  occ. eigenvalues --  -10.19459  -3.09271  -1.84202  -1.83756  -1.83679
 Alpha  occ. eigenvalues --   -1.14680  -1.12982  -1.09403  -1.07822  -1.05583
 Alpha  occ. eigenvalues --   -1.04926  -1.04088  -1.01209  -0.99274  -0.98520
 Alpha  occ. eigenvalues --   -0.97617  -0.88461  -0.87486  -0.86222  -0.85577
 Alpha  occ. eigenvalues --   -0.84938  -0.84331  -0.84295  -0.84039  -0.83498
 Alpha  occ. eigenvalues --   -0.83036  -0.82232  -0.81842  -0.80582  -0.79746
 Alpha  occ. eigenvalues --   -0.79160  -0.78462  -0.77815  -0.77261  -0.76474
 Alpha  occ. eigenvalues --   -0.75631  -0.75410  -0.74520  -0.72960  -0.72899
 Alpha  occ. eigenvalues --   -0.71518  -0.71495  -0.70573  -0.70346  -0.69645
 Alpha  occ. eigenvalues --   -0.69274  -0.69062  -0.67840  -0.66318  -0.65940
 Alpha  occ. eigenvalues --   -0.65170  -0.64784  -0.64215  -0.62985  -0.62334
 Alpha  occ. eigenvalues --   -0.62107  -0.60924  -0.60333  -0.60007  -0.59361
 Alpha  occ. eigenvalues --   -0.59285  -0.58422  -0.58140  -0.57772  -0.57718
 Alpha  occ. eigenvalues --   -0.56171  -0.55779  -0.55505  -0.55047  -0.54757
 Alpha  occ. eigenvalues --   -0.54201  -0.53671  -0.53278  -0.52923  -0.52837
 Alpha  occ. eigenvalues --   -0.52515  -0.52190  -0.51786  -0.51240  -0.51090
 Alpha  occ. eigenvalues --   -0.50852  -0.50432  -0.50141  -0.49947  -0.49213
 Alpha  occ. eigenvalues --   -0.48840  -0.48558  -0.48373  -0.48142  -0.47933
 Alpha  occ. eigenvalues --   -0.47829  -0.47659  -0.47316  -0.46994  -0.46694
 Alpha  occ. eigenvalues --   -0.46602  -0.46488  -0.46437  -0.46212  -0.46049
 Alpha  occ. eigenvalues --   -0.45744  -0.45569  -0.45011  -0.44958  -0.44528
 Alpha  occ. eigenvalues --   -0.44487  -0.44226  -0.44143  -0.43867  -0.43522
 Alpha  occ. eigenvalues --   -0.43372  -0.43158  -0.43020  -0.42769  -0.42642
 Alpha  occ. eigenvalues --   -0.42441  -0.42270  -0.42144  -0.42076  -0.41970
 Alpha  occ. eigenvalues --   -0.41778  -0.41689  -0.41447  -0.41381  -0.41257
 Alpha  occ. eigenvalues --   -0.41065  -0.40412  -0.40352  -0.40308  -0.40262
 Alpha  occ. eigenvalues --   -0.39925  -0.39827  -0.39772  -0.39435  -0.39328
 Alpha  occ. eigenvalues --   -0.39231  -0.38978  -0.38806  -0.38797  -0.38474
 Alpha  occ. eigenvalues --   -0.38151  -0.38085  -0.37837  -0.37711  -0.37319
 Alpha  occ. eigenvalues --   -0.36908  -0.36577  -0.36549  -0.36020  -0.35615
 Alpha  occ. eigenvalues --   -0.35273  -0.35127  -0.35007  -0.34740  -0.34661
 Alpha  occ. eigenvalues --   -0.34552  -0.34202  -0.34169  -0.34047  -0.33666
 Alpha  occ. eigenvalues --   -0.32882  -0.32625  -0.32214  -0.31715  -0.31653
 Alpha  occ. eigenvalues --   -0.31506  -0.31354  -0.31266  -0.30230  -0.29612
 Alpha  occ. eigenvalues --   -0.28941  -0.28488  -0.27770  -0.27424  -0.26909
 Alpha  occ. eigenvalues --   -0.26690  -0.26150  -0.22912  -0.21343
 Alpha virt. eigenvalues --   -0.07940  -0.06236  -0.01297   0.00073   0.00423
 Alpha virt. eigenvalues --    0.01405   0.01644   0.03474   0.04061   0.04604
 Alpha virt. eigenvalues --    0.04840   0.06370   0.07809   0.08411   0.09204

 Mulliken charges:
               1
     1  Mg   0.821392
     2  C    0.079192
     3  C   -0.206754
     4  C   -0.179069
     5  C   -0.178290
     6  N   -0.674956
     7  C    0.294953
     8  C   -0.112831
     9  C   -0.143490
    10  C    0.348305
    11  C   -0.305570
    12  C   -0.194180
    13  C   -0.257760
    14  C    0.590921
    15  O   -0.459187
    16  O   -0.452910
    17  N   -0.692404
    18  C    0.322429
    19  C    0.048955
    20  C   -0.046099
    21  C    0.301528
    22  C   -0.379019
    23  C    0.245560
    24  O   -0.453026
    25  N   -0.670111
    26  C    0.309597
    27  C   -0.057491
    28  C    0.037375
    29  C    0.276140
    30  C    0.246823
    31  C   -0.254698
    32  C   -0.296374
    33  N   -0.712623
    34  C    0.295395
    35  C    0.043084
    36  C    0.030465
    37  C    0.275096
    38  C   -0.398648
    39  C    0.363544
    40  O   -0.420793
    41  C   -0.339834
    42  C    0.634811
    43  O   -0.471668
    44  O   -0.418649
    45  C   -0.093936
    46  C    0.010007
    47  C   -0.080835
    48  C    0.058182
    49  C   -0.366169
    50  C   -0.206457
    51  C   -0.189227
    52  C   -0.150944
    53  C   -0.051729
    54  C   -0.281657
    55  C   -0.172701
    56  C   -0.190755
    57  C   -0.192282
    58  C   -0.064671
    59  C   -0.322281
    60  C   -0.187743
    61  C   -0.148215
    62  C   -0.160939
    63  C   -0.053609
    64  C   -0.311111
    65  C   -0.295659
    66  H    0.073974
    67  H    0.170414
    68  H    0.085556
    69  H    0.123465
    70  H    0.109232
    71  H    0.121003
    72  H    0.111758
    73  H    0.121424
    74  H    0.117077
    75  H    0.112152
    76  H    0.126166
    77  H    0.139698
    78  H    0.135185
    79  H    0.163514
    80  H    0.100195
    81  H    0.072479
    82  H    0.081795
    83  H    0.117988
    84  H    0.094779
    85  H    0.122690
    86  H    0.106741
    87  H    0.146652
    88  H    0.152486
    89  H    0.118204
    90  H    0.157405
    91  H    0.086629
    92  H    0.129248
    93  H    0.067181
    94  H    0.135769
    95  H    0.104482
    96  H    0.142810
    97  H    0.112182
    98  H    0.093781
    99  H    0.097411
   100  H    0.060476
   101  H    0.095202
   102  H    0.099754
   103  H    0.073520
   104  H    0.125043
   105  H    0.101011
   106  H    0.047268
   107  H    0.086319
   108  H    0.095180
   109  H    0.076052
   110  H    0.096071
   111  H    0.093566
   112  H    0.090578
   113  H    0.084464
   114  H    0.114959
   115  H    0.112034
   116  H    0.096765
   117  H    0.085310
   118  H    0.066734
   119  H    0.068080
   120  H    0.100832
   121  H    0.067905
   122  H    0.093012
   123  H    0.092126
   124  H    0.093409
   125  H    0.113239
   126  H    0.106630
   127  H    0.075797
   128  H    0.070187
   129  H    0.108044
   130  H    0.125409
   131  H    0.138680
   132  H    0.120861
   133  O   -0.420810
   134  H    0.058367
 Sum of Mulliken charges =  -0.00000

 Dipole moment (field-independent basis, Debye):
    X=              2.2323    Y=             -7.1523    Z=             -2.1097  Tot=              7.7839
 Quadrupole moment (field-independent basis, Debye-Ang):
   XX=           -394.2513   YY=           -440.6472   ZZ=           -393.3064
   XY=             21.1013   XZ=             28.1488   YZ=            -36.9426

 Normal termination of Gaussian 16 at Wed Oct  9 21:27:30 2019.
