 Gaussian 16, Revision A.03,
 Gaussian 16:  ES64L-G16RevA.03 25-Dec-2016

 ----------------------------------------------------------------------
 # td=(NStates=1) iop(3/107=0140000000,3/108=0140000000) iop(3/107=0140
 000000,3/108=0140000000) CAM-B3LYP/6-31G(d,p)
 ----------------------------------------------------------------------

 --
 TD
 --
 Symbolic Z-matrix:
 Charge =  0 Multiplicity = 1

                         Standard orientation:
 ---------------------------------------------------------------------
 Center     Atomic      Atomic             Coordinates (Angstroms)
 Number     Number       Type             X           Y           Z
 ---------------------------------------------------------------------
      1         12           0       -5.563218    1.331128    0.139313
      2          6           0       -5.027262   -2.163880   -0.316627
      3          6           0       -3.427514    1.175664    2.769711
      4          6           0       -6.267488    4.523159    0.706075
      5          6           0       -7.977575    1.132184   -2.426301
      6          7           0       -4.333266   -0.314392    1.051011
      7          6           0       -4.235479   -1.591796    0.644068
      8          6           0       -3.202199   -2.270903    1.499680
      9          6           0       -2.964586   -1.372685    2.644664
     10          6           0       -3.665369    0.000848    2.177571
     11          6           0       -3.727954   -1.728233    3.989621
     12          6           0       -1.963870   -2.672112    0.692307
     13          6           0       -1.045222   -3.484406    1.549946
     14          6           0        0.114612   -3.820580    0.701410
     15          8           0        0.413138   -3.460842   -0.419908
     16          8           0        1.091450   -4.687103    1.299898
     17          7           0       -4.937986    2.664650    1.516488
     18          6           0       -3.964282    2.450009    2.484606
     19          6           0       -3.689967    3.580579    3.099697
     20          6           0       -4.531260    4.696390    2.487745
     21          6           0       -5.324406    4.029113    1.550942
     22          6           0       -2.817255    3.851879    4.237096
     23          6           0       -4.647643    6.069290    2.939941
     24          8           0       -4.069665    6.552246    3.855278
     25          7           0       -6.819989    2.611578   -0.826715
     26          6           0       -6.979147    3.874055   -0.381830
     27          6           0       -7.989823    4.528971   -1.086551
     28          6           0       -8.416207    3.660970   -2.072401
     29          6           0       -7.688492    2.390090   -1.856095
     30          6           0       -8.414332    5.909110   -1.141856
     31          6           0       -9.435200    3.815212   -3.093559
     32          6           0       -8.812887    3.927706   -4.486742
     33          7           0       -6.364977   -0.232576   -1.080799
     34          6           0       -7.324217   -0.092942   -2.172347
     35          6           0       -7.491311   -1.409783   -2.688411
     36          6           0       -6.596260   -2.202855   -2.131693
     37          6           0       -5.967005   -1.464423   -1.074280
     38          6           0       -8.495821   -1.618251   -3.881639
     39          6           0       -6.172236   -3.639242   -1.973571
     40          8           0       -6.539562   -4.647468   -2.648693
     41          6           0       -5.016026   -3.589095   -0.919035
     42          6           0       -5.282983   -4.680940    0.085443
     43          8           0       -5.621354   -4.448385    1.145634
     44          8           0       -4.867424   -5.903017   -0.280612
     45          6           0       -5.071898   -7.061054    0.617513
     46          6           0        2.416166   -5.061028    0.719559
     47          6           0        3.508470   -4.074399    1.013242
     48          6           0        4.000688   -3.156641    0.199643
     49          6           0        3.679609   -3.125213   -1.319107
     50          6           0        5.134697   -2.256246    0.623425
     51          6           0        6.523638   -2.706928    0.065055
     52          6           0        7.670858   -1.825837    0.617686
     53          6           0        9.029487   -1.965142   -0.123598
     54          6           0        9.602793   -3.339788    0.015693
     55          6           0        9.938209   -0.837214    0.352418
     56          6           0       11.310491   -0.820894   -0.355481
     57          6           0       12.284031    0.230334    0.343826
     58          6           0       13.577813    0.479909   -0.498698
     59          6           0       14.441652   -0.817776   -0.418776
     60          6           0       14.269080    1.903393   -0.044950
     61          6           0       15.436302    2.173779   -0.912434
     62          6           0       16.009024    3.574742   -0.643963
     63          6           0       17.293837    3.873040   -1.380129
     64          6           0       17.001791    4.051527   -2.971152
     65          6           0       17.928497    5.204187   -0.754232
     66          1           0       -2.879577    1.153854    3.747606
     67          1           0       -6.543377    5.551102    0.746632
     68          1           0       -8.644198    1.114423   -3.234355
     69          1           0       -3.774269   -3.318089    1.780398
     70          1           0       -1.831743   -1.054506    2.969884
     71          1           0       -3.282008   -2.648264    4.089387
     72          1           0       -3.446654   -0.969259    4.630556
     73          1           0       -4.810084   -1.891762    4.073389
     74          1           0       -1.854281   -2.960940   -0.384553
     75          1           0       -1.341852   -1.725037    0.607508
     76          1           0       -0.575600   -3.068518    2.560804
     77          1           0       -1.418114   -4.466372    1.707205
     78          1           0       -1.897511    3.093496    4.072283
     79          1           0       -2.419323    4.914880    4.457899
     80          1           0       -3.293204    3.371552    5.022260
     81          1           0       -5.422893    6.745008    2.460567
     82          1           0      -10.358253    3.071340   -3.276303
     83          1           0      -10.068784    4.450268   -2.966404
     84          1           0       -9.705373    4.085981   -5.249447
     85          1           0       -8.200369    4.897385   -4.536751
     86          1           0       -8.228806    3.138389   -4.781951
     87          1           0       -8.157347   -0.977241   -4.715199
     88          1           0       -8.355633   -2.598730   -4.164029
     89          1           0       -9.684566   -1.502622   -3.670260
     90          1           0       -4.195672   -3.797080   -1.507951
     91          1           0        2.652560   -6.003373    1.239248
     92          1           0        2.258926   -5.108102   -0.336262
     93          1           0        3.833546   -3.930092    2.232717
     94          1           0        2.615055   -3.435888   -1.495652
     95          1           0        3.895591   -2.028485   -1.639465
     96          1           0        3.983713   -4.027476   -2.088646
     97          1           0        5.070625   -1.189168    0.389472
     98          1           0        5.075467   -2.139886    1.788349
     99          1           0        6.700298   -3.756998    0.455048
    100          1           0        6.597615   -2.702707   -0.954041
    101          1           0        7.518566   -0.756753    0.415385
    102          1           0        8.001318   -1.930159    1.664252
    103          1           0        8.813411   -1.796458   -1.195147
    104          1           0        8.901348   -4.038019   -0.382351
    105          1           0       10.507499   -3.455501   -0.461601
    106          1           0        9.574519   -3.570564    1.116930
    107          1           0        9.382997   -0.049458    0.233630
    108          1           0       10.069828   -1.070942    1.500120
    109          1           0       11.661380   -1.830519   -0.300673
    110          1           0       11.270930   -0.569566   -1.416415
    111          1           0       11.612807    1.164537    0.335906
    112          1           0       12.567792   -0.021796    1.285947
    113          1           0       13.270848    0.592372   -1.520450
    114          1           0       14.814835   -0.974815    0.576650
    115          1           0       13.771281   -1.716652   -0.623761
    116          1           0       15.331117   -0.845640   -1.185836
    117          1           0       13.363204    2.571591   -0.225201
    118          1           0       14.556882    1.937389    1.027739
    119          1           0       16.456866    1.529487   -0.813963
    120          1           0       15.149678    2.011821   -1.909480
    121          1           0       15.148460    4.125767   -1.015920
    122          1           0       16.340137    3.489644    0.367949
    123          1           0       18.019274    3.078758   -1.255049
    124          1           0       16.196626    4.811351   -3.216742
    125          1           0       17.995659    4.449831   -3.445651
    126          1           0       16.815740    3.018808   -3.369171
    127          1           0       17.990542    5.311820    0.329626
    128          1           0       18.726351    5.488218   -1.509229
    129          1           0       17.188348    6.003784   -1.004258
    130          1           0       -4.786236   -7.959161   -0.021582
    131          1           0       -6.236518   -7.075263    0.941403
    132          1           0       -4.289822   -6.922551    1.402027
    133          8           0       -7.880004    6.839366   -0.601836
    134          1           0       -9.491484    6.139676   -1.663507
 ---------------------------------------------------------------------

 SCF Done:  E(RCAM-B3LYP) =  -3043.47107758     A.U. after   15 cycles

 Excitation energies and oscillator strengths:

 Excited State   1:      Singlet-A      2.0842 eV  594.87 nm  f=0.1539  <S**2>=0.000
     243 -> 246        0.29874
     244 -> 245        0.62248
 This state for optimization and/or second-order correction.
 Total Energy, E(TD-HF/TD-DFT) =  -3043.39448356
 Copying the excited state density for this state as the 1-particle RhoCI density.

 The electronic state is 1-A.
 Alpha  occ. eigenvalues --  -46.82034 -19.21523 -19.19135 -19.17866 -19.17792
 Alpha  occ. eigenvalues --  -19.17337 -19.17214 -19.16130 -14.38155 -14.37600
 Alpha  occ. eigenvalues --  -14.36326 -14.36153 -10.35096 -10.34484 -10.32613
 Alpha  occ. eigenvalues --  -10.31423 -10.29796 -10.29426 -10.27623 -10.27485
 Alpha  occ. eigenvalues --  -10.27004 -10.26909 -10.26776 -10.26720 -10.25893
 Alpha  occ. eigenvalues --  -10.25616 -10.25578 -10.25559 -10.25227 -10.25124
 Alpha  occ. eigenvalues --  -10.25077 -10.25028 -10.24969 -10.24850 -10.24325
 Alpha  occ. eigenvalues --  -10.23976 -10.23938 -10.23874 -10.23605 -10.23235
 Alpha  occ. eigenvalues --  -10.22980 -10.22936 -10.22850 -10.22770 -10.22687
 Alpha  occ. eigenvalues --  -10.22530 -10.22365 -10.22335 -10.22333 -10.22182
 Alpha  occ. eigenvalues --  -10.21837 -10.21815 -10.21517 -10.21434 -10.21371
 Alpha  occ. eigenvalues --  -10.21030 -10.20736 -10.20605 -10.20527 -10.20446
 Alpha  occ. eigenvalues --  -10.20410 -10.20311 -10.20188 -10.19784 -10.19436
 Alpha  occ. eigenvalues --  -10.18833  -3.10406  -1.85363  -1.84881  -1.84789
 Alpha  occ. eigenvalues --   -1.15781  -1.10599  -1.08389  -1.07862  -1.06315
 Alpha  occ. eigenvalues --   -1.04767  -1.01562  -1.01233  -1.00731  -0.99869
 Alpha  occ. eigenvalues --   -0.98426  -0.88663  -0.87079  -0.86503  -0.85886
 Alpha  occ. eigenvalues --   -0.85682  -0.84696  -0.84300  -0.84257  -0.84121
 Alpha  occ. eigenvalues --   -0.82437  -0.82269  -0.81980  -0.80846  -0.80076
 Alpha  occ. eigenvalues --   -0.79412  -0.78086  -0.77759  -0.77575  -0.76010
 Alpha  occ. eigenvalues --   -0.75259  -0.75039  -0.74016  -0.73461  -0.72569
 Alpha  occ. eigenvalues --   -0.71221  -0.70408  -0.69943  -0.69778  -0.69698
 Alpha  occ. eigenvalues --   -0.69501  -0.68859  -0.67959  -0.67255  -0.66954
 Alpha  occ. eigenvalues --   -0.65972  -0.64728  -0.64271  -0.62898  -0.62092
 Alpha  occ. eigenvalues --   -0.61515  -0.61194  -0.60567  -0.59739  -0.58832
 Alpha  occ. eigenvalues --   -0.58078  -0.57996  -0.57856  -0.57533  -0.57105
 Alpha  occ. eigenvalues --   -0.56501  -0.55986  -0.55732  -0.55468  -0.54334
 Alpha  occ. eigenvalues --   -0.54175  -0.53855  -0.53676  -0.52661  -0.52316
 Alpha  occ. eigenvalues --   -0.51907  -0.51891  -0.51539  -0.50893  -0.50825
 Alpha  occ. eigenvalues --   -0.50273  -0.49828  -0.49802  -0.49459  -0.49373
 Alpha  occ. eigenvalues --   -0.48780  -0.48607  -0.48054  -0.47928  -0.47736
 Alpha  occ. eigenvalues --   -0.47529  -0.47214  -0.47164  -0.47074  -0.47054
 Alpha  occ. eigenvalues --   -0.46703  -0.46554  -0.46326  -0.46037  -0.45955
 Alpha  occ. eigenvalues --   -0.45840  -0.45788  -0.45635  -0.45488  -0.45133
 Alpha  occ. eigenvalues --   -0.44810  -0.44590  -0.44517  -0.44106  -0.43802
 Alpha  occ. eigenvalues --   -0.43646  -0.43372  -0.43334  -0.43134  -0.43101
 Alpha  occ. eigenvalues --   -0.42863  -0.42723  -0.42455  -0.42369  -0.42142
 Alpha  occ. eigenvalues --   -0.42069  -0.41817  -0.41437  -0.41307  -0.41254
 Alpha  occ. eigenvalues --   -0.40814  -0.40452  -0.40295  -0.40048  -0.39928
 Alpha  occ. eigenvalues --   -0.39883  -0.39600  -0.39529  -0.39202  -0.39019
 Alpha  occ. eigenvalues --   -0.39011  -0.38881  -0.38272  -0.38108  -0.37818
 Alpha  occ. eigenvalues --   -0.37697  -0.37247  -0.37142  -0.36881  -0.36727
 Alpha  occ. eigenvalues --   -0.36328  -0.36097  -0.36044  -0.35847  -0.35464
 Alpha  occ. eigenvalues --   -0.35249  -0.35086  -0.34997  -0.34660  -0.34561
 Alpha  occ. eigenvalues --   -0.34266  -0.33810  -0.33691  -0.33663  -0.33402
 Alpha  occ. eigenvalues --   -0.33123  -0.32844  -0.32134  -0.32105  -0.31221
 Alpha  occ. eigenvalues --   -0.31047  -0.30636  -0.30572  -0.29604  -0.29207
 Alpha  occ. eigenvalues --   -0.29090  -0.28870  -0.28351  -0.28129  -0.27312
 Alpha  occ. eigenvalues --   -0.27043  -0.26105  -0.23118  -0.22776
 Alpha virt. eigenvalues --   -0.09418  -0.06869  -0.01460  -0.00563   0.01070
 Alpha virt. eigenvalues --    0.02266   0.02970   0.03715   0.04297   0.04803
 Alpha virt. eigenvalues --    0.05369   0.05774   0.07676   0.08021   0.09416

 Mulliken charges:
               1
     1  Mg   0.827400
     2  C    0.112539
     3  C   -0.183281
     4  C   -0.161372
     5  C   -0.142633
     6  N   -0.646519
     7  C    0.314933
     8  C   -0.159081
     9  C   -0.177648
    10  C    0.353039
    11  C   -0.297153
    12  C   -0.201607
    13  C   -0.238311
    14  C    0.580147
    15  O   -0.456006
    16  O   -0.535744
    17  N   -0.769490
    18  C    0.384954
    19  C    0.010250
    20  C   -0.021944
    21  C    0.327422
    22  C   -0.383997
    23  C    0.225879
    24  O   -0.404160
    25  N   -0.719466
    26  C    0.316052
    27  C   -0.000151
    28  C    0.027438
    29  C    0.279969
    30  C    0.229190
    31  C   -0.211568
    32  C   -0.312367
    33  N   -0.731451
    34  C    0.253190
    35  C   -0.000138
    36  C    0.024400
    37  C    0.328110
    38  C   -0.374969
    39  C    0.369215
    40  O   -0.473666
    41  C   -0.320432
    42  C    0.607434
    43  O   -0.412856
    44  O   -0.472769
    45  C   -0.082889
    46  C    0.037637
    47  C   -0.122533
    48  C    0.155022
    49  C   -0.379183
    50  C   -0.239425
    51  C   -0.160364
    52  C   -0.174098
    53  C   -0.093988
    54  C   -0.298046
    55  C   -0.143507
    56  C   -0.193260
    57  C   -0.169905
    58  C   -0.065889
    59  C   -0.314222
    60  C   -0.170287
    61  C   -0.178333
    62  C   -0.139575
    63  C   -0.060493
    64  C   -0.322296
    65  C   -0.321488
    66  H    0.080985
    67  H    0.127463
    68  H    0.093985
    69  H    0.115497
    70  H    0.094968
    71  H    0.115857
    72  H    0.114682
    73  H    0.129212
    74  H    0.148814
    75  H    0.117584
    76  H    0.146990
    77  H    0.149992
    78  H    0.082871
    79  H    0.161177
    80  H    0.142963
    81  H    0.063832
    82  H    0.084568
    83  H    0.102976
    84  H    0.088167
    85  H    0.106662
    86  H    0.126577
    87  H    0.129216
    88  H    0.152647
    89  H    0.113059
    90  H    0.171429
    91  H    0.121118
    92  H    0.112573
    93  H    0.052672
    94  H    0.146597
    95  H    0.104174
    96  H    0.097563
    97  H    0.099622
    98  H    0.083798
    99  H    0.098254
   100  H    0.113801
   101  H    0.082388
   102  H    0.088625
   103  H    0.069752
   104  H    0.101681
   105  H    0.107435
   106  H    0.085381
   107  H    0.093570
   108  H    0.065569
   109  H    0.099567
   110  H    0.090773
   111  H    0.073564
   112  H    0.100568
   113  H    0.083961
   114  H    0.106747
   115  H    0.095098
   116  H    0.088428
   117  H    0.088875
   118  H    0.087703
   119  H    0.059835
   120  H    0.094638
   121  H    0.092860
   122  H    0.092522
   123  H    0.087785
   124  H    0.104177
   125  H    0.085361
   126  H    0.108774
   127  H    0.109007
   128  H    0.093460
   129  H    0.095740
   130  H    0.137654
   131  H    0.131502
   132  H    0.130783
   133  O   -0.400543
   134  H    0.048764
 Sum of Mulliken charges =  -0.00000

 Dipole moment (field-independent basis, Debye):
    X=              0.0139    Y=             -4.5560    Z=             -1.2756  Tot=              4.7313
 Quadrupole moment (field-independent basis, Debye-Ang):
   XX=           -385.0693   YY=           -439.2107   ZZ=           -394.2640
   XY=              8.0332   XZ=             18.6090   YZ=            -32.8350

 Normal termination of Gaussian 16 at Thu Oct 10 15:16:23 2019.
