 Gaussian 16, Revision A.03,
 Gaussian 16:  ES64L-G16RevA.03 25-Dec-2016

 ----------------------------------------------------------------------
 # td=(NStates=1) iop(3/107=0140000000,3/108=0140000000) iop(3/107=0140
 000000,3/108=0140000000) CAM-B3LYP/6-31G(d,p)
 ----------------------------------------------------------------------

 --
 TD
 --
 Symbolic Z-matrix:
 Charge =  0 Multiplicity = 1

                         Standard orientation:
 ---------------------------------------------------------------------
 Center     Atomic      Atomic             Coordinates (Angstroms)
 Number     Number       Type             X           Y           Z
 ---------------------------------------------------------------------
      1         12           0       -5.522465    1.254294    0.214215
      2          6           0       -4.977620   -2.128445   -0.383976
      3          6           0       -3.348243    1.158425    2.787787
      4          6           0       -6.165772    4.607663    0.606142
      5          6           0       -7.991361    1.266566   -2.313286
      6          7           0       -4.295294   -0.213080    0.909546
      7          6           0       -4.238570   -1.682783    0.586119
      8          6           0       -3.167337   -2.360265    1.502617
      9          6           0       -2.910938   -1.348995    2.654628
     10          6           0       -3.569977   -0.109848    2.015430
     11          6           0       -3.603881   -1.832773    3.944083
     12          6           0       -1.995203   -2.707491    0.681374
     13          6           0       -1.060302   -3.624849    1.334155
     14          6           0        0.218738   -4.011410    0.559631
     15          8           0        0.430377   -3.549121   -0.494270
     16          8           0        1.010335   -4.830307    1.244575
     17          7           0       -4.963758    2.649465    1.486465
     18          6           0       -3.942300    2.343698    2.428247
     19          6           0       -3.782751    3.626832    3.153430
     20          6           0       -4.599692    4.559083    2.658589
     21          6           0       -5.317476    3.940768    1.595276
     22          6           0       -2.786969    3.908520    4.360162
     23          6           0       -4.737428    5.952379    3.161021
     24          8           0       -4.114424    6.527662    4.035694
     25          7           0       -6.821446    2.609690   -0.670148
     26          6           0       -6.916407    3.948119   -0.351384
     27          6           0       -7.807024    4.612452   -1.147841
     28          6           0       -8.240237    3.726088   -2.069127
     29          6           0       -7.718498    2.419429   -1.756453
     30          6           0       -8.111219    6.085031   -1.147193
     31          6           0       -9.288968    3.936508   -3.230332
     32          6           0       -8.643998    4.210172   -4.516428
     33          7           0       -6.367908   -0.129211   -1.085730
     34          6           0       -7.404607    0.021297   -1.993484
     35          6           0       -7.548223   -1.319441   -2.730191
     36          6           0       -6.564913   -2.074340   -2.131657
     37          6           0       -6.033638   -1.409646   -1.077134
     38          6           0       -8.509255   -1.600902   -3.797062
     39          6           0       -6.149915   -3.460913   -2.099857
     40          8           0       -6.571797   -4.405760   -2.766193
     41          6           0       -5.007729   -3.433502   -1.001581
     42          6           0       -5.362246   -4.573685   -0.012787
     43          8           0       -5.833768   -4.341171    1.088303
     44          8           0       -4.973757   -5.808244   -0.476691
     45          6           0       -5.282501   -6.839785    0.434219
     46          6           0        2.215018   -5.286227    0.708235
     47          6           0        3.370973   -4.314118    1.088370
     48          6           0        4.070076   -3.535130    0.171827
     49          6           0        3.838902   -3.472349   -1.211982
     50          6           0        5.115680   -2.565722    0.750053
     51          6           0        6.502213   -2.792082    0.172938
     52          6           0        7.550850   -1.759722    0.705034
     53          6           0        9.023634   -1.972987   -0.002453
     54          6           0        9.613864   -3.360239    0.292311
     55          6           0        9.921962   -0.867130    0.406225
     56          6           0       11.335853   -0.863079   -0.224258
     57          6           0       12.141100    0.326195    0.134838
     58          6           0       13.512526    0.389017   -0.572858
     59          6           0       14.407236   -0.877744   -0.309621
     60          6           0       14.264319    1.672344   -0.229117
     61          6           0       15.493279    2.098396   -1.108023
     62          6           0       15.918083    3.496592   -0.700470
     63          6           0       17.210010    4.142058   -1.370517
     64          6           0       16.926998    4.417834   -2.927886
     65          6           0       17.813470    5.391171   -0.770577
     66          1           0       -2.628251    1.074566    3.543005
     67          1           0       -6.290115    5.722973    0.688087
     68          1           0       -8.795355    1.139737   -3.113907
     69          1           0       -3.694420   -3.348359    1.870488
     70          1           0       -1.776545   -1.137265    2.770565
     71          1           0       -2.925815   -2.695234    4.088556
     72          1           0       -3.690489   -1.227699    4.746277
     73          1           0       -4.696979   -2.260652    3.824915
     74          1           0       -2.298377   -3.188314   -0.351797
     75          1           0       -1.298894   -1.875001    0.195886
     76          1           0       -0.588495   -3.035577    2.216401
     77          1           0       -1.512871   -4.574623    1.663865
     78          1           0       -1.848054    3.534446    3.977475
     79          1           0       -2.802766    5.024552    4.540177
     80          1           0       -3.278445    3.245874    5.201473
     81          1           0       -5.682923    6.382207    2.649386
     82          1           0      -10.059483    3.123268   -3.085453
     83          1           0       -9.976003    4.692438   -2.805183
     84          1           0       -9.205915    4.170269   -5.468229
     85          1           0       -8.196046    5.319862   -4.714430
     86          1           0       -7.785810    3.363382   -4.816957
     87          1           0       -8.302388   -0.991334   -4.769088
     88          1           0       -8.211889   -2.694360   -4.156510
     89          1           0       -9.729064   -1.393741   -3.737749
     90          1           0       -4.160950   -3.761074   -1.577999
     91          1           0        2.461778   -6.297887    1.010868
     92          1           0        2.085009   -5.461574   -0.385245
     93          1           0        3.533851   -4.400351    2.026617
     94          1           0        2.901303   -3.840189   -1.739481
     95          1           0        3.893334   -2.396267   -1.603445
     96          1           0        4.539146   -3.896368   -1.851394
     97          1           0        4.749640   -1.608593    0.807735
     98          1           0        4.953202   -2.829761    1.761329
     99          1           0        6.801191   -3.711650    0.282326
    100          1           0        6.608315   -2.623336   -0.942831
    101          1           0        7.213979   -0.620844    0.931553
    102          1           0        7.725579   -2.101053    1.792057
    103          1           0        8.745243   -1.935291   -1.089448
    104          1           0        8.942433   -4.074152   -0.062348
    105          1           0       10.563548   -3.660955   -0.236693
    106          1           0        9.572532   -3.479111    1.386416
    107          1           0        9.380965   -0.051577    0.138077
    108          1           0       10.176341   -0.687819    1.530184
    109          1           0       11.837619   -1.915062    0.063736
    110          1           0       11.263868   -0.812271   -1.326031
    111          1           0       11.485313    1.347271   -0.093433
    112          1           0       12.302802    0.354614    1.161571
    113          1           0       13.320707    0.558266   -1.723949
    114          1           0       14.903351   -0.787639    0.799037
    115          1           0       13.676008   -1.860531   -0.101052
    116          1           0       15.237662   -0.869710   -0.944202
    117          1           0       13.595450    2.526893   -0.420491
    118          1           0       14.629672    1.631604    0.751098
    119          1           0       16.332468    1.295393   -1.069652
    120          1           0       15.226741    2.195581   -2.098161
    121          1           0       15.169954    4.558598   -0.798410
    122          1           0       16.049470    3.507150    0.348753
    123          1           0       17.902807    3.302209   -1.470679
    124          1           0       15.996754    5.052935   -2.935460
    125          1           0       17.752452    4.810073   -3.387516
    126          1           0       16.781537    3.461213   -3.427737
    127          1           0       17.882229    5.205193    0.208648
    128          1           0       18.687531    5.736982   -1.243715
    129          1           0       17.132740    6.187093   -0.779780
    130          1           0       -4.913386   -7.969487    0.033274
    131          1           0       -6.338081   -7.090078    0.583773
    132          1           0       -4.777651   -6.718973    1.308470
    133          8           0       -7.485961    6.778199   -0.386436
    134          1           0       -8.906188    6.493259   -1.816204
 ---------------------------------------------------------------------

 SCF Done:  E(RCAM-B3LYP) =  -3043.46206789     A.U. after   15 cycles

 Excitation energies and oscillator strengths:

 Excited State   1:      Singlet-A      1.9734 eV  628.26 nm  f=0.2579  <S**2>=0.000
     243 -> 246        0.15660
     244 -> 245        0.68654
 This state for optimization and/or second-order correction.
 Total Energy, E(TD-HF/TD-DFT) =  -3043.38954523
 Copying the excited state density for this state as the 1-particle RhoCI density.

 The electronic state is 1-A.
 Alpha  occ. eigenvalues --  -46.80065 -19.23538 -19.22443 -19.18043 -19.17856
 Alpha  occ. eigenvalues --  -19.17824 -19.16933 -19.16749 -14.39809 -14.36301
 Alpha  occ. eigenvalues --  -14.35898 -14.35556 -10.35774 -10.34603 -10.31326
 Alpha  occ. eigenvalues --  -10.31082 -10.30778 -10.29005 -10.27677 -10.27544
 Alpha  occ. eigenvalues --  -10.27187 -10.26836 -10.26434 -10.26170 -10.25393
 Alpha  occ. eigenvalues --  -10.25280 -10.24983 -10.24468 -10.24398 -10.24371
 Alpha  occ. eigenvalues --  -10.24353 -10.24314 -10.24298 -10.24270 -10.24146
 Alpha  occ. eigenvalues --  -10.24015 -10.23940 -10.23814 -10.23733 -10.23507
 Alpha  occ. eigenvalues --  -10.23466 -10.23071 -10.23055 -10.23022 -10.22529
 Alpha  occ. eigenvalues --  -10.22467 -10.22424 -10.22359 -10.22118 -10.22096
 Alpha  occ. eigenvalues --  -10.21917 -10.21614 -10.21332 -10.21256 -10.21210
 Alpha  occ. eigenvalues --  -10.21161 -10.21141 -10.20863 -10.20730 -10.20498
 Alpha  occ. eigenvalues --  -10.20376 -10.20208 -10.20105 -10.20088 -10.19020
 Alpha  occ. eigenvalues --  -10.18106  -3.08854  -1.83781  -1.83333  -1.83269
 Alpha  occ. eigenvalues --   -1.15241  -1.13713  -1.08673  -1.07222  -1.07147
 Alpha  occ. eigenvalues --   -1.05787  -1.05496  -1.00149  -0.99380  -0.98660
 Alpha  occ. eigenvalues --   -0.97988  -0.89511  -0.86885  -0.86346  -0.85301
 Alpha  occ. eigenvalues --   -0.84726  -0.83987  -0.83936  -0.83711  -0.82793
 Alpha  occ. eigenvalues --   -0.82528  -0.82278  -0.82077  -0.80409  -0.79441
 Alpha  occ. eigenvalues --   -0.78943  -0.78684  -0.77742  -0.77375  -0.76860
 Alpha  occ. eigenvalues --   -0.75509  -0.74353  -0.74021  -0.72812  -0.72330
 Alpha  occ. eigenvalues --   -0.71629  -0.71142  -0.71028  -0.69763  -0.69422
 Alpha  occ. eigenvalues --   -0.68759  -0.68576  -0.67147  -0.66289  -0.65726
 Alpha  occ. eigenvalues --   -0.65686  -0.64891  -0.64010  -0.63282  -0.61828
 Alpha  occ. eigenvalues --   -0.61220  -0.61128  -0.60671  -0.59115  -0.58867
 Alpha  occ. eigenvalues --   -0.58743  -0.58439  -0.58101  -0.58083  -0.57193
 Alpha  occ. eigenvalues --   -0.57075  -0.55809  -0.55389  -0.54721  -0.54598
 Alpha  occ. eigenvalues --   -0.54201  -0.53497  -0.52979  -0.52333  -0.52132
 Alpha  occ. eigenvalues --   -0.51883  -0.51653  -0.51357  -0.51015  -0.50811
 Alpha  occ. eigenvalues --   -0.50532  -0.50121  -0.49904  -0.49719  -0.49239
 Alpha  occ. eigenvalues --   -0.49092  -0.48551  -0.48333  -0.48134  -0.47754
 Alpha  occ. eigenvalues --   -0.47502  -0.47363  -0.47311  -0.46979  -0.46774
 Alpha  occ. eigenvalues --   -0.46619  -0.46589  -0.46231  -0.45955  -0.45760
 Alpha  occ. eigenvalues --   -0.45609  -0.45550  -0.45425  -0.45131  -0.44868
 Alpha  occ. eigenvalues --   -0.44567  -0.44278  -0.44167  -0.44015  -0.43699
 Alpha  occ. eigenvalues --   -0.43337  -0.43093  -0.43029  -0.43007  -0.42732
 Alpha  occ. eigenvalues --   -0.42391  -0.42288  -0.42142  -0.42091  -0.41928
 Alpha  occ. eigenvalues --   -0.41767  -0.41346  -0.41251  -0.41116  -0.41005
 Alpha  occ. eigenvalues --   -0.40920  -0.40632  -0.40394  -0.40267  -0.40215
 Alpha  occ. eigenvalues --   -0.40092  -0.39929  -0.39525  -0.39212  -0.39136
 Alpha  occ. eigenvalues --   -0.38997  -0.38983  -0.38349  -0.38054  -0.37612
 Alpha  occ. eigenvalues --   -0.37465  -0.37269  -0.37183  -0.36724  -0.36645
 Alpha  occ. eigenvalues --   -0.36561  -0.36440  -0.36265  -0.35769  -0.35684
 Alpha  occ. eigenvalues --   -0.35332  -0.35235  -0.35061  -0.34714  -0.34563
 Alpha  occ. eigenvalues --   -0.34145  -0.33936  -0.33620  -0.33453  -0.33389
 Alpha  occ. eigenvalues --   -0.32684  -0.32382  -0.32100  -0.31625  -0.31334
 Alpha  occ. eigenvalues --   -0.31061  -0.31007  -0.30667  -0.30321  -0.30046
 Alpha  occ. eigenvalues --   -0.28885  -0.28432  -0.27924  -0.27616  -0.27472
 Alpha  occ. eigenvalues --   -0.27011  -0.26787  -0.23507  -0.20575
 Alpha virt. eigenvalues --   -0.08145  -0.05506  -0.01155  -0.00420   0.00438
 Alpha virt. eigenvalues --    0.03053   0.03123   0.03827   0.04365   0.05061
 Alpha virt. eigenvalues --    0.05590   0.05803   0.08255   0.08643   0.09220

 Mulliken charges:
               1
     1  Mg   0.814707
     2  C    0.105981
     3  C   -0.185729
     4  C   -0.211820
     5  C   -0.187667
     6  N   -0.615013
     7  C    0.237110
     8  C   -0.135824
     9  C   -0.146732
    10  C    0.360712
    11  C   -0.305712
    12  C   -0.168819
    13  C   -0.254003
    14  C    0.581744
    15  O   -0.433930
    16  O   -0.439918
    17  N   -0.742057
    18  C    0.337324
    19  C   -0.018260
    20  C   -0.009753
    21  C    0.305467
    22  C   -0.368465
    23  C    0.270557
    24  O   -0.418278
    25  N   -0.708682
    26  C    0.338641
    27  C   -0.027073
    28  C   -0.010839
    29  C    0.338009
    30  C    0.268682
    31  C   -0.225732
    32  C   -0.301773
    33  N   -0.679547
    34  C    0.240751
    35  C    0.050181
    36  C    0.016298
    37  C    0.293884
    38  C   -0.416810
    39  C    0.371083
    40  O   -0.472048
    41  C   -0.359494
    42  C    0.628397
    43  O   -0.469893
    44  O   -0.435252
    45  C   -0.084864
    46  C   -0.011889
    47  C   -0.140482
    48  C    0.148117
    49  C   -0.394362
    50  C   -0.229957
    51  C   -0.161165
    52  C   -0.197431
    53  C   -0.065557
    54  C   -0.316732
    55  C   -0.147809
    56  C   -0.172140
    57  C   -0.156350
    58  C   -0.045754
    59  C   -0.305233
    60  C   -0.169563
    61  C   -0.193394
    62  C   -0.152201
    63  C   -0.077249
    64  C   -0.309930
    65  C   -0.308623
    66  H    0.091023
    67  H    0.153401
    68  H    0.098129
    69  H    0.123288
    70  H    0.114588
    71  H    0.118861
    72  H    0.126119
    73  H    0.125582
    74  H    0.103685
    75  H    0.114290
    76  H    0.111863
    77  H    0.123183
    78  H    0.121480
    79  H    0.167652
    80  H    0.113325
    81  H    0.071643
    82  H    0.115639
    83  H    0.107972
    84  H    0.117347
    85  H    0.101471
    86  H    0.095164
    87  H    0.115891
    88  H    0.140173
    89  H    0.113633
    90  H    0.167982
    91  H    0.114063
    92  H    0.108841
    93  H    0.079620
    94  H    0.133052
    95  H    0.105288
    96  H    0.130262
    97  H    0.116747
    98  H    0.100829
    99  H    0.115045
   100  H    0.087122
   101  H    0.080904
   102  H    0.078598
   103  H    0.081907
   104  H    0.102246
   105  H    0.105935
   106  H    0.104431
   107  H    0.097411
   108  H    0.072481
   109  H    0.075972
   110  H    0.088815
   111  H    0.062320
   112  H    0.096671
   113  H    0.064573
   114  H    0.071037
   115  H    0.086778
   116  H    0.121482
   117  H    0.094323
   118  H    0.095106
   119  H    0.084136
   120  H    0.111796
   121  H    0.039442
   122  H    0.094647
   123  H    0.079865
   124  H    0.091069
   125  H    0.104225
   126  H    0.093206
   127  H    0.108274
   128  H    0.110477
   129  H    0.102719
   130  H    0.087359
   131  H    0.136477
   132  H    0.132436
   133  O   -0.402868
   134  H    0.083660
 Sum of Mulliken charges =  -0.00000

 Dipole moment (field-independent basis, Debye):
    X=              2.3223    Y=             -3.7524    Z=             -0.1603  Tot=              4.4159
 Quadrupole moment (field-independent basis, Debye-Ang):
   XX=           -377.1031   YY=           -427.3984   ZZ=           -395.3387
   XY=            -12.1260   XZ=             18.5388   YZ=            -38.6827

 Normal termination of Gaussian 16 at Tue Oct  8 19:39:44 2019.
