 Gaussian 16, Revision A.03,
 Gaussian 16:  ES64L-G16RevA.03 25-Dec-2016

 ----------------------------------------------------------------------
 # td=(NStates=1) iop(3/107=0140000000,3/108=0140000000) iop(3/107=0140
 000000,3/108=0140000000) CAM-B3LYP/6-31G(d,p)
 ----------------------------------------------------------------------

 --
 TD
 --
 Symbolic Z-matrix:
 Charge =  0 Multiplicity = 1

                         Standard orientation:
 ---------------------------------------------------------------------
 Center     Atomic      Atomic             Coordinates (Angstroms)
 Number     Number       Type             X           Y           Z
 ---------------------------------------------------------------------
      1         12           0       -5.700521    1.151059    0.231845
      2          6           0       -4.969580   -2.098230   -0.427811
      3          6           0       -3.501430    1.213421    2.734749
      4          6           0       -6.313735    4.455746    0.672588
      5          6           0       -8.087476    1.202370   -2.258330
      6          7           0       -4.386355   -0.247750    1.089116
      7          6           0       -4.237739   -1.524268    0.619098
      8          6           0       -3.214638   -2.265858    1.419546
      9          6           0       -2.894309   -1.303141    2.596310
     10          6           0       -3.679124    0.043942    2.127772
     11          6           0       -3.428001   -1.744457    4.004797
     12          6           0       -2.024904   -2.618668    0.642542
     13          6           0       -0.970781   -3.618767    1.371701
     14          6           0        0.286015   -3.896244    0.748815
     15          8           0        0.485970   -3.503407   -0.460978
     16          8           0        1.116134   -4.625684    1.425193
     17          7           0       -5.016055    2.592563    1.494945
     18          6           0       -4.100466    2.397994    2.550045
     19          6           0       -3.849518    3.691812    3.239589
     20          6           0       -4.642941    4.593646    2.616125
     21          6           0       -5.408394    3.908558    1.603934
     22          6           0       -2.856816    3.735828    4.359507
     23          6           0       -4.831366    6.018274    3.066830
     24          8           0       -4.046700    6.602103    3.835860
     25          7           0       -6.916738    2.626241   -0.718597
     26          6           0       -7.086449    3.926940   -0.349481
     27          6           0       -8.008454    4.568833   -1.259596
     28          6           0       -8.545052    3.558243   -2.029483
     29          6           0       -7.858034    2.401180   -1.710226
     30          6           0       -8.353775    5.947874   -1.251284
     31          6           0       -9.459479    3.806307   -3.263701
     32          6           0       -8.655462    4.106233   -4.568138
     33          7           0       -6.379548   -0.182875   -1.198289
     34          6           0       -7.449281   -0.027131   -2.135105
     35          6           0       -7.631162   -1.443040   -2.760596
     36          6           0       -6.662776   -2.217705   -2.133994
     37          6           0       -6.030129   -1.409620   -1.150308
     38          6           0       -8.509741   -1.720286   -3.951198
     39          6           0       -6.074907   -3.560998   -2.076894
     40          8           0       -6.426960   -4.612176   -2.732289
     41          6           0       -5.058065   -3.523386   -0.972072
     42          6           0       -5.347974   -4.603505    0.116039
     43          8           0       -5.889687   -4.453009    1.168621
     44          8           0       -4.930572   -5.834256   -0.373702
     45          6           0       -5.367728   -6.968624    0.417474
     46          6           0        2.439066   -4.910018    0.897642
     47          6           0        3.463718   -3.897984    1.216538
     48          6           0        4.059040   -3.138462    0.294446
     49          6           0        3.719999   -3.180072   -1.250697
     50          6           0        5.293071   -2.263312    0.716600
     51          6           0        6.557462   -2.595800    0.090667
     52          6           0        7.676580   -1.676381    0.627115
     53          6           0        8.999863   -1.942331   -0.029832
     54          6           0        9.525075   -3.374833    0.394811
     55          6           0       10.030862   -0.947431    0.487286
     56          6           0       11.425116   -0.796071   -0.239562
     57          6           0       12.320173    0.348023    0.085577
     58          6           0       13.591727    0.424967   -0.819120
     59          6           0       14.404168   -0.870897   -0.556042
     60          6           0       14.280460    1.716497   -0.372595
     61          6           0       15.476975    2.083183   -1.137925
     62          6           0       16.075733    3.438050   -0.682280
     63          6           0       17.455221    3.861864   -1.329304
     64          6           0       17.357962    4.055935   -2.779789
     65          6           0       18.014523    5.158882   -0.730228
     66          1           0       -2.858510    1.186721    3.536577
     67          1           0       -6.345429    5.549964    0.899833
     68          1           0       -8.818927    1.106015   -3.096529
     69          1           0       -3.815963   -3.208431    1.844554
     70          1           0       -1.776572   -1.036793    2.597565
     71          1           0       -2.683129   -2.602386    4.398479
     72          1           0       -3.492343   -0.907880    4.621734
     73          1           0       -4.543947   -2.099168    4.090438
     74          1           0       -2.320546   -3.050938   -0.261829
     75          1           0       -1.411420   -1.721030    0.166403
     76          1           0       -0.417066   -3.286710    2.208599
     77          1           0       -1.555474   -4.498881    1.710630
     78          1           0       -1.874877    3.229504    4.121054
     79          1           0       -2.856097    4.816269    4.733540
     80          1           0       -3.370272    3.059587    5.030696
     81          1           0       -5.561572    6.570655    2.444468
     82          1           0      -10.065431    2.807826   -3.540033
     83          1           0      -10.378963    4.614475   -3.135279
     84          1           0       -9.259117    3.995889   -5.643129
     85          1           0       -8.302489    5.202248   -4.581511
     86          1           0       -7.710283    3.362203   -4.496386
     87          1           0       -8.083728   -0.822440   -4.724073
     88          1           0       -8.490292   -2.745911   -4.229485
     89          1           0       -9.593559   -1.545775   -3.878708
     90          1           0       -4.054712   -3.920414   -1.353451
     91          1           0        2.769388   -5.986952    1.273972
     92          1           0        2.361733   -4.862087   -0.212378
     93          1           0        3.572790   -4.005122    2.326660
     94          1           0        2.810867   -3.735121   -1.727562
     95          1           0        3.521814   -2.240834   -1.528763
     96          1           0        4.496881   -3.725020   -1.674795
     97          1           0        5.103643   -1.193122    0.736419
     98          1           0        5.229324   -2.521967    1.748571
     99          1           0        6.733922   -3.729624    0.192391
    100          1           0        6.630887   -2.434336   -0.808495
    101          1           0        7.527067   -0.526131    0.322994
    102          1           0        7.633738   -1.770294    1.890409
    103          1           0        8.876517   -1.656993   -1.177848
    104          1           0        8.767549   -4.238882    0.144471
    105          1           0       10.518152   -3.790841   -0.354275
    106          1           0        9.784797   -3.497007    1.558747
    107          1           0        9.602395    0.110896    0.441518
    108          1           0       10.093008   -1.030750    1.467596
    109          1           0       11.907130   -1.651988   -0.129048
    110          1           0       11.285896   -0.691488   -1.415719
    111          1           0       11.801235    1.214665    0.014752
    112          1           0       12.578617    0.157398    1.116886
    113          1           0       13.292052    0.508743   -1.815821
    114          1           0       14.731162   -0.836530    0.548881
    115          1           0       13.866872   -1.733942   -0.813926
    116          1           0       15.336614   -0.826722   -1.108298
    117          1           0       13.551401    2.623897   -0.285403
    118          1           0       14.738436    1.644103    0.612816
    119          1           0       16.172713    1.346474   -0.892965
    120          1           0       15.331187    2.492788   -2.004448
    121          1           0       15.581874    4.352653   -0.811774
    122          1           0       16.189218    3.492572    0.535315
    123          1           0       18.254387    3.034169   -1.115826
    124          1           0       16.745574    4.879131   -3.199632
    125          1           0       18.518632    4.419628   -3.245193
    126          1           0       17.177586    3.159671   -3.323674
    127          1           0       18.272294    5.026942    0.303726
    128          1           0       18.970384    5.640528   -1.184148
    129          1           0       17.372872    5.994657   -0.885277
    130          1           0       -5.089707   -7.894383   -0.300604
    131          1           0       -6.368185   -7.138409    0.625216
    132          1           0       -4.658009   -7.017559    1.372336
    133          8           0       -7.743123    6.636559   -0.496595
    134          1           0       -9.236088    6.409095   -2.018490
 ---------------------------------------------------------------------

 SCF Done:  E(RCAM-B3LYP) =  -3043.40355867     A.U. after   16 cycles

 Excitation energies and oscillator strengths:

 Excited State   1:      Singlet-A      2.1314 eV  581.69 nm  f=0.1780  <S**2>=0.000
     243 -> 246       -0.27923
     244 -> 245        0.64051
 This state for optimization and/or second-order correction.
 Total Energy, E(TD-HF/TD-DFT) =  -3043.32522988
 Copying the excited state density for this state as the 1-particle RhoCI density.

 The electronic state is 1-A.
 Alpha  occ. eigenvalues --  -46.82033 -19.23276 -19.22765 -19.18618 -19.17967
 Alpha  occ. eigenvalues --  -19.16819 -19.16649 -19.14691 -14.38772 -14.36749
 Alpha  occ. eigenvalues --  -14.36591 -14.36541 -10.35940 -10.34417 -10.31700
 Alpha  occ. eigenvalues --  -10.31242 -10.30632 -10.28562 -10.27995 -10.27843
 Alpha  occ. eigenvalues --  -10.27034 -10.26896 -10.26853 -10.26355 -10.26338
 Alpha  occ. eigenvalues --  -10.26170 -10.26117 -10.26103 -10.25662 -10.25069
 Alpha  occ. eigenvalues --  -10.24985 -10.24910 -10.24840 -10.24528 -10.24459
 Alpha  occ. eigenvalues --  -10.24385 -10.24339 -10.24287 -10.24268 -10.24144
 Alpha  occ. eigenvalues --  -10.23675 -10.23623 -10.23609 -10.23503 -10.23501
 Alpha  occ. eigenvalues --  -10.23438 -10.22930 -10.22929 -10.22543 -10.22301
 Alpha  occ. eigenvalues --  -10.22229 -10.21813 -10.21308 -10.21228 -10.21223
 Alpha  occ. eigenvalues --  -10.21151 -10.21089 -10.20562 -10.20514 -10.20415
 Alpha  occ. eigenvalues --  -10.20016 -10.19985 -10.19869 -10.19862 -10.18886
 Alpha  occ. eigenvalues --  -10.18851  -3.10480  -1.85434  -1.84932  -1.84892
 Alpha  occ. eigenvalues --   -1.14418  -1.13427  -1.08628  -1.05842  -1.05755
 Alpha  occ. eigenvalues --   -1.03060  -1.01685  -1.00562  -1.00441  -0.99779
 Alpha  occ. eigenvalues --   -0.98520  -0.88775  -0.86890  -0.86281  -0.86145
 Alpha  occ. eigenvalues --   -0.85717  -0.84941  -0.84521  -0.83851  -0.83769
 Alpha  occ. eigenvalues --   -0.83555  -0.83114  -0.82339  -0.80833  -0.80413
 Alpha  occ. eigenvalues --   -0.79523  -0.78549  -0.77361  -0.76933  -0.76791
 Alpha  occ. eigenvalues --   -0.75791  -0.75659  -0.74687  -0.73189  -0.72608
 Alpha  occ. eigenvalues --   -0.71838  -0.70792  -0.70470  -0.69788  -0.69344
 Alpha  occ. eigenvalues --   -0.69219  -0.68798  -0.67456  -0.67022  -0.66185
 Alpha  occ. eigenvalues --   -0.65749  -0.64890  -0.64034  -0.63701  -0.62640
 Alpha  occ. eigenvalues --   -0.61885  -0.60927  -0.60533  -0.59760  -0.59233
 Alpha  occ. eigenvalues --   -0.58881  -0.58020  -0.57797  -0.57669  -0.57170
 Alpha  occ. eigenvalues --   -0.56738  -0.56471  -0.55596  -0.55227  -0.54699
 Alpha  occ. eigenvalues --   -0.53917  -0.53267  -0.52692  -0.52355  -0.52163
 Alpha  occ. eigenvalues --   -0.51900  -0.51720  -0.51283  -0.51201  -0.51009
 Alpha  occ. eigenvalues --   -0.50556  -0.50271  -0.49618  -0.49301  -0.49135
 Alpha  occ. eigenvalues --   -0.48822  -0.48665  -0.48143  -0.47999  -0.47978
 Alpha  occ. eigenvalues --   -0.47780  -0.47598  -0.47511  -0.47085  -0.46891
 Alpha  occ. eigenvalues --   -0.46761  -0.46624  -0.46400  -0.45779  -0.45623
 Alpha  occ. eigenvalues --   -0.45388  -0.45321  -0.45291  -0.44882  -0.44671
 Alpha  occ. eigenvalues --   -0.44301  -0.44268  -0.44150  -0.43919  -0.43764
 Alpha  occ. eigenvalues --   -0.43687  -0.43427  -0.43395  -0.43143  -0.42891
 Alpha  occ. eigenvalues --   -0.42685  -0.42427  -0.42256  -0.42162  -0.41900
 Alpha  occ. eigenvalues --   -0.41544  -0.41340  -0.41233  -0.40895  -0.40805
 Alpha  occ. eigenvalues --   -0.40540  -0.40452  -0.40380  -0.40181  -0.39967
 Alpha  occ. eigenvalues --   -0.39639  -0.39588  -0.39465  -0.39122  -0.38972
 Alpha  occ. eigenvalues --   -0.38964  -0.38482  -0.38451  -0.38108  -0.37799
 Alpha  occ. eigenvalues --   -0.37707  -0.37422  -0.37247  -0.36950  -0.36129
 Alpha  occ. eigenvalues --   -0.35930  -0.35898  -0.35840  -0.35455  -0.35331
 Alpha  occ. eigenvalues --   -0.35215  -0.35178  -0.34904  -0.34765  -0.34714
 Alpha  occ. eigenvalues --   -0.34282  -0.33950  -0.33901  -0.33590  -0.33510
 Alpha  occ. eigenvalues --   -0.33213  -0.32483  -0.32262  -0.32066  -0.31738
 Alpha  occ. eigenvalues --   -0.31691  -0.31480  -0.30767  -0.30034  -0.28929
 Alpha  occ. eigenvalues --   -0.28756  -0.28418  -0.28260  -0.27897  -0.27786
 Alpha  occ. eigenvalues --   -0.27767  -0.27593  -0.23192  -0.21724
 Alpha virt. eigenvalues --   -0.08216  -0.06580  -0.02154  -0.01024   0.00261
 Alpha virt. eigenvalues --    0.02953   0.03160   0.03440   0.04133   0.04304
 Alpha virt. eigenvalues --    0.04915   0.05837   0.07252   0.08370   0.09115

 Mulliken charges:
               1
     1  Mg   0.814634
     2  C    0.081025
     3  C   -0.185842
     4  C   -0.198729
     5  C   -0.183682
     6  N   -0.654669
     7  C    0.293560
     8  C   -0.153989
     9  C   -0.136109
    10  C    0.348122
    11  C   -0.310144
    12  C   -0.175496
    13  C   -0.248349
    14  C    0.590939
    15  O   -0.528615
    16  O   -0.442236
    17  N   -0.708480
    18  C    0.314843
    19  C    0.072609
    20  C   -0.049740
    21  C    0.318014
    22  C   -0.382832
    23  C    0.249826
    24  O   -0.418806
    25  N   -0.683801
    26  C    0.306240
    27  C    0.018031
    28  C    0.024519
    29  C    0.343297
    30  C    0.224118
    31  C   -0.237910
    32  C   -0.281924
    33  N   -0.703303
    34  C    0.219947
    35  C    0.004936
    36  C    0.054674
    37  C    0.323314
    38  C   -0.374508
    39  C    0.372637
    40  O   -0.496695
    41  C   -0.316454
    42  C    0.615428
    43  O   -0.443126
    44  O   -0.445527
    45  C   -0.082904
    46  C   -0.009909
    47  C   -0.111049
    48  C    0.079210
    49  C   -0.368559
    50  C   -0.230404
    51  C   -0.128485
    52  C   -0.162786
    53  C   -0.049572
    54  C   -0.287587
    55  C   -0.168113
    56  C   -0.180219
    57  C   -0.155779
    58  C   -0.055021
    59  C   -0.321056
    60  C   -0.175431
    61  C   -0.144887
    62  C   -0.198145
    63  C   -0.048204
    64  C   -0.292079
    65  C   -0.312681
    66  H    0.062189
    67  H    0.114479
    68  H    0.085388
    69  H    0.121132
    70  H    0.106869
    71  H    0.098247
    72  H    0.119980
    73  H    0.114907
    74  H    0.125192
    75  H    0.112853
    76  H    0.129257
    77  H    0.136066
    78  H    0.129620
    79  H    0.159197
    80  H    0.133248
    81  H    0.096318
    82  H    0.092743
    83  H    0.095981
    84  H    0.091961
    85  H    0.112384
    86  H    0.101072
    87  H    0.111524
    88  H    0.156705
    89  H    0.132691
    90  H    0.169057
    91  H    0.106280
    92  H    0.127666
    93  H    0.087258
    94  H    0.131473
    95  H    0.134487
    96  H    0.126768
    97  H    0.103627
    98  H    0.108627
    99  H    0.086205
   100  H    0.108105
   101  H    0.078808
   102  H    0.056376
   103  H    0.083328
   104  H    0.091611
   105  H    0.061922
   106  H    0.101850
   107  H    0.062142
   108  H    0.099274
   109  H    0.106033
   110  H    0.051395
   111  H    0.090612
   112  H    0.086587
   113  H    0.089539
   114  H    0.092954
   115  H    0.118691
   116  H    0.100553
   117  H    0.073406
   118  H    0.088790
   119  H    0.105565
   120  H    0.108093
   121  H    0.100824
   122  H    0.045818
   123  H    0.074054
   124  H    0.103477
   125  H    0.050363
   126  H    0.111584
   127  H    0.103689
   128  H    0.086955
   129  H    0.103675
   130  H    0.111727
   131  H    0.151211
   132  H    0.108077
   133  O   -0.394741
   134  H    0.040116
 Sum of Mulliken charges =  -0.00000

 Dipole moment (field-independent basis, Debye):
    X=              1.6917    Y=             -4.0822    Z=              0.4448  Tot=              4.4412
 Quadrupole moment (field-independent basis, Debye-Ang):
   XX=           -378.3451   YY=           -436.7159   ZZ=           -393.8343
   XY=              0.9105   XZ=             14.0970   YZ=            -34.9904

 Normal termination of Gaussian 16 at Wed Oct  9 10:41:33 2019.
