 Gaussian 16, Revision A.03,
 Gaussian 16:  ES64L-G16RevA.03 25-Dec-2016

 ----------------------------------------------------------------------
 # td=(NStates=10) iop(3/107=0140000000,3/108=0140000000) CAM-B3LYP/6-3
 1G(d,p)
 ----------------------------------------------------------------------

 --
 TD
 --
 Symbolic Z-matrix:
 Charge =  0 Multiplicity = 1

                         Standard orientation:
 ---------------------------------------------------------------------
 Center     Atomic      Atomic             Coordinates (Angstroms)
 Number     Number       Type             X           Y           Z
 ---------------------------------------------------------------------
      1         12           0       -7.259469    0.615091    0.168548
      2          6           0       -4.863564   -2.010301    0.581507
      3          6           0       -4.982334    2.743508    1.324076
      4          6           0       -9.448950    3.242236   -0.432253
      5          6           0       -9.572264   -1.734144   -0.826082
      6          7           0       -5.213464    0.458553    0.739628
      7          6           0       -4.402436   -0.748381    0.793259
      8          6           0       -2.974168   -0.449770    1.189882
      9          6           0       -3.094566    1.073596    1.660085
     10          6           0       -4.550388    1.506964    1.242401
     11          6           0       -2.971686    1.254786    3.171851
     12          6           0       -1.934270   -0.600407    0.196157
     13          6           0       -0.405389   -0.445152    0.610869
     14          6           0        0.550764   -0.595027   -0.541147
     15          8           0        0.209827   -0.875877   -1.640371
     16          8           0        1.703839   -0.311130   -0.200434
     17          7           0       -7.202548    2.537716    0.316091
     18          6           0       -6.161455    3.258752    0.818118
     19          6           0       -6.426445    4.702814    0.927422
     20          6           0       -7.734366    4.896173    0.391412
     21          6           0       -8.196030    3.514580    0.104790
     22          6           0       -5.560509    5.889845    1.389977
     23          6           0       -8.579961    6.118487    0.203472
     24          6           0       -8.227065    7.333972    0.024952
     25          7           0       -9.169855    0.668624   -0.428082
     26          6           0       -9.932341    1.839199   -0.650076
     27          6           0      -11.264147    1.507630   -1.132818
     28          6           0      -11.300622    0.121894   -1.197631
     29          6           0       -9.999812   -0.399707   -0.713665
     30          6           0      -12.280808    2.434003   -1.570234
     31          6           0      -12.405756   -0.769345   -1.743409
     32          6           0      -12.196912   -1.038639   -3.297451
     33          7           0       -7.222299   -1.396975   -0.070052
     34          6           0       -8.231215   -2.279470   -0.545554
     35          6           0       -7.899547   -3.507723   -0.504172
     36          6           0       -6.544811   -3.614289   -0.094603
     37          6           0       -6.224878   -2.208363    0.038704
     38          6           0       -8.678616   -4.797031   -0.934554
     39          6           0       -5.367135   -4.434359    0.132287
     40          8           0       -5.237839   -5.595978    0.124667
     41          6           0       -4.131028   -3.307283    0.435431
     42          6           0       -3.474230   -3.683383    1.832067
     43          8           0       -3.663457   -3.198139    2.906961
     44          8           0       -2.740454   -4.806870    1.585111
     45          6           0       -2.195820   -5.371235    2.783672
     46          6           0        2.830844   -0.572919   -1.146166
     47          6           0        4.096009   -0.446189   -0.401535
     48          6           0        5.240129    0.203448   -0.793965
     49          6           0        5.155162    1.225602   -1.967505
     50          6           0        6.552178    0.241695    0.006040
     51          6           0        7.679086   -0.143976   -0.807976
     52          6           0        9.026717   -0.171087   -0.008111
     53          6           0       10.234279   -0.644801   -0.867240
     54          6           0       10.097186   -2.187106   -1.152987
     55          6           0       11.507309   -0.241403   -0.150676
     56          6           0       12.876598   -0.448261   -0.825632
     57          6           0       13.990751    0.005574    0.002912
     58          6           0       15.370538   -0.083592   -0.590372
     59          6           0       15.714425   -1.409898   -1.069018
     60          6           0       16.452251    0.506420    0.343257
     61          6           0       17.877308    0.670249   -0.226972
     62          6           0       18.852236    1.341694    0.744732
     63          6           0       20.326062    1.289658    0.232100
     64          6           0       20.521489    2.019928   -1.058983
     65          6           0       21.233896    1.763495    1.338480
     66          1           0       -4.066786    3.076411    1.866501
     67          1           0      -10.236687    4.057994   -0.614535
     68          1           0      -10.392311   -2.524665   -1.009410
     69          1           0       -2.559666   -1.165115    1.929555
     70          1           0       -2.533180    1.598414    1.155686
     71          1           0       -1.978887    0.893451    3.685907
     72          1           0       -2.858437    2.348000    3.422948
     73          1           0       -3.928747    0.846392    3.648551
     74          1           0       -2.335637   -1.573387   -0.280930
     75          1           0       -2.167022   -0.085128   -0.711375
     76          1           0       -0.413011    0.533065    1.019451
     77          1           0        0.070943   -0.923762    1.425911
     78          1           0       -4.880609    6.284205    0.676510
     79          1           0       -6.308043    6.646996    1.676518
     80          1           0       -5.093041    5.608288    2.377557
     81          1           0       -9.569945    5.903832    0.264261
     82          1           0       -8.873504    8.236785   -0.012686
     83          1           0       -7.369076    7.569051   -0.168411
     84          1           0      -11.951451    3.278394   -2.253557
     85          1           0      -13.130458    1.871846   -2.082284
     86          1           0      -12.907206    3.126245   -0.835784
     87          1           0      -12.339490   -1.724302   -1.076962
     88          1           0      -13.435912   -0.414685   -1.701521
     89          1           0      -13.174492   -1.677472   -3.596170
     90          1           0      -12.098738   -0.186313   -3.833218
     91          1           0      -11.293906   -1.750491   -3.330899
     92          1           0       -8.870223   -4.865717   -2.174639
     93          1           0       -8.138341   -5.732352   -0.632243
     94          1           0       -9.608274   -4.729712   -0.511808
     95          1           0       -3.502232   -3.303644   -0.323667
     96          1           0       -1.532614   -4.650812    3.259445
     97          1           0       -2.890678   -6.073402    3.346027
     98          1           0       -1.339093   -6.157711    2.258533
     99          1           0        2.529711   -1.503782   -1.482369
    100          1           0        2.794995   -0.109697   -2.078724
    101          1           0        4.315113   -1.077344    0.447840
    102          1           0        4.069849    1.435982   -2.124822
    103          1           0        5.496110    2.144389   -1.630462
    104          1           0        5.829359    0.860278   -2.774344
    105          1           0        6.730573    1.473511    0.231459
    106          1           0        6.532990   -0.362007    1.088026
    107          1           0        7.436007   -1.232449   -1.189942
    108          1           0        7.690530    0.368716   -1.915520
    109          1           0        9.193331    0.668087    0.197158
    110          1           0        8.857354   -0.860337    0.794629
    111          1           0       10.415843   -0.247800   -1.925561
    112          1           0        9.167201   -2.415101   -1.809393
    113          1           0       10.809739   -2.379820   -1.913532
    114          1           0       10.051103   -2.717459   -0.271034
    115          1           0       11.388960    0.772030   -0.084346
    116          1           0       11.742820   -0.676010    0.933631
    117          1           0       13.027981   -1.452949   -1.003319
    118          1           0       12.877774    0.093684   -1.884935
    119          1           0       13.758359    1.087916    0.261719
    120          1           0       14.120237   -0.499645    0.986903
    121          1           0       15.426691    0.567826   -1.504493
    122          1           0       15.399552   -2.132468   -0.242293
    123          1           0       15.009336   -1.680714   -1.931363
    124          1           0       16.886612   -1.616994   -1.514229
    125          1           0       16.177954    1.487617    0.803540
    126          1           0       16.527036   -0.273744    1.128649
    127          1           0       18.321044   -0.277129   -0.484841
    128          1           0       17.660957    1.407710   -1.207202
    129          1           0       18.519784    2.403195    0.998492
    130          1           0       18.757552    0.607096    1.647217
    131          1           0       20.851550    0.235242   -0.067281
    132          1           0       20.177154    3.103970   -0.918788
    133          1           0       21.517096    1.938268   -1.315283
    134          1           0       20.108556    1.554913   -1.953339
    135          1           0       21.127073    1.225014    2.403440
    136          1           0       22.248309    1.805710    1.021711
    137          1           0       20.919846    2.803272    1.671848
 ---------------------------------------------------------------------

 SCF Done:  E(RCAM-B3LYP) =  -2933.41181598     A.U. after   15 cycles

 Excitation energies and oscillator strengths:

 Excited State   1:      Singlet-A      2.1855 eV  567.29 nm  f=0.2178  <S**2>=0.000
     240 -> 242        0.28094
     240 -> 243       -0.20856
     241 -> 242        0.59863
     241 -> 243        0.11195
 This state for optimization and/or second-order correction.
 Total Energy, E(TD-HF/TD-DFT) =  -2933.33149888
 Copying the excited state density for this state as the 1-particle RhoCI density.

 Excited State   2:      Singlet-A      2.3213 eV  534.12 nm  f=0.1143  <S**2>=0.000
     240 -> 242        0.57163
     240 -> 243        0.11577
     241 -> 242       -0.28211
     241 -> 243        0.26676

 Excited State   3:      Singlet-A      3.1521 eV  393.33 nm  f=0.0106  <S**2>=0.000
     238 -> 242        0.11032
     239 -> 242        0.67141
     239 -> 243        0.10254

 Excited State   4:      Singlet-A      3.2240 eV  384.57 nm  f=0.1849  <S**2>=0.000
     237 -> 242        0.45508
     238 -> 242        0.19350
     240 -> 242        0.19424
     241 -> 243       -0.43260

 Excited State   5:      Singlet-A      3.2592 eV  380.42 nm  f=0.2241  <S**2>=0.000
     236 -> 242        0.13965
     237 -> 242        0.16162
     238 -> 242        0.50709
     239 -> 242       -0.12092
     240 -> 242       -0.14971
     241 -> 243        0.35827

 Excited State   6:      Singlet-A      3.3041 eV  375.25 nm  f=0.1195  <S**2>=0.000
     236 -> 242        0.20672
     237 -> 242        0.44695
     238 -> 242       -0.35887
     238 -> 243       -0.10192
     240 -> 242       -0.10072
     240 -> 243       -0.16666
     241 -> 243        0.22602

 Excited State   7:      Singlet-A      3.4201 eV  362.51 nm  f=0.8375  <S**2>=0.000
     236 -> 242       -0.26876
     237 -> 242        0.13728
     238 -> 242       -0.12877
     240 -> 242       -0.11781
     240 -> 243        0.52280
     241 -> 242        0.20914
     241 -> 243        0.17752

 Excited State   8:      Singlet-A      3.4748 eV  356.81 nm  f=0.2040  <S**2>=0.000
     236 -> 242        0.56755
     237 -> 242       -0.12678
     240 -> 243        0.33421
     241 -> 242        0.10883

 Excited State   9:      Singlet-A      3.9489 eV  313.97 nm  f=0.0553  <S**2>=0.000
     236 -> 243       -0.16070
     238 -> 243        0.23568
     239 -> 242       -0.11182
     239 -> 243        0.61345

 Excited State  10:      Singlet-A      4.0713 eV  304.53 nm  f=0.0651  <S**2>=0.000
     228 -> 242       -0.15597
     230 -> 242       -0.12903
     231 -> 242       -0.39414
     234 -> 242        0.49207
     235 -> 242       -0.10471

 The electronic state is 1-A.
 Alpha  occ. eigenvalues --  -46.78467 -19.21989 -19.21048 -19.16479 -19.15525
 Alpha  occ. eigenvalues --  -19.14182 -14.36364 -14.36187 -14.35707 -14.34400
 Alpha  occ. eigenvalues --  -10.33596 -10.32416 -10.29623 -10.27629 -10.27304
 Alpha  occ. eigenvalues --  -10.26816 -10.26357 -10.26263 -10.25067 -10.25049
 Alpha  occ. eigenvalues --  -10.24945 -10.24914 -10.24872 -10.24489 -10.24122
 Alpha  occ. eigenvalues --  -10.23954 -10.23906 -10.23222 -10.23182 -10.23177
 Alpha  occ. eigenvalues --  -10.23174 -10.23061 -10.22876 -10.22577 -10.22503
 Alpha  occ. eigenvalues --  -10.22449 -10.22432 -10.22350 -10.22208 -10.22205
 Alpha  occ. eigenvalues --  -10.22201 -10.22116 -10.22062 -10.22044 -10.22010
 Alpha  occ. eigenvalues --  -10.21986 -10.21825 -10.21637 -10.21536 -10.21439
 Alpha  occ. eigenvalues --  -10.21329 -10.21148 -10.20938 -10.20880 -10.20859
 Alpha  occ. eigenvalues --  -10.20844 -10.20721 -10.20720 -10.20670 -10.20395
 Alpha  occ. eigenvalues --  -10.20202 -10.19866 -10.19731 -10.19624 -10.19464
 Alpha  occ. eigenvalues --   -3.07419  -1.82332  -1.81910  -1.81846  -1.16364
 Alpha  occ. eigenvalues --   -1.12272  -1.07824  -1.04389  -1.04386  -0.99517
 Alpha  occ. eigenvalues --   -0.98541  -0.96635  -0.96079  -0.86937  -0.86349
 Alpha  occ. eigenvalues --   -0.86204  -0.84934  -0.84927  -0.84365  -0.83917
 Alpha  occ. eigenvalues --   -0.83354  -0.83064  -0.82281  -0.82079  -0.81857
 Alpha  occ. eigenvalues --   -0.80180  -0.79994  -0.79104  -0.78226  -0.77548
 Alpha  occ. eigenvalues --   -0.77181  -0.76139  -0.75338  -0.74964  -0.73482
 Alpha  occ. eigenvalues --   -0.72918  -0.72395  -0.71926  -0.71302  -0.70960
 Alpha  occ. eigenvalues --   -0.70577  -0.70005  -0.69761  -0.69588  -0.68716
 Alpha  occ. eigenvalues --   -0.66561  -0.65969  -0.65047  -0.64668  -0.64274
 Alpha  occ. eigenvalues --   -0.63003  -0.61572  -0.61092  -0.60774  -0.59989
 Alpha  occ. eigenvalues --   -0.59691  -0.58699  -0.58364  -0.57681  -0.57364
 Alpha  occ. eigenvalues --   -0.56984  -0.56532  -0.56044  -0.55922  -0.55027
 Alpha  occ. eigenvalues --   -0.54471  -0.54197  -0.53708  -0.53224  -0.52864
 Alpha  occ. eigenvalues --   -0.52576  -0.52210  -0.51429  -0.51242  -0.50720
 Alpha  occ. eigenvalues --   -0.50338  -0.50159  -0.49993  -0.49774  -0.49675
 Alpha  occ. eigenvalues --   -0.49202  -0.49048  -0.48902  -0.48423  -0.48294
 Alpha  occ. eigenvalues --   -0.47951  -0.47656  -0.47473  -0.47178  -0.47044
 Alpha  occ. eigenvalues --   -0.46811  -0.46312  -0.46264  -0.46089  -0.45793
 Alpha  occ. eigenvalues --   -0.45560  -0.45340  -0.45128  -0.44848  -0.44676
 Alpha  occ. eigenvalues --   -0.44338  -0.44294  -0.43977  -0.43848  -0.43490
 Alpha  occ. eigenvalues --   -0.43434  -0.43260  -0.43112  -0.42769  -0.42510
 Alpha  occ. eigenvalues --   -0.42477  -0.42283  -0.41981  -0.41593  -0.41441
 Alpha  occ. eigenvalues --   -0.41226  -0.41030  -0.40953  -0.40815  -0.40690
 Alpha  occ. eigenvalues --   -0.40584  -0.40249  -0.40196  -0.39925  -0.39804
 Alpha  occ. eigenvalues --   -0.39748  -0.39552  -0.39476  -0.38906  -0.38801
 Alpha  occ. eigenvalues --   -0.38652  -0.38391  -0.38152  -0.37982  -0.37842
 Alpha  occ. eigenvalues --   -0.37622  -0.37575  -0.37092  -0.37015  -0.36770
 Alpha  occ. eigenvalues --   -0.36661  -0.36440  -0.36235  -0.36204  -0.35638
 Alpha  occ. eigenvalues --   -0.35460  -0.35366  -0.35335  -0.35309  -0.34448
 Alpha  occ. eigenvalues --   -0.34291  -0.33989  -0.33334  -0.33289  -0.33274
 Alpha  occ. eigenvalues --   -0.33141  -0.32941  -0.32910  -0.32739  -0.32288
 Alpha  occ. eigenvalues --   -0.32153  -0.31815  -0.31379  -0.31312  -0.30150
 Alpha  occ. eigenvalues --   -0.29954  -0.29451  -0.29335  -0.28497  -0.27437
 Alpha  occ. eigenvalues --   -0.26601  -0.26132  -0.25746  -0.25437  -0.21478
 Alpha  occ. eigenvalues --   -0.20757
 Alpha virt. eigenvalues --   -0.07229  -0.03763   0.01365   0.02314   0.03017
 Alpha virt. eigenvalues --    0.04746   0.05346   0.05860   0.05958   0.07047
 Alpha virt. eigenvalues --    0.07507   0.08804   0.09623   0.09750   0.09929

 Mulliken charges:
               1
     1  Mg   0.814876
     2  C    0.077966
     3  C   -0.114153
     4  C   -0.194223
     5  C   -0.175760
     6  N   -0.640816
     7  C    0.265583
     8  C   -0.142775
     9  C   -0.108926
    10  C    0.288398
    11  C   -0.310334
    12  C   -0.175700
    13  C   -0.281246
    14  C    0.592236
    15  O   -0.489643
    16  O   -0.423473
    17  N   -0.709061
    18  C    0.306896
    19  C    0.002414
    20  C    0.019437
    21  C    0.304423
    22  C   -0.374781
    23  C   -0.044889
    24  C   -0.217313
    25  N   -0.692779
    26  C    0.262973
    27  C    0.085946
    28  C    0.027421
    29  C    0.298156
    30  C   -0.410680
    31  C   -0.258070
    32  C   -0.294210
    33  N   -0.666995
    34  C    0.259872
    35  C    0.014566
    36  C    0.015204
    37  C    0.248332
    38  C   -0.352300
    39  C    0.340966
    40  O   -0.424572
    41  C   -0.326566
    42  C    0.613933
    43  O   -0.452600
    44  O   -0.435498
    45  C   -0.082751
    46  C   -0.006020
    47  C   -0.123376
    48  C    0.106016
    49  C   -0.363449
    50  C   -0.189963
    51  C   -0.179438
    52  C   -0.110694
    53  C   -0.085979
    54  C   -0.311237
    55  C   -0.159243
    56  C   -0.177558
    57  C   -0.162921
    58  C   -0.043310
    59  C   -0.297648
    60  C   -0.164926
    61  C   -0.161538
    62  C   -0.158120
    63  C   -0.046902
    64  C   -0.293592
    65  C   -0.293034
    66  H    0.067349
    67  H    0.096227
    68  H    0.092894
    69  H    0.117629
    70  H    0.096496
    71  H    0.096963
    72  H    0.096735
    73  H    0.128449
    74  H    0.086129
    75  H    0.112696
    76  H    0.135726
    77  H    0.127352
    78  H    0.137317
    79  H    0.123946
    80  H    0.114763
    81  H    0.084969
    82  H    0.100816
    83  H    0.089868
    84  H    0.119093
    85  H    0.108880
    86  H    0.104181
    87  H    0.096580
    88  H    0.109938
    89  H    0.083528
    90  H    0.131389
    91  H    0.108633
    92  H    0.089418
    93  H    0.140995
    94  H    0.122954
    95  H    0.154065
    96  H    0.134494
    97  H    0.138408
    98  H    0.077992
    99  H    0.137869
   100  H    0.136939
   101  H    0.082531
   102  H    0.116238
   103  H    0.127043
   104  H    0.122144
   105  H    0.069318
   106  H    0.081439
   107  H    0.083586
   108  H    0.075146
   109  H    0.087887
   110  H    0.100850
   111  H    0.074958
   112  H    0.084746
   113  H    0.106799
   114  H    0.110807
   115  H    0.101609
   116  H    0.066893
   117  H    0.106920
   118  H    0.066375
   119  H    0.080661
   120  H    0.083948
   121  H    0.071504
   122  H    0.086929
   123  H    0.100404
   124  H    0.080567
   125  H    0.082405
   126  H    0.075194
   127  H    0.099022
   128  H    0.055746
   129  H    0.089436
   130  H    0.082366
   131  H    0.059520
   132  H    0.085990
   133  H    0.103288
   134  H    0.108717
   135  H    0.084672
   136  H    0.100829
   137  H    0.085276
 Sum of Mulliken charges =  -0.00000

 Dipole moment (field-independent basis, Debye):
    X=              2.2555    Y=              6.2822    Z=             -0.0543  Tot=              6.6751
 Quadrupole moment (field-independent basis, Debye-Ang):
   XX=           -325.7256   YY=           -390.4958   ZZ=           -399.7948
   XY=            -35.5654   XZ=              8.5627   YZ=             -2.4975

 Normal termination of Gaussian 16 at Wed Oct 23 05:38:09 2019.
