 Gaussian 16, Revision A.03,
 Gaussian 16:  ES64L-G16RevA.03 25-Dec-2016

 ----------------------------------------------------------------------
 # td=(NStates=10) iop(3/107=0140000000,3/108=0140000000) CAM-B3LYP/6-3
 1G(d,p)
 ----------------------------------------------------------------------

 --
 TD
 --
 Symbolic Z-matrix:
 Charge =  0 Multiplicity = 1

                         Standard orientation:
 ---------------------------------------------------------------------
 Center     Atomic      Atomic             Coordinates (Angstroms)
 Number     Number       Type             X           Y           Z
 ---------------------------------------------------------------------
      1         12           0       -7.229150    0.616851    0.067433
      2          6           0       -4.902651   -2.035240    0.569868
      3          6           0       -4.838490    2.826816    1.010231
      4          6           0       -9.522941    3.045689   -0.268163
      5          6           0       -9.482173   -1.794313   -0.813135
      6          7           0       -5.140381    0.523881    0.667108
      7          6           0       -4.374638   -0.764942    0.738981
      8          6           0       -2.985828   -0.377268    1.192326
      9          6           0       -3.047924    1.103036    1.626491
     10          6           0       -4.434914    1.566678    1.091778
     11          6           0       -3.025746    1.307021    3.163414
     12          6           0       -1.894634   -0.663072    0.127699
     13          6           0       -0.381486   -0.371601    0.672528
     14          6           0        0.581527   -0.620215   -0.499328
     15          8           0        0.293030   -0.814634   -1.666437
     16          8           0        1.888439   -0.390813   -0.111860
     17          7           0       -7.240733    2.510800    0.309443
     18          6           0       -6.210268    3.357859    0.786837
     19          6           0       -6.588259    4.737145    0.890851
     20          6           0       -7.872406    4.745354    0.430495
     21          6           0       -8.204099    3.413170    0.074381
     22          6           0       -5.640101    5.868563    1.374477
     23          6           0       -8.794582    6.001866    0.269032
     24          6           0       -8.385162    7.196542    0.101460
     25          7           0       -9.142686    0.649187   -0.535741
     26          6           0       -9.972347    1.756441   -0.585411
     27          6           0      -11.277242    1.371063   -1.089067
     28          6           0      -11.393562    0.032496   -1.243529
     29          6           0       -9.923232   -0.447700   -0.863121
     30          6           0      -12.370409    2.326211   -1.282569
     31          6           0      -12.427772   -0.798505   -1.806049
     32          6           0      -12.347034   -1.069441   -3.315918
     33          7           0       -7.235473   -1.383476   -0.130348
     34          6           0       -8.274110   -2.296701   -0.515452
     35          6           0       -7.781547   -3.656791   -0.457010
     36          6           0       -6.488038   -3.632031   -0.049904
     37          6           0       -6.176459   -2.222513    0.148276
     38          6           0       -8.564392   -4.829579   -0.889292
     39          6           0       -5.307154   -4.386655    0.217268
     40          8           0       -5.139261   -5.630754    0.197638
     41          6           0       -4.136210   -3.333469    0.536108
     42          6           0       -3.476960   -3.643952    1.819314
     43          8           0       -3.702092   -3.098631    2.899071
     44          8           0       -2.675724   -4.576213    1.725070
     45          6           0       -2.094133   -5.148780    2.854386
     46          6           0        2.838745   -0.588853   -1.151246
     47          6           0        4.144433   -0.378509   -0.628248
     48          6           0        5.138447    0.405751   -0.976999
     49          6           0        5.002969    1.166931   -2.286966
     50          6           0        6.476590    0.509698   -0.146701
     51          6           0        7.656094   -0.226092   -0.860402
     52          6           0        8.982817   -0.008904   -0.175484
     53          6           0       10.203261   -0.489638   -0.937526
     54          6           0       10.229189   -1.856715   -1.359629
     55          6           0       11.493932   -0.204982   -0.021197
     56          6           0       12.877871   -0.641126   -0.690420
     57          6           0       14.028357   -0.187203    0.180397
     58          6           0       15.432853   -0.216349   -0.486129
     59          6           0       15.736926   -1.681043   -0.908683
     60          6           0       16.499635    0.308064    0.480305
     61          6           0       17.831368    0.433272   -0.212741
     62          6           0       18.847756    1.296830    0.659778
     63          6           0       20.394290    1.292670    0.219238
     64          6           0       20.428282    2.144927   -1.096312
     65          6           0       21.173402    2.011161    1.388371
     66          1           0       -3.951209    3.499061    1.464203
     67          1           0      -10.226764    3.830549   -0.187149
     68          1           0      -10.246723   -2.619035   -0.983701
     69          1           0       -2.685255   -1.052841    1.958228
     70          1           0       -2.341619    1.776465    1.225202
     71          1           0       -2.098767    0.917037    3.642318
     72          1           0       -3.103605    2.321202    3.437415
     73          1           0       -3.772702    0.727839    3.700796
     74          1           0       -1.802958   -1.713559   -0.342227
     75          1           0       -2.024621   -0.106079   -0.747878
     76          1           0       -0.168088    0.619034    0.847897
     77          1           0       -0.271064   -1.110273    1.483354
     78          1           0       -5.176891    6.232009    0.631449
     79          1           0       -6.273367    6.547026    1.959821
     80          1           0       -4.992914    5.547146    2.176319
     81          1           0       -9.895101    5.806256    0.291143
     82          1           0       -9.180915    7.914569   -0.158126
     83          1           0       -7.280084    7.440450   -0.013463
     84          1           0      -11.941040    3.190536   -2.003032
     85          1           0      -13.323322    1.688319   -1.672373
     86          1           0      -12.679912    2.853397   -0.384235
     87          1           0      -12.447388   -1.600369   -1.182836
     88          1           0      -13.386805   -0.456528   -1.539941
     89          1           0      -13.134986   -1.841296   -3.748940
     90          1           0      -12.515487   -0.144693   -3.855121
     91          1           0      -11.278542   -1.588723   -3.420196
     92          1           0       -8.701624   -4.591714   -2.104541
     93          1           0       -7.909047   -5.633504   -0.664968
     94          1           0       -9.465653   -4.710116   -0.240516
     95          1           0       -3.320243   -3.365573   -0.271958
     96          1           0       -1.370559   -4.333425    3.283023
     97          1           0       -2.792301   -5.216532    3.673196
     98          1           0       -1.471296   -5.897703    2.763044
     99          1           0        2.702258   -1.743839   -1.363792
    100          1           0        2.638956    0.029803   -2.152339
    101          1           0        4.225076   -0.676998    0.358156
    102          1           0        3.907490    1.208012   -2.658328
    103          1           0        5.216248    2.248263   -2.130439
    104          1           0        5.732366    0.725504   -3.029765
    105          1           0        6.838701    1.623616   -0.068416
    106          1           0        6.449384    0.315699    0.981105
    107          1           0        7.387833   -1.369976   -0.729023
    108          1           0        7.411044    0.232041   -1.946195
    109          1           0        9.148368    1.059076   -0.197552
    110          1           0        8.837393   -0.404501    0.933273
    111          1           0       10.369881    0.119383   -1.851653
    112          1           0        9.481717   -1.906090   -2.274908
    113          1           0       11.402466   -2.247004   -1.427828
    114          1           0       10.024514   -2.374515   -0.484673
    115          1           0       11.755762    0.856753    0.311128
    116          1           0       11.138484   -0.864137    0.908832
    117          1           0       12.967376   -1.873042   -0.734203
    118          1           0       13.035787   -0.157864   -1.801241
    119          1           0       13.760757    0.672717    0.572698
    120          1           0       14.013139   -0.726183    1.052251
    121          1           0       15.376515    0.502608   -1.390338
    122          1           0       15.841214   -2.280955    0.260811
    123          1           0       14.910577   -2.045720   -1.608974
    124          1           0       16.696102   -1.684997   -1.494164
    125          1           0       16.284250    1.240945    0.937999
    126          1           0       16.390054   -0.324004    1.310257
    127          1           0       18.459842   -0.473560   -0.261983
    128          1           0       17.899819    0.799555   -1.219125
    129          1           0       18.591718    2.386695    0.723927
    130          1           0       18.637407    0.881133    1.747184
    131          1           0       20.427275    0.295563    0.049583
    132          1           0       20.209685    3.060592   -0.871564
    133          1           0       21.504929    2.172002   -1.462281
    134          1           0       19.751572    1.732383   -1.915200
    135          1           0       21.158289    1.495092    2.296585
    136          1           0       22.179986    2.112654    0.938619
    137          1           0       20.805164    3.119317    1.299137
 ---------------------------------------------------------------------

 SCF Done:  E(RCAM-B3LYP) =  -2933.48649950     A.U. after   16 cycles

 Excitation energies and oscillator strengths:

 Excited State   1:      Singlet-A      1.9804 eV  626.07 nm  f=0.2602  <S**2>=0.000
     240 -> 243       -0.22310
     241 -> 242        0.66689
 This state for optimization and/or second-order correction.
 Total Energy, E(TD-HF/TD-DFT) =  -2933.41372256
 Copying the excited state density for this state as the 1-particle RhoCI density.

 Excited State   2:      Singlet-A      2.2950 eV  540.23 nm  f=0.0190  <S**2>=0.000
     240 -> 242        0.58555
     241 -> 243        0.37810

 Excited State   3:      Singlet-A      3.1663 eV  391.58 nm  f=0.6931  <S**2>=0.000
     236 -> 242        0.12155
     237 -> 242        0.10396
     240 -> 242       -0.34904
     240 -> 244        0.15770
     241 -> 243        0.56294

 Excited State   4:      Singlet-A      3.2866 eV  377.24 nm  f=0.0016  <S**2>=0.000
     235 -> 242        0.56301
     235 -> 243        0.10877
     235 -> 244       -0.29619
     237 -> 242        0.21933
     237 -> 244       -0.11129

 Excited State   5:      Singlet-A      3.3515 eV  369.94 nm  f=0.0385  <S**2>=0.000
     238 -> 242        0.33092
     239 -> 242        0.58123
     240 -> 243       -0.11786

 Excited State   6:      Singlet-A      3.4402 eV  360.40 nm  f=0.3672  <S**2>=0.000
     238 -> 242       -0.15136
     239 -> 242        0.22383
     240 -> 243        0.50570
     241 -> 242        0.18200
     241 -> 244       -0.34357

 Excited State   7:      Singlet-A      3.5186 eV  352.37 nm  f=0.0816  <S**2>=0.000
     235 -> 242        0.11241
     236 -> 242       -0.20113
     237 -> 242       -0.16386
     238 -> 242        0.47099
     239 -> 242       -0.27915
     240 -> 243        0.10738
     241 -> 244       -0.27946

 Excited State   8:      Singlet-A      3.6162 eV  342.86 nm  f=0.4090  <S**2>=0.000
     236 -> 242       -0.22852
     237 -> 242       -0.20419
     240 -> 242       -0.12734
     240 -> 243        0.34661
     241 -> 242        0.11169
     241 -> 244        0.48965

 Excited State   9:      Singlet-A      3.6544 eV  339.27 nm  f=0.0673  <S**2>=0.000
     235 -> 242       -0.12458
     236 -> 242        0.37573
     237 -> 242        0.32893
     238 -> 242        0.33716
     239 -> 242       -0.11849
     240 -> 243        0.18447
     241 -> 244        0.21427

 Excited State  10:      Singlet-A      3.9640 eV  312.78 nm  f=0.3123  <S**2>=0.000
     240 -> 244        0.66122
     241 -> 243       -0.14467

 The electronic state is 1-A.
 Alpha  occ. eigenvalues --  -46.78237 -19.23427 -19.21806 -19.17175 -19.16240
 Alpha  occ. eigenvalues --  -19.14599 -14.36596 -14.35688 -14.35277 -14.35125
 Alpha  occ. eigenvalues --  -10.34745 -10.33482 -10.30994 -10.27891 -10.26819
 Alpha  occ. eigenvalues --  -10.26599 -10.25894 -10.25773 -10.24577 -10.24506
 Alpha  occ. eigenvalues --  -10.24424 -10.24401 -10.24394 -10.24216 -10.23821
 Alpha  occ. eigenvalues --  -10.23574 -10.23375 -10.23254 -10.23075 -10.23050
 Alpha  occ. eigenvalues --  -10.23012 -10.22939 -10.22907 -10.22880 -10.22867
 Alpha  occ. eigenvalues --  -10.22806 -10.22805 -10.22751 -10.22596 -10.22541
 Alpha  occ. eigenvalues --  -10.22490 -10.22366 -10.22272 -10.22204 -10.22204
 Alpha  occ. eigenvalues --  -10.22171 -10.21936 -10.21855 -10.21753 -10.21440
 Alpha  occ. eigenvalues --  -10.21427 -10.21301 -10.21194 -10.21148 -10.21108
 Alpha  occ. eigenvalues --  -10.20926 -10.20795 -10.20660 -10.20540 -10.20536
 Alpha  occ. eigenvalues --  -10.20241 -10.20017 -10.19785 -10.19534 -10.18287
 Alpha  occ. eigenvalues --   -3.07214  -1.82121  -1.81697  -1.81654  -1.18353
 Alpha  occ. eigenvalues --   -1.12731  -1.04349  -1.04097  -1.03046  -0.98784
 Alpha  occ. eigenvalues --   -0.97651  -0.96589  -0.95751  -0.88207  -0.86110
 Alpha  occ. eigenvalues --   -0.85386  -0.84686  -0.84637  -0.84077  -0.83805
 Alpha  occ. eigenvalues --   -0.83635  -0.82971  -0.82743  -0.81563  -0.81280
 Alpha  occ. eigenvalues --   -0.80656  -0.79926  -0.79628  -0.78622  -0.78593
 Alpha  occ. eigenvalues --   -0.77969  -0.76062  -0.75686  -0.74651  -0.74407
 Alpha  occ. eigenvalues --   -0.73565  -0.72867  -0.71536  -0.71078  -0.70956
 Alpha  occ. eigenvalues --   -0.70234  -0.69466  -0.69229  -0.68628  -0.67985
 Alpha  occ. eigenvalues --   -0.67137  -0.66338  -0.65780  -0.64339  -0.63876
 Alpha  occ. eigenvalues --   -0.62126  -0.61983  -0.61354  -0.60966  -0.60456
 Alpha  occ. eigenvalues --   -0.59399  -0.59222  -0.58430  -0.58217  -0.57640
 Alpha  occ. eigenvalues --   -0.57346  -0.56760  -0.55956  -0.55665  -0.55009
 Alpha  occ. eigenvalues --   -0.54494  -0.53990  -0.53739  -0.53686  -0.53040
 Alpha  occ. eigenvalues --   -0.52677  -0.51935  -0.51472  -0.51187  -0.50948
 Alpha  occ. eigenvalues --   -0.50740  -0.50269  -0.50162  -0.49776  -0.49508
 Alpha  occ. eigenvalues --   -0.49262  -0.49139  -0.48549  -0.48464  -0.47854
 Alpha  occ. eigenvalues --   -0.47754  -0.47387  -0.47350  -0.47129  -0.47022
 Alpha  occ. eigenvalues --   -0.46467  -0.46376  -0.46180  -0.46033  -0.45822
 Alpha  occ. eigenvalues --   -0.45576  -0.45488  -0.45267  -0.45003  -0.44578
 Alpha  occ. eigenvalues --   -0.44501  -0.44216  -0.44114  -0.43811  -0.43630
 Alpha  occ. eigenvalues --   -0.43337  -0.43217  -0.42861  -0.42621  -0.42360
 Alpha  occ. eigenvalues --   -0.42077  -0.41806  -0.41724  -0.41624  -0.41414
 Alpha  occ. eigenvalues --   -0.41106  -0.41050  -0.40724  -0.40521  -0.40462
 Alpha  occ. eigenvalues --   -0.40219  -0.40049  -0.39869  -0.39677  -0.39573
 Alpha  occ. eigenvalues --   -0.39435  -0.39162  -0.38979  -0.38794  -0.38526
 Alpha  occ. eigenvalues --   -0.38361  -0.38259  -0.38174  -0.38055  -0.37870
 Alpha  occ. eigenvalues --   -0.37658  -0.37564  -0.37265  -0.37111  -0.37039
 Alpha  occ. eigenvalues --   -0.36906  -0.36711  -0.36481  -0.36188  -0.35815
 Alpha  occ. eigenvalues --   -0.35547  -0.35433  -0.35162  -0.34944  -0.34743
 Alpha  occ. eigenvalues --   -0.34521  -0.34025  -0.33813  -0.33774  -0.33630
 Alpha  occ. eigenvalues --   -0.33379  -0.33090  -0.32971  -0.32650  -0.32498
 Alpha  occ. eigenvalues --   -0.32311  -0.32081  -0.30892  -0.30529  -0.30106
 Alpha  occ. eigenvalues --   -0.29988  -0.29512  -0.29161  -0.28620  -0.27104
 Alpha  occ. eigenvalues --   -0.27103  -0.27067  -0.26497  -0.25996  -0.21666
 Alpha  occ. eigenvalues --   -0.19621
 Alpha virt. eigenvalues --   -0.07040  -0.03464  -0.00740   0.03579   0.03641
 Alpha virt. eigenvalues --    0.04651   0.04714   0.05396   0.05831   0.06310
 Alpha virt. eigenvalues --    0.06609   0.08378   0.09127   0.09192   0.09591

 Mulliken charges:
               1
     1  Mg   0.815787
     2  C    0.126861
     3  C   -0.192772
     4  C   -0.178408
     5  C   -0.227138
     6  N   -0.631526
     7  C    0.257642
     8  C   -0.149303
     9  C   -0.137763
    10  C    0.368694
    11  C   -0.318962
    12  C   -0.200269
    13  C   -0.258686
    14  C    0.586724
    15  O   -0.458179
    16  O   -0.476604
    17  N   -0.702554
    18  C    0.239475
    19  C    0.009041
    20  C   -0.008625
    21  C    0.318961
    22  C   -0.359170
    23  C   -0.040339
    24  C   -0.243131
    25  N   -0.687121
    26  C    0.320212
    27  C    0.051271
    28  C    0.037617
    29  C    0.266040
    30  C   -0.377049
    31  C   -0.248994
    32  C   -0.290403
    33  N   -0.728247
    34  C    0.328870
    35  C   -0.029334
    36  C    0.111706
    37  C    0.269337
    38  C   -0.347788
    39  C    0.335643
    40  O   -0.488601
    41  C   -0.347793
    42  C    0.616048
    43  O   -0.515232
    44  O   -0.361957
    45  C   -0.086949
    46  C    0.031891
    47  C   -0.096711
    48  C    0.112131
    49  C   -0.371441
    50  C   -0.232100
    51  C   -0.159627
    52  C   -0.147664
    53  C   -0.060169
    54  C   -0.286666
    55  C   -0.180989
    56  C   -0.171581
    57  C   -0.161457
    58  C   -0.073791
    59  C   -0.277024
    60  C   -0.157386
    61  C   -0.183459
    62  C   -0.185686
    63  C   -0.070575
    64  C   -0.305569
    65  C   -0.299901
    66  H    0.058166
    67  H    0.071440
    68  H    0.077873
    69  H    0.124897
    70  H    0.102618
    71  H    0.100069
    72  H    0.109990
    73  H    0.131114
    74  H    0.101532
    75  H    0.128783
    76  H    0.148065
    77  H    0.137289
    78  H    0.140590
    79  H    0.123400
    80  H    0.118199
    81  H    0.088158
    82  H    0.098484
    83  H    0.100975
    84  H    0.101790
    85  H    0.091322
    86  H    0.127785
    87  H    0.116087
    88  H    0.102260
    89  H    0.091068
    90  H    0.122713
    91  H    0.099980
    92  H    0.114586
    93  H    0.152270
    94  H    0.128405
    95  H    0.156295
    96  H    0.095630
    97  H    0.146718
    98  H    0.136004
    99  H    0.102921
   100  H    0.105382
   101  H    0.084861
   102  H    0.103531
   103  H    0.114857
   104  H    0.119827
   105  H    0.079602
   106  H    0.090999
   107  H    0.091284
   108  H    0.077648
   109  H    0.099935
   110  H    0.078689
   111  H    0.081808
   112  H    0.099389
   113  H    0.079393
   114  H    0.101911
   115  H    0.087942
   116  H    0.071494
   117  H    0.078744
   118  H    0.074407
   119  H    0.087882
   120  H    0.092583
   121  H    0.068656
   122  H    0.058968
   123  H    0.106760
   124  H    0.104177
   125  H    0.098586
   126  H    0.094420
   127  H    0.093466
   128  H    0.096657
   129  H    0.071760
   130  H    0.059441
   131  H    0.091820
   132  H    0.117820
   133  H    0.087649
   134  H    0.097478
   135  H    0.119854
   136  H    0.099292
   137  H    0.094297
 Sum of Mulliken charges =  -0.00000

 Dipole moment (field-independent basis, Debye):
    X=              1.2203    Y=              3.9222    Z=              0.9410  Tot=              4.2140
 Quadrupole moment (field-independent basis, Debye-Ang):
   XX=           -335.9106   YY=           -392.4103   ZZ=           -399.2572
   XY=            -11.4330   XZ=             11.6724   YZ=             -3.9047

 Normal termination of Gaussian 16 at Tue Oct 22 17:37:56 2019.
