 Gaussian 16, Revision A.03,
 Gaussian 16:  ES64L-G16RevA.03 25-Dec-2016

 ----------------------------------------------------------------------
 # td=(NStates=10) iop(3/107=0140000000,3/108=0140000000) CAM-B3LYP/6-3
 1G(d,p)
 ----------------------------------------------------------------------

 --
 TD
 --
 Symbolic Z-matrix:
 Charge =  0 Multiplicity = 1

                         Standard orientation:
 ---------------------------------------------------------------------
 Center     Atomic      Atomic             Coordinates (Angstroms)
 Number     Number       Type             X           Y           Z
 ---------------------------------------------------------------------
      1         12           0       -7.142724    0.591218    0.106078
      2          6           0       -4.839818   -2.024050    0.507968
      3          6           0       -4.826844    2.826093    1.234545
      4          6           0       -9.477322    3.042602   -0.295189
      5          6           0       -9.480518   -1.803157   -0.843273
      6          7           0       -5.029980    0.428077    0.717505
      7          6           0       -4.318221   -0.752938    0.876874
      8          6           0       -2.958744   -0.387707    1.294600
      9          6           0       -3.065649    1.085830    1.721526
     10          6           0       -4.390993    1.546867    1.269031
     11          6           0       -2.881051    1.277519    3.217298
     12          6           0       -1.909595   -0.616902    0.085219
     13          6           0       -0.523562   -0.481985    0.540864
     14          6           0        0.528893   -0.499061   -0.626418
     15          8           0        0.320949   -0.704673   -1.807580
     16          8           0        1.785000   -0.377112   -0.196651
     17          7           0       -7.049401    2.556200    0.270397
     18          6           0       -6.074432    3.382169    0.777084
     19          6           0       -6.435768    4.748263    0.951282
     20          6           0       -7.774677    4.762313    0.465196
     21          6           0       -8.180993    3.418870    0.106841
     22          6           0       -5.643448    5.848236    1.459976
     23          6           0       -8.649918    5.961616    0.337102
     24          6           0       -8.178800    7.225233    0.084091
     25          7           0       -9.136478    0.637416   -0.566119
     26          6           0       -9.873092    1.785699   -0.654735
     27          6           0      -11.228612    1.313463   -1.160185
     28          6           0      -11.225141    0.012678   -1.322034
     29          6           0       -9.893701   -0.423931   -0.932360
     30          6           0      -12.378315    2.420556   -1.375060
     31          6           0      -12.326989   -0.901777   -1.738277
     32          6           0      -12.418057   -1.038282   -3.263203
     33          7           0       -7.244895   -1.384802   -0.075422
     34          6           0       -8.222935   -2.241695   -0.568994
     35          6           0       -7.775426   -3.691113   -0.411871
     36          6           0       -6.536969   -3.592562   -0.084064
     37          6           0       -6.106201   -2.196974    0.123608
     38          6           0       -8.478677   -4.922889   -0.880101
     39          6           0       -5.279337   -4.416571    0.183997
     40          8           0       -5.073069   -5.515786    0.046834
     41          6           0       -4.146935   -3.292874    0.461436
     42          6           0       -3.505698   -3.662154    1.790009
     43          8           0       -3.710978   -3.232264    2.884072
     44          8           0       -2.590159   -4.727098    1.597607
     45          6           0       -2.017513   -5.371740    2.814526
     46          6           0        2.857824   -0.474002   -1.180827
     47          6           0        4.077049   -0.197086   -0.588316
     48          6           0        5.193726    0.532036   -0.915101
     49          6           0        5.141325    1.549067   -2.087171
     50          6           0        6.476405    0.501036   -0.184393
     51          6           0        7.542161    0.015559   -0.950456
     52          6           0        8.905742   -0.068096   -0.170945
     53          6           0       10.224743   -0.558563   -0.863386
     54          6           0       10.019467   -2.022130   -1.300990
     55          6           0       11.372751   -0.199648    0.031080
     56          6           0       12.731863   -0.535816   -0.660835
     57          6           0       13.873521   -0.284589    0.320786
     58          6           0       15.241755   -0.342378   -0.396041
     59          6           0       15.674757   -1.703843   -0.882886
     60          6           0       16.326349    0.226344    0.582568
     61          6           0       17.707895    0.543772   -0.138969
     62          6           0       18.800413    1.151427    0.832164
     63          6           0       20.150546    1.338005    0.100452
     64          6           0       20.066157    2.227674   -1.256027
     65          6           0       21.253028    1.868654    1.060470
     66          1           0       -4.416811    3.477116    1.775012
     67          1           0      -10.046685    4.042197   -0.758854
     68          1           0      -10.195665   -2.448096   -1.169071
     69          1           0       -2.601918   -1.073684    2.130674
     70          1           0       -2.252915    1.871253    1.211999
     71          1           0       -1.918405    1.071927    3.652699
     72          1           0       -3.175770    2.239491    3.224835
     73          1           0       -3.689369    0.753642    3.795964
     74          1           0       -2.037173   -1.486619   -0.547913
     75          1           0       -2.129215    0.261524   -0.557101
     76          1           0       -0.276784    0.308472    1.165030
     77          1           0       -0.335800   -1.377142    1.292971
     78          1           0       -5.107969    6.247931    0.788416
     79          1           0       -6.127651    6.693774    2.164920
     80          1           0       -4.905258    5.202643    2.200855
     81          1           0       -9.728473    5.999611    0.807067
     82          1           0       -8.800950    8.203759    0.160816
     83          1           0       -7.049165    7.397484   -0.097944
     84          1           0      -12.011974    3.271037   -2.211722
     85          1           0      -13.295840    1.911510   -1.759491
     86          1           0      -12.480454    3.091464   -0.259125
     87          1           0      -12.053851   -1.832441   -1.169866
     88          1           0      -13.346189   -0.491178   -1.367245
     89          1           0      -13.223474   -1.658507   -3.763312
     90          1           0      -12.322948    0.085160   -3.538576
     91          1           0      -11.484613   -1.632699   -3.786387
     92          1           0       -8.653715   -5.014212   -1.985568
     93          1           0       -8.011863   -5.899122   -0.423171
     94          1           0       -9.414073   -4.755514   -0.240763
     95          1           0       -3.212911   -3.205338   -0.287058
     96          1           0       -1.421292   -4.634134    3.431374
     97          1           0       -2.870981   -5.719219    3.532820
     98          1           0       -1.470866   -6.240953    2.526590
     99          1           0        3.163811   -1.557842   -1.770364
    100          1           0        2.385729    0.221680   -2.103066
    101          1           0        4.238566   -0.633337    0.399762
    102          1           0        4.151513    1.400673   -2.649583
    103          1           0        5.244698    2.659811   -1.731859
    104          1           0        5.865882    1.245966   -2.984009
    105          1           0        6.802348    1.581163   -0.057957
    106          1           0        6.282640    0.023320    0.811318
    107          1           0        7.174038   -1.023936   -1.308295
    108          1           0        7.571506    0.491360   -1.986157
    109          1           0        9.180112    0.865101    0.408411
    110          1           0        8.971229   -0.634510    0.846391
    111          1           0       10.401354    0.017402   -1.771258
    112          1           0        9.298556   -2.320100   -2.114507
    113          1           0       10.884854   -2.484496   -1.634588
    114          1           0        9.441318   -2.567906   -0.415359
    115          1           0       11.383969    0.950745    0.238572
    116          1           0       11.395969   -0.754484    1.001608
    117          1           0       12.818766   -1.583116   -0.923296
    118          1           0       12.844559    0.001182   -1.550512
    119          1           0       13.706587    0.702310    0.784610
    120          1           0       14.025434   -0.970845    1.152759
    121          1           0       15.088664    0.243862   -1.365544
    122          1           0       15.734670   -2.385385   -0.119205
    123          1           0       14.863505   -2.209699   -1.529381
    124          1           0       16.523945   -1.514054   -1.624137
    125          1           0       15.971040    1.192035    1.088505
    126          1           0       16.561481   -0.439941    1.488673
    127          1           0       18.290172   -0.304379   -0.569626
    128          1           0       17.566724    1.252035   -0.981443
    129          1           0       18.304678    2.045715    1.290599
    130          1           0       18.914985    0.358257    1.755472
    131          1           0       20.314054    0.315301   -0.343808
    132          1           0       19.816839    3.408216   -1.042716
    133          1           0       21.041981    2.366451   -1.655304
    134          1           0       19.486470    1.624716   -1.892276
    135          1           0       21.464425    1.331864    1.990962
    136          1           0       22.227574    1.934599    0.688095
    137          1           0       20.895871    2.749323    1.357007
 ---------------------------------------------------------------------

 SCF Done:  E(RCAM-B3LYP) =  -2933.47448852     A.U. after   16 cycles

 Excitation energies and oscillator strengths:

 Excited State   1:      Singlet-A      2.0758 eV  597.29 nm  f=0.2311  <S**2>=0.000
     240 -> 243       -0.25499
     241 -> 242        0.65700
 This state for optimization and/or second-order correction.
 Total Energy, E(TD-HF/TD-DFT) =  -2933.39820451
 Copying the excited state density for this state as the 1-particle RhoCI density.

 Excited State   2:      Singlet-A      2.3347 eV  531.05 nm  f=0.0019  <S**2>=0.000
     240 -> 242        0.50682
     241 -> 243        0.48209

 Excited State   3:      Singlet-A      3.1701 eV  391.10 nm  f=0.3119  <S**2>=0.000
     239 -> 242        0.53509
     240 -> 242       -0.26157
     241 -> 243        0.33629

 Excited State   4:      Singlet-A      3.1880 eV  388.90 nm  f=0.5907  <S**2>=0.000
     236 -> 242       -0.11536
     239 -> 242        0.40317
     240 -> 242        0.39007
     241 -> 243       -0.37873

 Excited State   5:      Singlet-A      3.4356 eV  360.88 nm  f=0.7504  <S**2>=0.000
     239 -> 242        0.11556
     240 -> 243        0.63046
     241 -> 242        0.25242

 Excited State   6:      Singlet-A      3.6591 eV  338.83 nm  f=0.0153  <S**2>=0.000
     235 -> 242       -0.30784
     235 -> 244        0.15878
     236 -> 242       -0.28392
     237 -> 242        0.48864
     241 -> 244       -0.13219

 Excited State   7:      Singlet-A      3.7010 eV  335.00 nm  f=0.0050  <S**2>=0.000
     235 -> 242        0.41414
     235 -> 243        0.10741
     235 -> 244       -0.17617
     236 -> 242        0.16523
     237 -> 242        0.46232
     237 -> 243       -0.10288
     241 -> 244        0.10521

 Excited State   8:      Singlet-A      3.7562 eV  330.08 nm  f=0.0659  <S**2>=0.000
     235 -> 242       -0.14537
     239 -> 243       -0.10674
     241 -> 244        0.65516

 Excited State   9:      Singlet-A      3.9290 eV  315.56 nm  f=0.0305  <S**2>=0.000
     234 -> 242       -0.11212
     235 -> 242       -0.22008
     236 -> 242        0.37848
     237 -> 243       -0.24880
     239 -> 242        0.11613
     239 -> 243        0.42616

 Excited State  10:      Singlet-A      3.9510 eV  313.80 nm  f=0.0896  <S**2>=0.000
     235 -> 242        0.18940
     236 -> 242       -0.36885
     237 -> 242       -0.11051
     237 -> 243        0.11322
     239 -> 243        0.49457
     241 -> 244        0.10153
     241 -> 245        0.13182

 The electronic state is 1-A.
 Alpha  occ. eigenvalues --  -46.79362 -19.22682 -19.20891 -19.18767 -19.17572
 Alpha  occ. eigenvalues --  -19.16632 -14.37473 -14.35658 -14.35043 -14.35004
 Alpha  occ. eigenvalues --  -10.34942 -10.34728 -10.32057 -10.30040 -10.27588
 Alpha  occ. eigenvalues --  -10.27097 -10.25711 -10.25357 -10.25323 -10.25210
 Alpha  occ. eigenvalues --  -10.25003 -10.24932 -10.24633 -10.24343 -10.24149
 Alpha  occ. eigenvalues --  -10.24107 -10.24032 -10.23912 -10.23782 -10.23753
 Alpha  occ. eigenvalues --  -10.23612 -10.23448 -10.23164 -10.23155 -10.23075
 Alpha  occ. eigenvalues --  -10.22981 -10.22926 -10.22770 -10.22697 -10.22518
 Alpha  occ. eigenvalues --  -10.22331 -10.22256 -10.22196 -10.22058 -10.21934
 Alpha  occ. eigenvalues --  -10.21916 -10.21901 -10.21827 -10.21618 -10.21603
 Alpha  occ. eigenvalues --  -10.21584 -10.21527 -10.21439 -10.21425 -10.21173
 Alpha  occ. eigenvalues --  -10.21018 -10.20975 -10.20859 -10.20518 -10.20336
 Alpha  occ. eigenvalues --  -10.20127 -10.20052 -10.19945 -10.19870 -10.18477
 Alpha  occ. eigenvalues --   -3.08012  -1.82951  -1.82495  -1.82414  -1.13856
 Alpha  occ. eigenvalues --   -1.13504  -1.11526  -1.03949  -1.03215  -0.98630
 Alpha  occ. eigenvalues --   -0.97952  -0.97253  -0.96100  -0.88807  -0.86952
 Alpha  occ. eigenvalues --   -0.85171  -0.84933  -0.84319  -0.83846  -0.83545
 Alpha  occ. eigenvalues --   -0.83174  -0.82945  -0.82461  -0.82116  -0.81788
 Alpha  occ. eigenvalues --   -0.80878  -0.79091  -0.78088  -0.77920  -0.76731
 Alpha  occ. eigenvalues --   -0.76086  -0.75953  -0.75554  -0.74936  -0.73763
 Alpha  occ. eigenvalues --   -0.72835  -0.71721  -0.71427  -0.71274  -0.70696
 Alpha  occ. eigenvalues --   -0.70087  -0.69709  -0.69269  -0.68662  -0.68020
 Alpha  occ. eigenvalues --   -0.67205  -0.66034  -0.64631  -0.64152  -0.63849
 Alpha  occ. eigenvalues --   -0.61952  -0.61666  -0.61093  -0.60582  -0.60233
 Alpha  occ. eigenvalues --   -0.59733  -0.59206  -0.58807  -0.58059  -0.57294
 Alpha  occ. eigenvalues --   -0.57260  -0.56191  -0.55620  -0.55338  -0.54944
 Alpha  occ. eigenvalues --   -0.54665  -0.53887  -0.53279  -0.53041  -0.52598
 Alpha  occ. eigenvalues --   -0.52084  -0.51418  -0.51080  -0.50746  -0.50743
 Alpha  occ. eigenvalues --   -0.50540  -0.50074  -0.49707  -0.49481  -0.49221
 Alpha  occ. eigenvalues --   -0.48924  -0.48584  -0.48316  -0.47940  -0.47715
 Alpha  occ. eigenvalues --   -0.47698  -0.47552  -0.47290  -0.47083  -0.46912
 Alpha  occ. eigenvalues --   -0.46873  -0.46731  -0.46626  -0.46283  -0.46222
 Alpha  occ. eigenvalues --   -0.45982  -0.45845  -0.45325  -0.45073  -0.44816
 Alpha  occ. eigenvalues --   -0.44762  -0.44444  -0.44250  -0.44011  -0.43958
 Alpha  occ. eigenvalues --   -0.43268  -0.43147  -0.43107  -0.42811  -0.42650
 Alpha  occ. eigenvalues --   -0.42506  -0.42470  -0.42149  -0.41884  -0.41740
 Alpha  occ. eigenvalues --   -0.41449  -0.41317  -0.41110  -0.40953  -0.40795
 Alpha  occ. eigenvalues --   -0.40543  -0.40323  -0.40253  -0.39505  -0.39430
 Alpha  occ. eigenvalues --   -0.39354  -0.39058  -0.38869  -0.38647  -0.38555
 Alpha  occ. eigenvalues --   -0.38364  -0.38175  -0.37973  -0.37857  -0.37659
 Alpha  occ. eigenvalues --   -0.37548  -0.37380  -0.37066  -0.36853  -0.36757
 Alpha  occ. eigenvalues --   -0.36398  -0.36278  -0.36076  -0.35791  -0.35791
 Alpha  occ. eigenvalues --   -0.35671  -0.35307  -0.35068  -0.34866  -0.34801
 Alpha  occ. eigenvalues --   -0.34426  -0.34161  -0.34106  -0.33809  -0.33780
 Alpha  occ. eigenvalues --   -0.33167  -0.33050  -0.32765  -0.32487  -0.32203
 Alpha  occ. eigenvalues --   -0.31940  -0.31713  -0.30949  -0.30876  -0.30335
 Alpha  occ. eigenvalues --   -0.29947  -0.29908  -0.29669  -0.29077  -0.27992
 Alpha  occ. eigenvalues --   -0.27621  -0.26440  -0.25811  -0.24778  -0.21949
 Alpha  occ. eigenvalues --   -0.19610
 Alpha virt. eigenvalues --   -0.06464  -0.04098  -0.00206   0.02333   0.03263
 Alpha virt. eigenvalues --    0.03645   0.03797   0.04639   0.05083   0.05227
 Alpha virt. eigenvalues --    0.06217   0.08321   0.08799   0.09171   0.09657

 Mulliken charges:
               1
     1  Mg   0.808508
     2  C    0.145228
     3  C   -0.112580
     4  C   -0.183485
     5  C   -0.163265
     6  N   -0.647339
     7  C    0.333573
     8  C   -0.168868
     9  C   -0.165581
    10  C    0.343868
    11  C   -0.299577
    12  C   -0.169431
    13  C   -0.254400
    14  C    0.593967
    15  O   -0.470338
    16  O   -0.457389
    17  N   -0.713341
    18  C    0.269648
    19  C    0.065242
    20  C   -0.016287
    21  C    0.286394
    22  C   -0.362485
    23  C   -0.105641
    24  C   -0.240005
    25  N   -0.687509
    26  C    0.312184
    27  C    0.008489
    28  C    0.047763
    29  C    0.286368
    30  C   -0.345819
    31  C   -0.237462
    32  C   -0.288895
    33  N   -0.725442
    34  C    0.273749
    35  C   -0.031005
    36  C    0.045895
    37  C    0.271583
    38  C   -0.369024
    39  C    0.391804
    40  O   -0.354137
    41  C   -0.380304
    42  C    0.604753
    43  O   -0.444826
    44  O   -0.488395
    45  C   -0.082780
    46  C    0.022311
    47  C   -0.116283
    48  C    0.115991
    49  C   -0.361861
    50  C   -0.196009
    51  C   -0.160610
    52  C   -0.180211
    53  C   -0.035921
    54  C   -0.310337
    55  C   -0.184146
    56  C   -0.184555
    57  C   -0.172960
    58  C   -0.057831
    59  C   -0.302030
    60  C   -0.171492
    61  C   -0.192477
    62  C   -0.158039
    63  C   -0.060934
    64  C   -0.310948
    65  C   -0.318127
    66  H    0.025989
    67  H    0.100616
    68  H    0.069317
    69  H    0.115749
    70  H    0.085035
    71  H    0.111380
    72  H    0.114069
    73  H    0.114618
    74  H    0.121769
    75  H    0.119594
    76  H    0.139120
    77  H    0.118956
    78  H    0.146623
    79  H    0.116086
    80  H    0.081635
    81  H    0.094897
    82  H    0.099153
    83  H    0.091233
    84  H    0.100426
    85  H    0.112043
    86  H    0.094011
    87  H    0.097586
    88  H    0.102710
    89  H    0.108138
    90  H    0.107443
    91  H    0.081269
    92  H    0.141123
    93  H    0.132435
    94  H    0.119611
    95  H    0.150024
    96  H    0.121774
    97  H    0.117663
    98  H    0.136112
    99  H    0.110193
   100  H    0.116569
   101  H    0.090286
   102  H    0.099560
   103  H    0.116398
   104  H    0.098302
   105  H    0.090763
   106  H    0.092716
   107  H    0.076795
   108  H    0.097047
   109  H    0.075726
   110  H    0.076677
   111  H    0.083545
   112  H    0.101804
   113  H    0.106697
   114  H    0.081446
   115  H    0.087495
   116  H    0.090498
   117  H    0.100665
   118  H    0.097567
   119  H    0.083472
   120  H    0.087338
   121  H    0.070649
   122  H    0.111088
   123  H    0.079698
   124  H    0.105815
   125  H    0.082346
   126  H    0.083731
   127  H    0.087760
   128  H    0.097826
   129  H    0.084816
   130  H    0.062832
   131  H    0.080031
   132  H    0.077199
   133  H    0.110889
   134  H    0.113474
   135  H    0.094471
   136  H    0.102583
   137  H    0.118089
 Sum of Mulliken charges =  -0.00000

 Dipole moment (field-independent basis, Debye):
    X=              1.4622    Y=              1.3574    Z=              0.9580  Tot=              2.2132
 Quadrupole moment (field-independent basis, Debye-Ang):
   XX=           -357.8043   YY=           -386.3507   ZZ=           -397.9708
   XY=             -0.7632   XZ=              3.9444   YZ=              1.5207

 Normal termination of Gaussian 16 at Wed Oct 23 20:32:40 2019.
