 Gaussian 16, Revision A.03,
 Gaussian 16:  ES64L-G16RevA.03 25-Dec-2016

 ----------------------------------------------------------------------
 # td=(NStates=10) iop(3/107=0140000000,3/108=0140000000) CAM-B3LYP/6-3
 1G(d,p)
 ----------------------------------------------------------------------

 --
 TD
 --
 Symbolic Z-matrix:
 Charge =  0 Multiplicity = 1

                         Standard orientation:
 ---------------------------------------------------------------------
 Center     Atomic      Atomic             Coordinates (Angstroms)
 Number     Number       Type             X           Y           Z
 ---------------------------------------------------------------------
      1         12           0       -7.187827    0.637421    0.022785
      2          6           0       -4.836084   -1.910226    0.456295
      3          6           0       -4.902838    2.898134    1.186263
      4          6           0       -9.489257    3.100239   -0.419876
      5          6           0       -9.418482   -1.692202   -1.005184
      6          7           0       -5.132974    0.464441    0.711730
      7          6           0       -4.350354   -0.634865    0.798293
      8          6           0       -3.000325   -0.371445    1.198540
      9          6           0       -3.037154    1.129649    1.597796
     10          6           0       -4.454110    1.490963    1.178516
     11          6           0       -2.901323    1.395804    3.128225
     12          6           0       -1.891176   -0.569778    0.169449
     13          6           0       -0.449921   -0.500578    0.630881
     14          6           0        0.560609   -0.636879   -0.625292
     15          8           0        0.222488   -1.115951   -1.694145
     16          8           0        1.759925   -0.614008   -0.111823
     17          7           0       -7.114857    2.615213    0.196398
     18          6           0       -6.163732    3.307607    0.739759
     19          6           0       -6.550156    4.743550    0.785316
     20          6           0       -7.797412    4.812072    0.295303
     21          6           0       -8.128460    3.530772    0.037928
     22          6           0       -5.730750    5.866719    1.355332
     23          6           0       -8.703132    5.947593    0.249891
     24          6           0       -8.305167    7.303682    0.174745
     25          7           0       -9.145325    0.654115   -0.483374
     26          6           0       -9.878508    1.762724   -0.633477
     27          6           0      -11.173690    1.342717   -1.102069
     28          6           0      -11.223310    0.012074   -1.325452
     29          6           0       -9.897577   -0.470646   -0.860281
     30          6           0      -12.339715    2.387416   -1.268854
     31          6           0      -12.408070   -0.745788   -1.702212
     32          6           0      -12.263121   -1.111854   -3.228963
     33          7           0       -7.181086   -1.331610   -0.170543
     34          6           0       -8.241696   -2.197272   -0.533390
     35          6           0       -7.808912   -3.547655   -0.518189
     36          6           0       -6.413962   -3.448175   -0.195681
     37          6           0       -6.118875   -2.165799    0.157965
     38          6           0       -8.637923   -4.873129   -0.758705
     39          6           0       -5.259836   -4.274629    0.059076
     40          8           0       -5.184593   -5.496573    0.090422
     41          6           0       -4.149346   -3.309401    0.548934
     42          6           0       -3.543862   -3.753996    1.861032
     43          8           0       -3.770947   -3.266029    2.963281
     44          8           0       -2.674548   -4.745686    1.675303
     45          6           0       -2.061354   -5.129960    2.960787
     46          6           0        2.846490   -0.897407   -1.008720
     47          6           0        4.076919   -0.591057   -0.359016
     48          6           0        5.076631    0.253040   -0.860207
     49          6           0        4.923365    1.022221   -2.117031
     50          6           0        6.335530    0.410686   -0.159988
     51          6           0        7.554911   -0.234563   -0.829087
     52          6           0        8.860635   -0.029734   -0.056808
     53          6           0       10.231559   -0.493892   -0.773178
     54          6           0       10.124236   -1.983167   -1.257261
     55          6           0       11.480708   -0.253937    0.062414
     56          6           0       12.759054   -0.344095   -0.705927
     57          6           0       14.012937    0.059931    0.142853
     58          6           0       15.419429   -0.142230   -0.534729
     59          6           0       15.721915   -1.662680   -0.869299
     60          6           0       16.435298    0.492438    0.248495
     61          6           0       17.856275    0.380222   -0.219361
     62          6           0       18.889697    1.160632    0.629579
     63          6           0       20.323665    1.396021    0.167719
     64          6           0       20.411098    2.181236   -1.199842
     65          6           0       21.107433    2.101865    1.337539
     66          1           0       -4.284044    3.481522    1.604136
     67          1           0       -9.930139    4.105103   -0.761140
     68          1           0      -10.091982   -2.528650   -1.269558
     69          1           0       -2.501412   -1.011643    1.996597
     70          1           0       -2.279367    1.581574    0.969318
     71          1           0       -1.975415    1.103596    3.637262
     72          1           0       -3.180066    2.379268    3.379796
     73          1           0       -3.688160    0.780486    3.701511
     74          1           0       -2.001636   -1.584988   -0.287172
     75          1           0       -2.147734    0.175360   -0.673778
     76          1           0       -0.365521    0.499985    0.907161
     77          1           0       -0.057286   -1.102538    1.325322
     78          1           0       -5.063587    6.359074    0.680554
     79          1           0       -6.364570    6.622049    1.766404
     80          1           0       -5.205121    5.505464    2.260415
     81          1           0       -9.614074    5.754542    0.300782
     82          1           0       -8.929334    8.239849    0.440323
     83          1           0       -7.294147    7.553130    0.142149
     84          1           0      -12.178688    3.237658   -2.090075
     85          1           0      -13.413747    1.925358   -1.444172
     86          1           0      -12.508030    2.947449   -0.278279
     87          1           0      -12.345187   -1.899522   -1.185718
     88          1           0      -13.529410   -0.142927   -1.449948
     89          1           0      -12.911847   -1.860907   -3.439250
     90          1           0      -12.398150   -0.069106   -3.761333
     91          1           0      -11.344311   -1.349427   -3.547465
     92          1           0       -9.170631   -4.829892   -1.716117
     93          1           0       -7.852410   -5.562856   -0.563278
     94          1           0       -9.406963   -5.204798   -0.036052
     95          1           0       -3.273556   -3.573620    0.062469
     96          1           0       -1.130772   -4.308051    2.997973
     97          1           0       -2.662788   -5.091925    3.934980
     98          1           0       -1.773526   -6.069958    2.881741
     99          1           0        2.652393   -1.990765   -1.083877
    100          1           0        2.656769   -0.532747   -2.163798
    101          1           0        4.245306   -1.122751    0.506468
    102          1           0        3.892928    0.860735   -2.771631
    103          1           0        5.295320    1.973151   -1.948018
    104          1           0        5.705574    0.534809   -2.702320
    105          1           0        6.661998    1.524232    0.105752
    106          1           0        6.181558   -0.179041    0.933644
    107          1           0        7.568637   -1.405598   -1.174709
    108          1           0        7.743639    0.412166   -1.717263
    109          1           0        9.200119    1.100898    0.245462
    110          1           0        8.857550   -0.768714    0.919076
    111          1           0       10.250248    0.271221   -1.569549
    112          1           0        9.543992   -2.049780   -2.021985
    113          1           0       11.238714   -2.110719   -1.635653
    114          1           0        9.708070   -2.677527   -0.406655
    115          1           0       11.315050    0.825884    0.409810
    116          1           0       11.547980   -0.865587    0.944860
    117          1           0       13.032376   -1.296610   -1.081697
    118          1           0       12.790614    0.292074   -1.650885
    119          1           0       13.951409    0.922085    0.641933
    120          1           0       13.935552   -0.713974    1.102461
    121          1           0       15.416545    0.394620   -1.475020
    122          1           0       15.753947   -2.337721   -0.031686
    123          1           0       15.040528   -2.363083   -1.505918
    124          1           0       16.754132   -1.584505   -1.398214
    125          1           0       16.290698    1.574822    0.368458
    126          1           0       16.405506   -0.101571    1.194274
    127          1           0       18.103882   -0.442895   -0.304962
    128          1           0       17.919178    0.959373   -1.214646
    129          1           0       18.534480    2.241131    0.676186
    130          1           0       18.950855    0.886998    1.584695
    131          1           0       20.758991    0.339732   -0.065389
    132          1           0       20.029970    3.240357   -1.033958
    133          1           0       21.434924    2.271253   -1.562955
    134          1           0       19.944466    1.474049   -2.008021
    135          1           0       21.142157    1.387533    2.139974
    136          1           0       22.330509    2.211885    1.054192
    137          1           0       20.669223    3.147948    1.593720
 ---------------------------------------------------------------------

 SCF Done:  E(RCAM-B3LYP) =  -2933.39928497     A.U. after   15 cycles

 Excitation energies and oscillator strengths:

 Excited State   1:      Singlet-A      2.0703 eV  598.87 nm  f=0.2463  <S**2>=0.000
     240 -> 243       -0.24669
     241 -> 242        0.65949
 This state for optimization and/or second-order correction.
 Total Energy, E(TD-HF/TD-DFT) =  -2933.32320269
 Copying the excited state density for this state as the 1-particle RhoCI density.

 Excited State   2:      Singlet-A      2.2914 eV  541.09 nm  f=0.0270  <S**2>=0.000
     240 -> 242        0.58730
     241 -> 243        0.37542

 Excited State   3:      Singlet-A      3.1076 eV  398.97 nm  f=0.0224  <S**2>=0.000
     238 -> 242       -0.13648
     239 -> 242        0.63678
     241 -> 243        0.17685

 Excited State   4:      Singlet-A      3.2515 eV  381.31 nm  f=0.3675  <S**2>=0.000
     236 -> 242        0.15865
     237 -> 242       -0.11168
     238 -> 242        0.46455
     240 -> 242       -0.22780
     241 -> 243        0.40767

 Excited State   5:      Singlet-A      3.2799 eV  378.01 nm  f=0.3471  <S**2>=0.000
     236 -> 242       -0.15478
     237 -> 242       -0.16905
     238 -> 242        0.45181
     239 -> 242        0.18477
     240 -> 242        0.25935
     241 -> 243       -0.34183

 Excited State   6:      Singlet-A      3.3419 eV  371.00 nm  f=0.0398  <S**2>=0.000
     236 -> 242        0.30976
     236 -> 244        0.14160
     237 -> 242        0.51102
     238 -> 242        0.14359
     239 -> 242        0.15984
     240 -> 243       -0.10624
     241 -> 243       -0.11007

 Excited State   7:      Singlet-A      3.5065 eV  353.59 nm  f=0.7570  <S**2>=0.000
     237 -> 242        0.16187
     240 -> 243        0.61090
     241 -> 242        0.23785

 Excited State   8:      Singlet-A      3.5269 eV  351.54 nm  f=0.2833  <S**2>=0.000
     236 -> 242        0.52169
     237 -> 242       -0.36108
     238 -> 242       -0.12205
     240 -> 242        0.12843
     240 -> 243        0.11274
     241 -> 243       -0.13862

 Excited State   9:      Singlet-A      3.7645 eV  329.35 nm  f=0.0609  <S**2>=0.000
     239 -> 243       -0.13782
     241 -> 244        0.66268
     241 -> 245       -0.10871

 Excited State  10:      Singlet-A      3.9974 eV  310.16 nm  f=0.1459  <S**2>=0.000
     237 -> 243        0.20052
     238 -> 243        0.28076
     239 -> 243        0.39904
     240 -> 244       -0.33212
     241 -> 244        0.12010
     241 -> 245        0.24216

 The electronic state is 1-A.
 Alpha  occ. eigenvalues --  -46.78941 -19.22782 -19.22630 -19.16507 -19.15329
 Alpha  occ. eigenvalues --  -19.14955 -14.38153 -14.35288 -14.34815 -14.34009
 Alpha  occ. eigenvalues --  -10.34385 -10.33750 -10.29210 -10.28210 -10.27509
 Alpha  occ. eigenvalues --  -10.26730 -10.25567 -10.25147 -10.25073 -10.25066
 Alpha  occ. eigenvalues --  -10.24974 -10.24731 -10.24282 -10.24251 -10.23996
 Alpha  occ. eigenvalues --  -10.23668 -10.23484 -10.23467 -10.23294 -10.23292
 Alpha  occ. eigenvalues --  -10.23221 -10.23014 -10.22904 -10.22704 -10.22667
 Alpha  occ. eigenvalues --  -10.22595 -10.22556 -10.22553 -10.22530 -10.22529
 Alpha  occ. eigenvalues --  -10.22274 -10.22252 -10.22242 -10.21822 -10.21795
 Alpha  occ. eigenvalues --  -10.21743 -10.21681 -10.21630 -10.21545 -10.21442
 Alpha  occ. eigenvalues --  -10.21378 -10.21349 -10.21348 -10.21289 -10.21213
 Alpha  occ. eigenvalues --  -10.21177 -10.21120 -10.21057 -10.21023 -10.20859
 Alpha  occ. eigenvalues --  -10.20143 -10.19852 -10.19832 -10.19684 -10.18838
 Alpha  occ. eigenvalues --   -3.07791  -1.82715  -1.82262  -1.82213  -1.14741
 Alpha  occ. eigenvalues --   -1.13172  -1.04670  -1.04480  -1.02760  -1.01506
 Alpha  occ. eigenvalues --   -1.00763  -0.98134  -0.96732  -0.87790  -0.87307
 Alpha  occ. eigenvalues --   -0.86493  -0.85870  -0.85457  -0.84643  -0.83759
 Alpha  occ. eigenvalues --   -0.82903  -0.82761  -0.82458  -0.81927  -0.80833
 Alpha  occ. eigenvalues --   -0.80052  -0.79415  -0.78703  -0.78379  -0.77449
 Alpha  occ. eigenvalues --   -0.77077  -0.76745  -0.76098  -0.75459  -0.74301
 Alpha  occ. eigenvalues --   -0.73536  -0.72296  -0.71744  -0.71341  -0.70872
 Alpha  occ. eigenvalues --   -0.70592  -0.70054  -0.69885  -0.68897  -0.67686
 Alpha  occ. eigenvalues --   -0.67450  -0.66587  -0.65492  -0.65193  -0.64847
 Alpha  occ. eigenvalues --   -0.63766  -0.63314  -0.61365  -0.60828  -0.60656
 Alpha  occ. eigenvalues --   -0.59639  -0.59268  -0.59065  -0.57967  -0.57473
 Alpha  occ. eigenvalues --   -0.57322  -0.57111  -0.56650  -0.56321  -0.55551
 Alpha  occ. eigenvalues --   -0.55143  -0.54224  -0.53701  -0.53187  -0.52754
 Alpha  occ. eigenvalues --   -0.52279  -0.52052  -0.51578  -0.51432  -0.51222
 Alpha  occ. eigenvalues --   -0.50917  -0.50754  -0.50509  -0.50111  -0.49369
 Alpha  occ. eigenvalues --   -0.49051  -0.48787  -0.48560  -0.48107  -0.47874
 Alpha  occ. eigenvalues --   -0.47709  -0.47666  -0.47334  -0.47224  -0.46962
 Alpha  occ. eigenvalues --   -0.46920  -0.46509  -0.46289  -0.46072  -0.45793
 Alpha  occ. eigenvalues --   -0.45656  -0.45281  -0.45162  -0.44749  -0.44559
 Alpha  occ. eigenvalues --   -0.44420  -0.44359  -0.44167  -0.43851  -0.43774
 Alpha  occ. eigenvalues --   -0.43602  -0.43524  -0.43205  -0.42832  -0.42749
 Alpha  occ. eigenvalues --   -0.42114  -0.41828  -0.41761  -0.41643  -0.41405
 Alpha  occ. eigenvalues --   -0.41221  -0.41039  -0.40881  -0.40848  -0.40681
 Alpha  occ. eigenvalues --   -0.40622  -0.40494  -0.40251  -0.40106  -0.39929
 Alpha  occ. eigenvalues --   -0.39584  -0.39376  -0.39186  -0.39088  -0.39008
 Alpha  occ. eigenvalues --   -0.38946  -0.38729  -0.38367  -0.38198  -0.38103
 Alpha  occ. eigenvalues --   -0.38021  -0.37894  -0.37830  -0.37733  -0.37586
 Alpha  occ. eigenvalues --   -0.37357  -0.37097  -0.37057  -0.36663  -0.36195
 Alpha  occ. eigenvalues --   -0.35731  -0.35408  -0.35112  -0.34807  -0.34747
 Alpha  occ. eigenvalues --   -0.34518  -0.34411  -0.34075  -0.33788  -0.33623
 Alpha  occ. eigenvalues --   -0.33508  -0.33195  -0.32940  -0.32869  -0.32511
 Alpha  occ. eigenvalues --   -0.32311  -0.32268  -0.31916  -0.31252  -0.30461
 Alpha  occ. eigenvalues --   -0.29824  -0.29494  -0.28901  -0.28074  -0.26571
 Alpha  occ. eigenvalues --   -0.26454  -0.25942  -0.25519  -0.25133  -0.21472
 Alpha  occ. eigenvalues --   -0.19906
 Alpha virt. eigenvalues --   -0.06943  -0.03462  -0.00338   0.01305   0.02143
 Alpha virt. eigenvalues --    0.03819   0.04255   0.04785   0.05000   0.05554
 Alpha virt. eigenvalues --    0.06426   0.08044   0.09190   0.09617   0.09655

 Mulliken charges:
               1
     1  Mg   0.816456
     2  C    0.053274
     3  C   -0.131952
     4  C   -0.186176
     5  C   -0.173543
     6  N   -0.612889
     7  C    0.328058
     8  C   -0.159263
     9  C   -0.145124
    10  C    0.307379
    11  C   -0.323191
    12  C   -0.191772
    13  C   -0.256939
    14  C    0.569618
    15  O   -0.460020
    16  O   -0.429835
    17  N   -0.703310
    18  C    0.353448
    19  C   -0.017860
    20  C    0.085632
    21  C    0.231469
    22  C   -0.392137
    23  C   -0.048241
    24  C   -0.255960
    25  N   -0.713188
    26  C    0.352597
    27  C    0.011255
    28  C    0.089489
    29  C    0.290908
    30  C   -0.372396
    31  C   -0.252143
    32  C   -0.302020
    33  N   -0.716330
    34  C    0.284188
    35  C   -0.011559
    36  C    0.005765
    37  C    0.294460
    38  C   -0.377650
    39  C    0.353286
    40  O   -0.474894
    41  C   -0.300988
    42  C    0.618462
    43  O   -0.491264
    44  O   -0.438563
    45  C   -0.080507
    46  C   -0.008623
    47  C   -0.114536
    48  C    0.154191
    49  C   -0.358129
    50  C   -0.236787
    51  C   -0.157719
    52  C   -0.162745
    53  C   -0.071081
    54  C   -0.300998
    55  C   -0.153285
    56  C   -0.177522
    57  C   -0.165104
    58  C   -0.046838
    59  C   -0.329601
    60  C   -0.160533
    61  C   -0.143734
    62  C   -0.156355
    63  C   -0.063771
    64  C   -0.302012
    65  C   -0.298732
    66  H    0.039294
    67  H    0.096092
    68  H    0.080770
    69  H    0.115245
    70  H    0.112625
    71  H    0.112137
    72  H    0.114730
    73  H    0.118304
    74  H    0.112249
    75  H    0.095672
    76  H    0.125900
    77  H    0.136227
    78  H    0.131553
    79  H    0.125143
    80  H    0.110489
    81  H    0.076915
    82  H    0.104043
    83  H    0.103814
    84  H    0.106584
    85  H    0.092774
    86  H    0.113909
    87  H    0.074491
    88  H    0.084131
    89  H    0.111182
    90  H    0.093388
    91  H    0.130252
    92  H    0.120464
    93  H    0.155987
    94  H    0.123673
    95  H    0.156352
    96  H    0.096025
    97  H    0.151498
    98  H    0.135448
    99  H    0.120261
   100  H    0.113044
   101  H    0.087406
   102  H    0.101397
   103  H    0.126621
   104  H    0.130610
   105  H    0.099692
   106  H    0.078444
   107  H    0.094040
   108  H    0.095922
   109  H    0.063594
   110  H    0.059245
   111  H    0.082218
   112  H    0.119223
   113  H    0.087460
   114  H    0.092175
   115  H    0.076566
   116  H    0.096697
   117  H    0.107757
   118  H    0.079873
   119  H    0.097583
   120  H    0.044081
   121  H    0.083899
   122  H    0.109736
   123  H    0.093080
   124  H    0.096408
   125  H    0.091624
   126  H    0.080051
   127  H    0.086827
   128  H    0.074231
   129  H    0.064755
   130  H    0.092894
   131  H    0.065937
   132  H    0.094457
   133  H    0.104439
   134  H    0.093612
   135  H    0.116390
   136  H    0.068006
   137  H    0.100271
 Sum of Mulliken charges =  -0.00000

 Dipole moment (field-independent basis, Debye):
    X=              4.6656    Y=              5.1159    Z=              0.8834  Tot=              6.9800
 Quadrupole moment (field-independent basis, Debye-Ang):
   XX=           -350.6290   YY=           -391.7547   ZZ=           -399.2870
   XY=            -27.4495   XZ=              2.7008   YZ=             -1.3029

 Normal termination of Gaussian 16 at Wed Oct 23 20:34:41 2019.
