 Gaussian 16, Revision A.03,
 Gaussian 16:  ES64L-G16RevA.03 25-Dec-2016

 ----------------------------------------------------------------------
 # td=(NStates=10) iop(3/107=0140000000,3/108=0140000000) CAM-B3LYP/6-3
 1G(d,p)
 ----------------------------------------------------------------------

 --
 TD
 --
 Symbolic Z-matrix:
 Charge =  0 Multiplicity = 1

                         Standard orientation:
 ---------------------------------------------------------------------
 Center     Atomic      Atomic             Coordinates (Angstroms)
 Number     Number       Type             X           Y           Z
 ---------------------------------------------------------------------
      1         12           0       -7.123477    0.561938    0.125720
      2          6           0       -4.822473   -1.986209    0.460573
      3          6           0       -4.773100    2.836271    1.108755
      4          6           0       -9.499702    3.105830   -0.043175
      5          6           0       -9.507367   -1.802831   -0.820715
      6          7           0       -5.039719    0.413186    0.683792
      7          6           0       -4.383448   -0.731678    0.787721
      8          6           0       -2.869521   -0.344853    1.164793
      9          6           0       -2.929512    1.055386    1.626948
     10          6           0       -4.336299    1.484369    1.127480
     11          6           0       -2.889707    1.213782    3.190969
     12          6           0       -1.907310   -0.655133    0.043547
     13          6           0       -0.485077   -0.363400    0.443433
     14          6           0        0.543092   -0.624986   -0.644504
     15          8           0        0.318799   -0.984658   -1.756324
     16          8           0        1.791589   -0.340522   -0.198173
     17          7           0       -7.080981    2.573003    0.358671
     18          6           0       -6.035205    3.368106    0.807560
     19          6           0       -6.438668    4.734060    0.786196
     20          6           0       -7.783836    4.779024    0.458842
     21          6           0       -8.205214    3.409799    0.223413
     22          6           0       -5.536615    5.851201    1.146361
     23          6           0       -8.550444    6.030196    0.285037
     24          6           0       -8.114496    7.248420   -0.050872
     25          7           0       -9.144414    0.616785   -0.445088
     26          6           0       -9.936550    1.766375   -0.469877
     27          6           0      -11.331100    1.367054   -0.834847
     28          6           0      -11.292055    0.029099   -1.093653
     29          6           0       -9.975964   -0.432395   -0.845945
     30          6           0      -12.471693    2.359419   -1.070441
     31          6           0      -12.389726   -0.699411   -1.829116
     32          6           0      -12.316934   -0.961968   -3.330290
     33          7           0       -7.231984   -1.437539   -0.202930
     34          6           0       -8.337481   -2.265281   -0.553309
     35          6           0       -7.771832   -3.601837   -0.451854
     36          6           0       -6.478057   -3.682525   -0.095136
     37          6           0       -6.148577   -2.223837    0.005958
     38          6           0       -8.683458   -4.826627   -0.902417
     39          6           0       -5.288826   -4.408605    0.160495
     40          8           0       -5.178769   -5.617765    0.021502
     41          6           0       -4.198227   -3.283258    0.523552
     42          6           0       -3.597553   -3.671015    1.879437
     43          8           0       -3.764544   -3.153227    2.918461
     44          8           0       -2.768118   -4.813460    1.661081
     45          6           0       -2.126834   -5.228090    2.946916
     46          6           0        2.801241   -0.565840   -1.109867
     47          6           0        4.174678   -0.411353   -0.501211
     48          6           0        5.127461    0.554215   -0.838707
     49          6           0        4.993503    1.459275   -2.015583
     50          6           0        6.379858    0.594796   -0.077988
     51          6           0        7.562369    0.011714   -0.851751
     52          6           0        8.937669    0.092613   -0.186456
     53          6           0       10.116367   -0.445574   -0.887235
     54          6           0       10.079485   -1.886728   -1.387631
     55          6           0       11.462227   -0.234866   -0.147497
     56          6           0       12.789212   -0.449528   -0.939848
     57          6           0       13.996091   -0.222967    0.100971
     58          6           0       15.385937   -0.180132   -0.520183
     59          6           0       15.621947   -1.685585   -0.969757
     60          6           0       16.463752    0.283074    0.468540
     61          6           0       17.880714    0.403387   -0.085315
     62          6           0       18.836838    1.072100    0.805363
     63          6           0       20.225147    1.180809    0.287987
     64          6           0       20.290427    2.033748   -0.976656
     65          6           0       21.194600    1.782743    1.292915
     66          1           0       -3.974250    3.391811    1.627376
     67          1           0      -10.286514    3.892168   -0.441449
     68          1           0      -10.324559   -2.666588   -1.095455
     69          1           0       -2.502063   -0.903604    1.998931
     70          1           0       -1.907749    1.745514    1.234959
     71          1           0       -1.865357    1.047965    3.472367
     72          1           0       -3.393721    2.268232    3.353955
     73          1           0       -3.413633    0.276350    3.530778
     74          1           0       -2.059904   -1.629764   -0.174385
     75          1           0       -1.975696   -0.014457   -0.880465
     76          1           0       -0.488396    0.665355    0.829071
     77          1           0       -0.196621   -0.707840    1.195120
     78          1           0       -4.768519    6.203917    0.361368
     79          1           0       -6.215463    6.824021    1.448026
     80          1           0       -5.102148    5.453906    2.184274
     81          1           0       -9.560013    6.049792    0.577727
     82          1           0       -8.814830    7.972456   -0.080883
     83          1           0       -7.084607    7.312285   -0.249297
     84          1           0      -12.223546    3.116127   -1.749153
     85          1           0      -13.267358    1.790817   -1.769426
     86          1           0      -13.032517    2.928986   -0.130051
     87          1           0      -12.578543   -1.658747   -1.437775
     88          1           0      -13.434324    0.081869   -1.699246
     89          1           0      -13.245622   -1.513458   -3.669282
     90          1           0      -12.160311   -0.031041   -3.928239
     91          1           0      -11.384950   -1.547760   -3.632260
     92          1           0       -9.279785   -4.599791   -1.875264
     93          1           0       -7.901682   -5.686770   -0.995029
     94          1           0       -9.410141   -5.266127   -0.040604
     95          1           0       -3.657800   -3.499230   -0.290059
     96          1           0       -1.254138   -4.547910    3.171626
     97          1           0       -2.920667   -5.249920    3.589456
     98          1           0       -1.570663   -6.191402    2.559864
     99          1           0        2.731885   -1.479830   -1.678151
    100          1           0        2.644158    0.145132   -1.871441
    101          1           0        4.467693   -1.043145    0.333096
    102          1           0        4.081295    1.421963   -2.461366
    103          1           0        5.282288    2.502329   -1.961325
    104          1           0        5.663610    1.188493   -2.967070
    105          1           0        6.493829    1.612100    0.307197
    106          1           0        6.323068    0.032441    0.829077
    107          1           0        7.323457   -0.977966   -0.950896
    108          1           0        7.770086    0.851712   -1.657930
    109          1           0        9.133225    1.133226   -0.020564
    110          1           0        8.992491   -0.497189    0.808412
    111          1           0       10.219515    0.193709   -1.843859
    112          1           0        9.098630   -2.082363   -1.834094
    113          1           0       11.055599   -2.287914   -2.007269
    114          1           0        9.992862   -2.399147   -0.579420
    115          1           0       11.413830    0.860125    0.152977
    116          1           0       11.399443   -0.799261    0.795499
    117          1           0       12.843919   -1.329358   -1.446544
    118          1           0       13.002559    0.306258   -1.652760
    119          1           0       13.728234    0.772428    0.740147
    120          1           0       13.906223   -1.095389    0.880676
    121          1           0       15.287816    0.358796   -1.324277
    122          1           0       15.744672   -2.226656   -0.057041
    123          1           0       14.754527   -2.293004   -1.721284
    124          1           0       16.575106   -1.954148   -1.367741
    125          1           0       16.386158    1.395801    0.765712
    126          1           0       16.613979   -0.079162    1.358068
    127          1           0       18.377417   -0.588592   -0.219723
    128          1           0       17.735701    1.085643   -1.072989
    129          1           0       18.532763    2.143003    0.897082
    130          1           0       18.829011    0.638010    1.857970
    131          1           0       20.744302    0.295177   -0.037680
    132          1           0       19.946742    3.062120   -0.585775
    133          1           0       21.259096    2.061164   -1.155227
    134          1           0       19.542713    1.662827   -1.755522
    135          1           0       21.455697    1.348241    2.173531
    136          1           0       22.182315    1.850778    0.782071
    137          1           0       20.791431    2.898095    1.498155
 ---------------------------------------------------------------------

 SCF Done:  E(RCAM-B3LYP) =  -2933.43656224     A.U. after   15 cycles

 Excitation energies and oscillator strengths:

 Excited State   1:      Singlet-A      2.1321 eV  581.51 nm  f=0.1667  <S**2>=0.000
     240 -> 243        0.28337
     241 -> 242        0.64135
 This state for optimization and/or second-order correction.
 Total Energy, E(TD-HF/TD-DFT) =  -2933.35820853
 Copying the excited state density for this state as the 1-particle RhoCI density.

 Excited State   2:      Singlet-A      2.3836 eV  520.15 nm  f=0.0022  <S**2>=0.000
     240 -> 242        0.52949
     241 -> 243       -0.45443

 Excited State   3:      Singlet-A      3.0933 eV  400.82 nm  f=0.5928  <S**2>=0.000
     235 -> 242       -0.12159
     236 -> 242        0.14273
     239 -> 242       -0.10932
     240 -> 242        0.36675
     240 -> 243       -0.25484
     240 -> 244       -0.13014
     241 -> 243        0.46575

 Excited State   4:      Singlet-A      3.1934 eV  388.25 nm  f=0.0926  <S**2>=0.000
     238 -> 242        0.12488
     239 -> 242        0.62975
     239 -> 243        0.19553
     240 -> 242        0.10995

 Excited State   5:      Singlet-A      3.2840 eV  377.54 nm  f=0.7831  <S**2>=0.000
     238 -> 243       -0.10090
     240 -> 242        0.18410
     240 -> 243        0.54374
     241 -> 242       -0.26102
     241 -> 243        0.21591
     241 -> 244        0.15962

 Excited State   6:      Singlet-A      3.3820 eV  366.60 nm  f=0.0529  <S**2>=0.000
     235 -> 242        0.10154
     236 -> 242        0.55903
     236 -> 243       -0.21120
     236 -> 244       -0.26209
     240 -> 243        0.10084

 Excited State   7:      Singlet-A      3.4576 eV  358.58 nm  f=0.0087  <S**2>=0.000
     238 -> 242        0.67164
     239 -> 242       -0.15881

 Excited State   8:      Singlet-A      3.6438 eV  340.26 nm  f=0.0446  <S**2>=0.000
     238 -> 243        0.56539
     239 -> 243       -0.37404

 Excited State   9:      Singlet-A      3.7937 eV  326.82 nm  f=0.1050  <S**2>=0.000
     239 -> 243        0.18285
     240 -> 243       -0.15795
     241 -> 244        0.63981

 Excited State  10:      Singlet-A      3.8715 eV  320.25 nm  f=0.2362  <S**2>=0.000
     235 -> 242        0.57082
     235 -> 243       -0.12062
     238 -> 243        0.13295
     239 -> 243        0.26391
     240 -> 242        0.12320
     241 -> 244       -0.17762

 The electronic state is 1-A.
 Alpha  occ. eigenvalues --  -46.80309 -19.21872 -19.20732 -19.18553 -19.17134
 Alpha  occ. eigenvalues --  -19.17110 -14.37934 -14.35760 -14.35668 -14.35549
 Alpha  occ. eigenvalues --  -10.35042 -10.34520 -10.31376 -10.27288 -10.27060
 Alpha  occ. eigenvalues --  -10.27041 -10.26151 -10.26024 -10.25657 -10.25180
 Alpha  occ. eigenvalues --  -10.25129 -10.25019 -10.24930 -10.24868 -10.24492
 Alpha  occ. eigenvalues --  -10.24140 -10.24045 -10.24011 -10.23926 -10.23883
 Alpha  occ. eigenvalues --  -10.23422 -10.23277 -10.23074 -10.22880 -10.22776
 Alpha  occ. eigenvalues --  -10.22765 -10.22660 -10.22367 -10.22327 -10.22232
 Alpha  occ. eigenvalues --  -10.22172 -10.22133 -10.21894 -10.21649 -10.21645
 Alpha  occ. eigenvalues --  -10.21548 -10.21488 -10.21468 -10.21446 -10.21306
 Alpha  occ. eigenvalues --  -10.21298 -10.21297 -10.21130 -10.20997 -10.20913
 Alpha  occ. eigenvalues --  -10.20887 -10.20825 -10.20651 -10.20518 -10.20504
 Alpha  occ. eigenvalues --  -10.20271 -10.20169 -10.20163 -10.19526 -10.19461
 Alpha  occ. eigenvalues --   -3.08817  -1.83770  -1.83294  -1.83206  -1.14658
 Alpha  occ. eigenvalues --   -1.12856  -1.06703  -1.06023  -1.04070  -1.00257
 Alpha  occ. eigenvalues --   -0.98240  -0.97702  -0.96193  -0.89123  -0.86975
 Alpha  occ. eigenvalues --   -0.86540  -0.86339  -0.84807  -0.84342  -0.83871
 Alpha  occ. eigenvalues --   -0.83821  -0.82869  -0.82636  -0.82155  -0.81916
 Alpha  occ. eigenvalues --   -0.80391  -0.79799  -0.79009  -0.78772  -0.77676
 Alpha  occ. eigenvalues --   -0.77096  -0.76048  -0.75690  -0.75384  -0.73770
 Alpha  occ. eigenvalues --   -0.73192  -0.72589  -0.71978  -0.71222  -0.70930
 Alpha  occ. eigenvalues --   -0.70798  -0.69956  -0.69660  -0.68710  -0.67807
 Alpha  occ. eigenvalues --   -0.67366  -0.66937  -0.65546  -0.64554  -0.64251
 Alpha  occ. eigenvalues --   -0.63071  -0.62506  -0.61539  -0.61038  -0.60773
 Alpha  occ. eigenvalues --   -0.60323  -0.60263  -0.59896  -0.58377  -0.58173
 Alpha  occ. eigenvalues --   -0.57392  -0.56972  -0.56544  -0.56165  -0.55630
 Alpha  occ. eigenvalues --   -0.55328  -0.54847  -0.54755  -0.53979  -0.53554
 Alpha  occ. eigenvalues --   -0.53197  -0.52486  -0.51970  -0.51604  -0.51373
 Alpha  occ. eigenvalues --   -0.51055  -0.50452  -0.50353  -0.50112  -0.50023
 Alpha  occ. eigenvalues --   -0.49849  -0.49054  -0.48881  -0.48758  -0.48648
 Alpha  occ. eigenvalues --   -0.48210  -0.48021  -0.47439  -0.47090  -0.46915
 Alpha  occ. eigenvalues --   -0.46635  -0.46530  -0.46226  -0.46108  -0.45916
 Alpha  occ. eigenvalues --   -0.45814  -0.45736  -0.45537  -0.45293  -0.44794
 Alpha  occ. eigenvalues --   -0.44618  -0.44437  -0.44023  -0.43553  -0.43469
 Alpha  occ. eigenvalues --   -0.43185  -0.42945  -0.42725  -0.42646  -0.42425
 Alpha  occ. eigenvalues --   -0.42245  -0.42038  -0.41879  -0.41585  -0.41235
 Alpha  occ. eigenvalues --   -0.41089  -0.40987  -0.40935  -0.40900  -0.40761
 Alpha  occ. eigenvalues --   -0.40415  -0.40367  -0.40164  -0.40051  -0.39770
 Alpha  occ. eigenvalues --   -0.39660  -0.39616  -0.39565  -0.39242  -0.39081
 Alpha  occ. eigenvalues --   -0.38935  -0.38749  -0.38537  -0.38402  -0.38302
 Alpha  occ. eigenvalues --   -0.37747  -0.37717  -0.37529  -0.36915  -0.36865
 Alpha  occ. eigenvalues --   -0.36767  -0.36728  -0.36671  -0.36404  -0.36354
 Alpha  occ. eigenvalues --   -0.35868  -0.35523  -0.35386  -0.35141  -0.34655
 Alpha  occ. eigenvalues --   -0.34307  -0.33929  -0.33663  -0.33481  -0.33421
 Alpha  occ. eigenvalues --   -0.33357  -0.32982  -0.32947  -0.32803  -0.32709
 Alpha  occ. eigenvalues --   -0.32581  -0.32485  -0.31798  -0.31497  -0.31168
 Alpha  occ. eigenvalues --   -0.31076  -0.30580  -0.30403  -0.29057  -0.27844
 Alpha  occ. eigenvalues --   -0.27533  -0.26288  -0.25889  -0.25347  -0.22340
 Alpha  occ. eigenvalues --   -0.20556
 Alpha virt. eigenvalues --   -0.06872  -0.05093  -0.00988   0.02292   0.03049
 Alpha virt. eigenvalues --    0.03828   0.04006   0.04804   0.05009   0.05297
 Alpha virt. eigenvalues --    0.06550   0.08123   0.08877   0.09238   0.09254

 Mulliken charges:
               1
     1  Mg   0.809806
     2  C    0.113902
     3  C   -0.199445
     4  C   -0.174649
     5  C   -0.218051
     6  N   -0.641076
     7  C    0.325324
     8  C   -0.156192
     9  C   -0.154116
    10  C    0.332110
    11  C   -0.298615
    12  C   -0.151621
    13  C   -0.234380
    14  C    0.597473
    15  O   -0.457640
    16  O   -0.455189
    17  N   -0.731318
    18  C    0.333952
    19  C    0.046855
    20  C    0.009728
    21  C    0.346431
    22  C   -0.383512
    23  C   -0.091714
    24  C   -0.212016
    25  N   -0.665345
    26  C    0.247142
    27  C    0.024960
    28  C    0.053844
    29  C    0.270047
    30  C   -0.378487
    31  C   -0.220312
    32  C   -0.300022
    33  N   -0.754823
    34  C    0.405145
    35  C   -0.073799
    36  C    0.169727
    37  C    0.234888
    38  C   -0.379359
    39  C    0.297000
    40  O   -0.445364
    41  C   -0.332468
    42  C    0.623196
    43  O   -0.439868
    44  O   -0.490691
    45  C   -0.082211
    46  C    0.017583
    47  C   -0.149587
    48  C    0.152467
    49  C   -0.378557
    50  C   -0.249685
    51  C   -0.144023
    52  C   -0.174267
    53  C   -0.057516
    54  C   -0.304732
    55  C   -0.164443
    56  C   -0.180147
    57  C   -0.165764
    58  C   -0.031150
    59  C   -0.314569
    60  C   -0.166495
    61  C   -0.169365
    62  C   -0.148617
    63  C   -0.075293
    64  C   -0.282834
    65  C   -0.300354
    66  H    0.073878
    67  H    0.102132
    68  H    0.089323
    69  H    0.106865
    70  H    0.073836
    71  H    0.114380
    72  H    0.104840
    73  H    0.128202
    74  H    0.119069
    75  H    0.114235
    76  H    0.115539
    77  H    0.113619
    78  H    0.124715
    79  H    0.102201
    80  H    0.103607
    81  H    0.086462
    82  H    0.098188
    83  H    0.099914
    84  H    0.134513
    85  H    0.091768
    86  H    0.101947
    87  H    0.107192
    88  H    0.057451
    89  H    0.106369
    90  H    0.104999
    91  H    0.097494
    92  H    0.117314
    93  H    0.135399
    94  H    0.111167
    95  H    0.175825
    96  H    0.117620
    97  H    0.150131
    98  H    0.123292
    99  H    0.125731
   100  H    0.106959
   101  H    0.082083
   102  H    0.123140
   103  H    0.117453
   104  H    0.102924
   105  H    0.097397
   106  H    0.097692
   107  H    0.106626
   108  H    0.089087
   109  H    0.095905
   110  H    0.060262
   111  H    0.057207
   112  H    0.093396
   113  H    0.086757
   114  H    0.112626
   115  H    0.077083
   116  H    0.086856
   117  H    0.102274
   118  H    0.099308
   119  H    0.062652
   120  H    0.074879
   121  H    0.092797
   122  H    0.109213
   123  H    0.067420
   124  H    0.103922
   125  H    0.075707
   126  H    0.099360
   127  H    0.086506
   128  H    0.071123
   129  H    0.078437
   130  H    0.077777
   131  H    0.087312
   132  H    0.078988
   133  H    0.106555
   134  H    0.100223
   135  H    0.111275
   136  H    0.088306
   137  H    0.071392
 Sum of Mulliken charges =  -0.00000

 Dipole moment (field-independent basis, Debye):
    X=              2.0520    Y=              3.9360    Z=              1.1113  Tot=              4.5757
 Quadrupole moment (field-independent basis, Debye-Ang):
   XX=           -351.5959   YY=           -396.0787   ZZ=           -399.8100
   XY=            -25.3558   XZ=             13.8141   YZ=             -5.4936

 Normal termination of Gaussian 16 at Tue Oct 22 04:04:59 2019.
