 Gaussian 16, Revision A.03,
 Gaussian 16:  ES64L-G16RevA.03 25-Dec-2016

 ----------------------------------------------------------------------
 # td=(NStates=10) iop(3/107=0140000000,3/108=0140000000) CAM-B3LYP/6-3
 1G(d,p)
 ----------------------------------------------------------------------

 --
 TD
 --
 Symbolic Z-matrix:
 Charge =  0 Multiplicity = 1

                         Standard orientation:
 ---------------------------------------------------------------------
 Center     Atomic      Atomic             Coordinates (Angstroms)
 Number     Number       Type             X           Y           Z
 ---------------------------------------------------------------------
      1         12           0       -7.171507    0.622870    0.128458
      2          6           0       -4.879668   -1.968754    0.484300
      3          6           0       -4.806325    2.716961    1.131979
      4          6           0       -9.327544    3.079499   -0.342635
      5          6           0       -9.533663   -1.753198   -0.903893
      6          7           0       -5.058667    0.464413    0.689269
      7          6           0       -4.360881   -0.716147    0.750264
      8          6           0       -2.854597   -0.433022    1.217345
      9          6           0       -3.021478    0.962338    1.726543
     10          6           0       -4.306912    1.362351    1.059457
     11          6           0       -2.867104    1.231394    3.149111
     12          6           0       -1.907530   -0.656060   -0.005654
     13          6           0       -0.487163   -0.515384    0.479600
     14          6           0        0.483287   -0.661258   -0.649115
     15          8           0        0.215741   -1.166259   -1.768787
     16          8           0        1.813687   -0.345802   -0.298722
     17          7           0       -7.064095    2.594320    0.437249
     18          6           0       -5.990536    3.276622    0.811398
     19          6           0       -6.346928    4.733910    0.947065
     20          6           0       -7.651721    4.842541    0.482501
     21          6           0       -8.077078    3.522476    0.175783
     22          6           0       -5.364554    5.779030    1.384773
     23          6           0       -8.457330    6.067205    0.285763
     24          6           0       -8.165107    7.302043    0.100680
     25          7           0       -9.086774    0.636566   -0.510476
     26          6           0       -9.850922    1.852491   -0.583098
     27          6           0      -11.134054    1.533518   -1.047615
     28          6           0      -11.147056    0.079107   -1.224868
     29          6           0       -9.933665   -0.334287   -0.801195
     30          6           0      -12.253523    2.518744   -1.282681
     31          6           0      -12.372983   -0.718677   -1.565982
     32          6           0      -12.466010   -1.134460   -3.042104
     33          7           0       -7.238840   -1.377596   -0.096767
     34          6           0       -8.245786   -2.277605   -0.639695
     35          6           0       -7.842296   -3.678689   -0.571085
     36          6           0       -6.513963   -3.529713   -0.216678
     37          6           0       -6.182316   -2.126424    0.032302
     38          6           0       -8.662933   -4.862878   -0.822439
     39          6           0       -5.309576   -4.448607    0.228089
     40          8           0       -5.221800   -5.546109    0.189522
     41          6           0       -4.150542   -3.291870    0.557722
     42          6           0       -3.453723   -3.653894    1.766949
     43          8           0       -3.638636   -3.097143    2.906698
     44          8           0       -2.618500   -4.716653    1.702519
     45          6           0       -1.975390   -5.380814    2.873208
     46          6           0        2.811266   -0.560148   -1.351178
     47          6           0        4.124444   -0.339796   -0.533081
     48          6           0        5.127066    0.421667   -1.047168
     49          6           0        5.031047    1.313387   -2.299289
     50          6           0        6.373756    0.616459   -0.335728
     51          6           0        7.652317   -0.013377   -0.987363
     52          6           0        8.856107    0.091401   -0.191308
     53          6           0       10.132929   -0.393406   -0.954439
     54          6           0        9.997914   -1.839338   -1.402298
     55          6           0       11.356503   -0.179108   -0.016423
     56          6           0       12.708741   -0.352428   -0.648583
     57          6           0       13.823216   -0.127006    0.288404
     58          6           0       15.299814   -0.215539   -0.431266
     59          6           0       15.585811   -1.677818   -0.798849
     60          6           0       16.289357    0.370979    0.466199
     61          6           0       17.634933    0.490264   -0.066331
     62          6           0       18.715752    1.111076    0.738083
     63          6           0       20.125873    1.195912    0.162306
     64          6           0       20.303772    2.000373   -0.955902
     65          6           0       21.110606    1.726488    1.316365
     66          1           0       -3.863458    3.386713    1.352228
     67          1           0       -9.954965    3.882235   -0.731566
     68          1           0      -10.131215   -2.559291   -1.270657
     69          1           0       -2.760592   -1.087025    2.111841
     70          1           0       -2.180168    1.736136    1.372339
     71          1           0       -1.748218    1.175501    3.558756
     72          1           0       -3.397606    2.329249    3.514867
     73          1           0       -3.308689    0.338410    3.889004
     74          1           0       -2.248265   -1.644397   -0.446885
     75          1           0       -2.267844   -0.325516   -0.908767
     76          1           0       -0.268877    0.537558    1.069501
     77          1           0       -0.233997   -1.081675    1.248336
     78          1           0       -4.666032    6.158838    0.436963
     79          1           0       -5.962950    6.686980    1.702546
     80          1           0       -4.653305    5.417132    2.144637
     81          1           0       -9.599599    5.849664    0.176296
     82          1           0       -8.854102    8.087438    0.174962
     83          1           0       -7.069929    7.754151    0.311718
     84          1           0      -11.973573    3.185070   -2.123214
     85          1           0      -13.236686    1.920936   -1.325189
     86          1           0      -12.452018    3.126590   -0.209522
     87          1           0      -12.489511   -1.508590   -0.871728
     88          1           0      -13.287531   -0.283560   -1.286568
     89          1           0      -13.190714   -2.015254   -3.008954
     90          1           0      -12.815652   -0.339599   -3.728558
     91          1           0      -11.746392   -1.698333   -3.381424
     92          1           0       -9.336445   -4.799239   -1.726826
     93          1           0       -7.988783   -5.674943   -0.889078
     94          1           0       -9.291268   -4.953920    0.097610
     95          1           0       -3.484446   -3.422391   -0.372296
     96          1           0       -1.447374   -4.707669    3.541167
     97          1           0       -2.807408   -5.823287    3.338746
     98          1           0       -1.293733   -6.035988    2.477061
     99          1           0        2.722110   -1.579107   -1.612384
    100          1           0        2.774082    0.062713   -2.123166
    101          1           0        4.135120   -0.751806    0.436398
    102          1           0        4.094155    1.447022   -2.897831
    103          1           0        5.256040    2.195665   -1.883117
    104          1           0        5.824705    0.993502   -2.961823
    105          1           0        6.489525    1.575048   -0.284151
    106          1           0        6.196468    0.168717    0.772971
    107          1           0        7.287148   -1.065390   -1.210515
    108          1           0        7.634904    0.394742   -1.991937
    109          1           0        8.963235    1.182902    0.126806
    110          1           0        8.634819   -0.670894    0.611838
    111          1           0       10.338827    0.314518   -1.732416
    112          1           0        9.006863   -2.033006   -1.868803
    113          1           0       10.848559   -2.247742   -2.008708
    114          1           0        9.973408   -2.485931   -0.585846
    115          1           0       11.414889    0.965687    0.147326
    116          1           0       11.416843   -0.887136    0.785641
    117          1           0       12.708858   -1.320585   -0.944368
    118          1           0       12.637794    0.153938   -1.563626
    119          1           0       13.720179    1.015040    0.773548
    120          1           0       13.724499   -0.993149    1.151180
    121          1           0       15.247371    0.541116   -1.260198
    122          1           0       15.549693   -2.299595   -0.006545
    123          1           0       15.012431   -2.275395   -1.505297
    124          1           0       16.556474   -1.781039   -1.576318
    125          1           0       15.692895    1.351901    0.748495
    126          1           0       16.542534   -0.175528    1.408673
    127          1           0       17.917035   -0.639691   -0.210896
    128          1           0       17.683271    1.064101   -1.153316
    129          1           0       18.327069    2.260070    0.926848
    130          1           0       18.792536    0.631192    1.653345
    131          1           0       20.414418    0.224126   -0.063818
    132          1           0       20.469881    3.071905   -0.531881
    133          1           0       21.336324    1.637480   -1.353683
    134          1           0       19.549956    1.919299   -1.768102
    135          1           0       21.012809    1.304644    2.429936
    136          1           0       22.191461    1.377722    0.906536
    137          1           0       20.843008    2.867214    1.566097
 ---------------------------------------------------------------------

 SCF Done:  E(RCAM-B3LYP) =  -2933.41793151     A.U. after   16 cycles

 Excitation energies and oscillator strengths:

 Excited State   1:      Singlet-A      2.1272 eV  582.85 nm  f=0.1984  <S**2>=0.000
     240 -> 243        0.23952
     241 -> 242        0.65401
 This state for optimization and/or second-order correction.
 Total Energy, E(TD-HF/TD-DFT) =  -2933.33975802
 Copying the excited state density for this state as the 1-particle RhoCI density.

 Excited State   2:      Singlet-A      2.3678 eV  523.62 nm  f=0.0245  <S**2>=0.000
     240 -> 242       -0.43119
     241 -> 243        0.54315

 Excited State   3:      Singlet-A      3.0704 eV  403.80 nm  f=0.1360  <S**2>=0.000
     239 -> 242        0.60103
     239 -> 243       -0.17254
     240 -> 242        0.25703
     241 -> 243        0.17603

 Excited State   4:      Singlet-A      3.2484 eV  381.68 nm  f=0.6935  <S**2>=0.000
     238 -> 242       -0.19675
     239 -> 242       -0.29475
     240 -> 242        0.44980
     241 -> 243        0.38239

 Excited State   5:      Singlet-A      3.4572 eV  358.63 nm  f=0.3241  <S**2>=0.000
     238 -> 242       -0.17659
     239 -> 242        0.10921
     239 -> 243        0.37247
     240 -> 243        0.48072
     241 -> 242       -0.18029
     241 -> 244       -0.13262

 Excited State   6:      Singlet-A      3.5014 eV  354.10 nm  f=0.2788  <S**2>=0.000
     238 -> 242       -0.19832
     239 -> 242        0.17298
     239 -> 243        0.47634
     240 -> 243       -0.39642
     241 -> 242        0.14404
     241 -> 244        0.12734

 Excited State   7:      Singlet-A      3.5863 eV  345.71 nm  f=0.1895  <S**2>=0.000
     235 -> 242       -0.14157
     238 -> 242        0.54175
     238 -> 243        0.19506
     239 -> 243        0.29205
     240 -> 242        0.12160
     241 -> 243        0.11305

 Excited State   8:      Singlet-A      3.7177 eV  333.50 nm  f=0.0118  <S**2>=0.000
     233 -> 242       -0.11091
     236 -> 242        0.63663
     236 -> 244        0.17958

 Excited State   9:      Singlet-A      3.7666 eV  329.17 nm  f=0.1895  <S**2>=0.000
     240 -> 243        0.16129
     241 -> 244        0.64354

 Excited State  10:      Singlet-A      3.9430 eV  314.44 nm  f=0.1787  <S**2>=0.000
     235 -> 242        0.64855
     238 -> 243        0.11487
     240 -> 242        0.10732
     241 -> 244        0.12034

 The electronic state is 1-A.
 Alpha  occ. eigenvalues --  -46.79354 -19.21414 -19.21109 -19.19417 -19.16840
 Alpha  occ. eigenvalues --  -19.14804 -14.37408 -14.35377 -14.34369 -14.33149
 Alpha  occ. eigenvalues --  -10.34873 -10.34399 -10.32220 -10.26826 -10.26075
 Alpha  occ. eigenvalues --  -10.25608 -10.25532 -10.25032 -10.24957 -10.24520
 Alpha  occ. eigenvalues --  -10.24477 -10.24410 -10.24291 -10.24260 -10.24179
 Alpha  occ. eigenvalues --  -10.23427 -10.23418 -10.23294 -10.23196 -10.23104
 Alpha  occ. eigenvalues --  -10.23053 -10.23005 -10.22995 -10.22795 -10.22686
 Alpha  occ. eigenvalues --  -10.22673 -10.22671 -10.22661 -10.22601 -10.22530
 Alpha  occ. eigenvalues --  -10.22401 -10.22336 -10.21694 -10.21615 -10.21599
 Alpha  occ. eigenvalues --  -10.21552 -10.21474 -10.21168 -10.21010 -10.21001
 Alpha  occ. eigenvalues --  -10.20941 -10.20912 -10.20876 -10.20793 -10.20655
 Alpha  occ. eigenvalues --  -10.20650 -10.20648 -10.20462 -10.20406 -10.20322
 Alpha  occ. eigenvalues --  -10.20269 -10.20220 -10.20183 -10.19738 -10.18245
 Alpha  occ. eigenvalues --   -3.08062  -1.82991  -1.82557  -1.82452  -1.15373
 Alpha  occ. eigenvalues --   -1.10382  -1.09900  -1.02777  -1.02036  -0.99974
 Alpha  occ. eigenvalues --   -0.98500  -0.98082  -0.96659  -0.87114  -0.86896
 Alpha  occ. eigenvalues --   -0.86403  -0.85838  -0.85304  -0.84122  -0.83975
 Alpha  occ. eigenvalues --   -0.83764  -0.82790  -0.82347  -0.82044  -0.81523
 Alpha  occ. eigenvalues --   -0.80808  -0.79437  -0.78639  -0.78459  -0.77582
 Alpha  occ. eigenvalues --   -0.77108  -0.76599  -0.76033  -0.75700  -0.74020
 Alpha  occ. eigenvalues --   -0.73104  -0.72957  -0.72193  -0.71644  -0.71445
 Alpha  occ. eigenvalues --   -0.70238  -0.69967  -0.68971  -0.68436  -0.67498
 Alpha  occ. eigenvalues --   -0.67102  -0.66649  -0.66000  -0.65144  -0.62863
 Alpha  occ. eigenvalues --   -0.62141  -0.61999  -0.61312  -0.60305  -0.59757
 Alpha  occ. eigenvalues --   -0.59701  -0.59600  -0.59325  -0.57910  -0.57250
 Alpha  occ. eigenvalues --   -0.57229  -0.56428  -0.56214  -0.55248  -0.54747
 Alpha  occ. eigenvalues --   -0.54228  -0.53880  -0.53513  -0.53037  -0.52740
 Alpha  occ. eigenvalues --   -0.52164  -0.51810  -0.51674  -0.51167  -0.51075
 Alpha  occ. eigenvalues --   -0.51024  -0.50496  -0.50361  -0.49819  -0.49425
 Alpha  occ. eigenvalues --   -0.49284  -0.49074  -0.48669  -0.48476  -0.48105
 Alpha  occ. eigenvalues --   -0.48038  -0.47863  -0.47838  -0.47488  -0.47129
 Alpha  occ. eigenvalues --   -0.46999  -0.46869  -0.46798  -0.46480  -0.46188
 Alpha  occ. eigenvalues --   -0.45875  -0.45566  -0.45322  -0.45170  -0.44986
 Alpha  occ. eigenvalues --   -0.44916  -0.44571  -0.44398  -0.44162  -0.44121
 Alpha  occ. eigenvalues --   -0.43894  -0.43612  -0.43168  -0.43011  -0.42826
 Alpha  occ. eigenvalues --   -0.42613  -0.42449  -0.42212  -0.42127  -0.41586
 Alpha  occ. eigenvalues --   -0.41293  -0.41123  -0.40985  -0.40799  -0.40639
 Alpha  occ. eigenvalues --   -0.40561  -0.40429  -0.40170  -0.40054  -0.39850
 Alpha  occ. eigenvalues --   -0.39677  -0.39599  -0.39464  -0.39317  -0.39162
 Alpha  occ. eigenvalues --   -0.38818  -0.38460  -0.38124  -0.38079  -0.37428
 Alpha  occ. eigenvalues --   -0.37244  -0.37189  -0.37073  -0.36884  -0.36641
 Alpha  occ. eigenvalues --   -0.36385  -0.36258  -0.36054  -0.35797  -0.35382
 Alpha  occ. eigenvalues --   -0.35014  -0.34918  -0.34528  -0.34447  -0.34372
 Alpha  occ. eigenvalues --   -0.34160  -0.33822  -0.33730  -0.33423  -0.33296
 Alpha  occ. eigenvalues --   -0.33152  -0.32882  -0.32651  -0.32336  -0.32250
 Alpha  occ. eigenvalues --   -0.31892  -0.31700  -0.31261  -0.30395  -0.30280
 Alpha  occ. eigenvalues --   -0.30017  -0.29633  -0.28511  -0.28220  -0.27348
 Alpha  occ. eigenvalues --   -0.26932  -0.26213  -0.25128  -0.23825  -0.21881
 Alpha  occ. eigenvalues --   -0.18946
 Alpha virt. eigenvalues --   -0.05730  -0.03858   0.00573   0.02422   0.02571
 Alpha virt. eigenvalues --    0.03511   0.04989   0.05235   0.05390   0.05597
 Alpha virt. eigenvalues --    0.06507   0.08602   0.09405   0.09414   0.09930

 Mulliken charges:
               1
     1  Mg   0.809662
     2  C    0.092481
     3  C   -0.252608
     4  C   -0.215930
     5  C   -0.174219
     6  N   -0.568816
     7  C    0.222695
     8  C   -0.175162
     9  C   -0.092569
    10  C    0.367173
    11  C   -0.297585
    12  C   -0.157138
    13  C   -0.239508
    14  C    0.609061
    15  O   -0.487965
    16  O   -0.504837
    17  N   -0.725642
    18  C    0.374119
    19  C    0.009731
    20  C    0.049373
    21  C    0.290583
    22  C   -0.370785
    23  C   -0.051423
    24  C   -0.251043
    25  N   -0.701842
    26  C    0.323775
    27  C    0.001169
    28  C    0.033732
    29  C    0.316885
    30  C   -0.369659
    31  C   -0.254819
    32  C   -0.304837
    33  N   -0.716723
    34  C    0.201579
    35  C    0.074644
    36  C   -0.108691
    37  C    0.373654
    38  C   -0.383261
    39  C    0.378027
    40  O   -0.329063
    41  C   -0.346008
    42  C    0.623406
    43  O   -0.525844
    44  O   -0.482676
    45  C   -0.074882
    46  C    0.045369
    47  C   -0.144150
    48  C    0.103215
    49  C   -0.367852
    50  C   -0.215203
    51  C   -0.185162
    52  C   -0.147482
    53  C   -0.049934
    54  C   -0.332024
    55  C   -0.165579
    56  C   -0.170194
    57  C   -0.162477
    58  C   -0.033385
    59  C   -0.319182
    60  C   -0.130478
    61  C   -0.160922
    62  C   -0.137870
    63  C   -0.045534
    64  C   -0.273403
    65  C   -0.302931
    66  H    0.056155
    67  H    0.078415
    68  H    0.076346
    69  H    0.142337
    70  H    0.090392
    71  H    0.096130
    72  H    0.093367
    73  H    0.095766
    74  H    0.103216
    75  H    0.130750
    76  H    0.113663
    77  H    0.160386
    78  H    0.099791
    79  H    0.116156
    80  H    0.121195
    81  H    0.078236
    82  H    0.108407
    83  H    0.073297
    84  H    0.129685
    85  H    0.109329
    86  H    0.091469
    87  H    0.106097
    88  H    0.105198
    89  H    0.077758
    90  H    0.114853
    91  H    0.121553
    92  H    0.125179
    93  H    0.147198
    94  H    0.139934
    95  H    0.160784
    96  H    0.135202
    97  H    0.147063
    98  H    0.138817
    99  H    0.128898
   100  H    0.112921
   101  H    0.087994
   102  H    0.110973
   103  H    0.132644
   104  H    0.123046
   105  H    0.103203
   106  H    0.071230
   107  H    0.091753
   108  H    0.088023
   109  H    0.087476
   110  H    0.093066
   111  H    0.082461
   112  H    0.102965
   113  H    0.101941
   114  H    0.111881
   115  H    0.071732
   116  H    0.084474
   117  H    0.098299
   118  H    0.086603
   119  H    0.056934
   120  H    0.065574
   121  H    0.088986
   122  H    0.117971
   123  H    0.104265
   124  H    0.074796
   125  H    0.065969
   126  H    0.079679
   127  H    0.078535
   128  H    0.045487
   129  H    0.046362
   130  H    0.089810
   131  H    0.094288
   132  H    0.089990
   133  H    0.082489
   134  H    0.103786
   135  H    0.084271
   136  H    0.087716
   137  H    0.094346
 Sum of Mulliken charges =  -0.00000

 Dipole moment (field-independent basis, Debye):
    X=              2.3638    Y=             -0.2996    Z=             -0.0100  Tot=              2.3827
 Quadrupole moment (field-independent basis, Debye-Ang):
   XX=           -369.7463   YY=           -381.6688   ZZ=           -400.5768
   XY=             -9.4512   XZ=              5.6250   YZ=             -3.5271

 Normal termination of Gaussian 16 at Wed Oct 23 21:45:34 2019.
