 Gaussian 16, Revision A.03,
 Gaussian 16:  ES64L-G16RevA.03 25-Dec-2016

 ----------------------------------------------------------------------
 # td=(NStates=10) iop(3/107=0140000000,3/108=0140000000) CAM-B3LYP/6-3
 1G(d,p)
 ----------------------------------------------------------------------

 --
 TD
 --
 Symbolic Z-matrix:
 Charge =  0 Multiplicity = 1

                         Standard orientation:
 ---------------------------------------------------------------------
 Center     Atomic      Atomic             Coordinates (Angstroms)
 Number     Number       Type             X           Y           Z
 ---------------------------------------------------------------------
      1         12           0       -7.226209    0.579832   -0.015419
      2          6           0       -4.807057   -1.886816    0.553966
      3          6           0       -4.857536    2.842485    1.159407
      4          6           0       -9.404922    3.081578   -0.340107
      5          6           0       -9.464687   -1.688592   -1.048201
      6          7           0       -5.159679    0.534956    0.749394
      7          6           0       -4.271557   -0.634975    0.770028
      8          6           0       -2.814186   -0.396535    1.167862
      9          6           0       -3.005109    1.055704    1.674673
     10          6           0       -4.426691    1.455297    1.162843
     11          6           0       -2.794299    1.257956    3.142347
     12          6           0       -1.815753   -0.582950    0.150149
     13          6           0       -0.442996   -0.533186    0.582494
     14          6           0        0.501896   -0.761050   -0.567860
     15          8           0        0.211756   -1.201132   -1.672202
     16          8           0        1.845154   -0.525749   -0.186641
     17          7           0       -7.118509    2.621599    0.290512
     18          6           0       -6.088458    3.409455    0.825094
     19          6           0       -6.426574    4.815376    0.840758
     20          6           0       -7.875987    4.796401    0.440466
     21          6           0       -8.172234    3.382856    0.127370
     22          6           0       -5.569867    5.925762    1.484958
     23          6           0       -8.719475    5.920036    0.387651
     24          6           0       -8.346163    7.301128    0.227380
     25          7           0       -9.130257    0.666790   -0.624579
     26          6           0       -9.830657    1.834103   -0.779987
     27          6           0      -11.146834    1.418098   -1.138932
     28          6           0      -11.214042    0.075052   -1.361064
     29          6           0       -9.935893   -0.375594   -1.075347
     30          6           0      -12.264019    2.452490   -1.255694
     31          6           0      -12.344437   -0.696172   -1.740206
     32          6           0      -12.341127   -1.184169   -3.221823
     33          7           0       -7.250766   -1.388529   -0.131338
     34          6           0       -8.186550   -2.236678   -0.641817
     35          6           0       -7.754967   -3.624445   -0.547184
     36          6           0       -6.435651   -3.516738   -0.117775
     37          6           0       -6.161368   -2.179087    0.185890
     38          6           0       -8.565719   -4.760881   -1.195164
     39          6           0       -5.364742   -4.412470    0.204281
     40          8           0       -5.234236   -5.598799    0.170663
     41          6           0       -4.144734   -3.366191    0.578180
     42          6           0       -3.470433   -3.663715    1.929859
     43          8           0       -3.706397   -3.067034    3.003348
     44          8           0       -2.727290   -4.772530    1.852644
     45          6           0       -2.223212   -5.333959    3.069772
     46          6           0        2.846322   -0.762619   -1.136319
     47          6           0        4.175503   -0.450835   -0.470400
     48          6           0        5.024978    0.436395   -0.932681
     49          6           0        5.119353    1.310959   -2.202225
     50          6           0        6.457190    0.462651   -0.088328
     51          6           0        7.570767   -0.108621   -0.889678
     52          6           0        8.911411    0.036126    0.023738
     53          6           0       10.183522   -0.473156   -0.755665
     54          6           0       10.072690   -1.915197   -1.126589
     55          6           0       11.404458   -0.206722    0.116541
     56          6           0       12.726429   -0.495028   -0.724145
     57          6           0       13.927326   -0.092866    0.169778
     58          6           0       15.289608   -0.294934   -0.534720
     59          6           0       15.621008   -1.747079   -0.747761
     60          6           0       16.426417    0.357512    0.420809
     61          6           0       17.835491    0.458039   -0.260520
     62          6           0       18.772897    1.316717    0.681108
     63          6           0       20.221363    1.382425    0.018124
     64          6           0       20.184395    2.095645   -1.294821
     65          6           0       21.082192    2.080449    1.133566
     66          1           0       -4.129657    3.623424    1.616541
     67          1           0      -10.049370    3.857296   -0.480724
     68          1           0      -10.044397   -2.464562   -1.559492
     69          1           0       -2.794525   -1.050278    2.012459
     70          1           0       -2.241011    1.680986    1.146646
     71          1           0       -1.766955    1.202595    3.396114
     72          1           0       -3.186047    2.397695    3.380850
     73          1           0       -3.551914    0.541203    3.766304
     74          1           0       -1.873359   -1.501846   -0.628126
     75          1           0       -2.116887    0.167528   -0.549819
     76          1           0       -0.151784    0.377481    1.045307
     77          1           0       -0.163665   -1.074392    1.565794
     78          1           0       -4.802235    6.188307    0.804563
     79          1           0       -6.130272    6.794140    1.797628
     80          1           0       -5.104059    5.315648    2.470340
     81          1           0       -9.719824    5.804775    0.492219
     82          1           0       -8.931693    8.033259    0.046377
     83          1           0       -7.162756    7.520320   -0.024569
     84          1           0      -12.202446    3.194154   -2.082851
     85          1           0      -13.241963    1.947476   -1.460917
     86          1           0      -12.411491    3.034974   -0.280587
     87          1           0      -12.443769   -1.623190   -1.188953
     88          1           0      -13.021229   -0.262265   -1.663000
     89          1           0      -13.321367   -1.728693   -3.617559
     90          1           0      -11.993664   -0.484473   -3.737041
     91          1           0      -11.586744   -1.901704   -3.425725
     92          1           0       -8.789443   -4.396766   -2.184446
     93          1           0       -7.961694   -5.565259   -0.970202
     94          1           0       -9.502314   -4.863407   -0.543433
     95          1           0       -3.294197   -3.421882   -0.155268
     96          1           0       -1.667592   -4.559659    3.708612
     97          1           0       -3.065918   -5.678655    3.646450
     98          1           0       -1.708502   -6.321970    2.845590
     99          1           0        2.933340   -1.767346   -1.389887
    100          1           0        2.998224    0.067281   -1.958753
    101          1           0        4.576311   -0.979671    0.479760
    102          1           0        4.128148    1.496162   -2.553392
    103          1           0        5.344752    2.277447   -1.982028
    104          1           0        5.750897    0.986425   -2.869714
    105          1           0        6.622380    1.505873    0.218768
    106          1           0        6.495439   -0.127786    0.767221
    107          1           0        7.403683   -1.162657   -1.090752
    108          1           0        7.731477    0.427464   -1.800507
    109          1           0        9.226301    1.026525    0.277850
    110          1           0        8.844360   -0.423943    0.868438
    111          1           0       10.283989    0.097122   -1.945412
    112          1           0        9.363401   -2.340058   -2.004837
    113          1           0       11.051041   -2.267283   -1.563667
    114          1           0        9.914314   -2.541298   -0.289967
    115          1           0       11.459791    0.864007    0.402544
    116          1           0       11.500174   -0.958676    1.054664
    117          1           0       12.813997   -1.669040   -0.946939
    118          1           0       12.797146    0.077646   -1.710359
    119          1           0       13.710422    0.944300    0.320256
    120          1           0       13.820638   -0.787913    1.028415
    121          1           0       15.231904    0.384849   -1.440469
    122          1           0       15.642656   -2.235130    0.127768
    123          1           0       14.888641   -2.008946   -1.250555
    124          1           0       16.558781   -1.957568   -1.246086
    125          1           0       16.048757    1.300071    0.984157
    126          1           0       16.468537   -0.205350    1.216236
    127          1           0       18.162959   -0.549399   -0.334832
    128          1           0       17.646137    0.965142   -1.387554
    129          1           0       18.443811    2.436906    0.856515
    130          1           0       18.887048    0.754175    1.564508
    131          1           0       20.841952    0.422042   -0.290493
    132          1           0       19.609481    2.946074   -1.360684
    133          1           0       21.286474    2.354440   -1.353761
    134          1           0       19.796115    1.157794   -2.127103
    135          1           0       21.209156    1.394123    2.042344
    136          1           0       22.136961    2.069721    0.860624
    137          1           0       20.716552    3.087858    1.288715
 ---------------------------------------------------------------------

 SCF Done:  E(RCAM-B3LYP) =  -2933.36033438     A.U. after   16 cycles

 Excitation energies and oscillator strengths:

 Excited State   1:      Singlet-A      2.0451 eV  606.24 nm  f=0.2312  <S**2>=0.000
     240 -> 243        0.21767
     241 -> 242        0.66412
 This state for optimization and/or second-order correction.
 Total Energy, E(TD-HF/TD-DFT) =  -2933.28517752
 Copying the excited state density for this state as the 1-particle RhoCI density.

 Excited State   2:      Singlet-A      2.3169 eV  535.12 nm  f=0.0365  <S**2>=0.000
     239 -> 242       -0.10487
     240 -> 242        0.57886
     241 -> 243       -0.37313

 Excited State   3:      Singlet-A      2.8334 eV  437.58 nm  f=0.0611  <S**2>=0.000
     239 -> 242        0.66076
     240 -> 242        0.15920
     240 -> 243        0.10048

 Excited State   4:      Singlet-A      3.0887 eV  401.41 nm  f=0.6760  <S**2>=0.000
     239 -> 242       -0.13585
     240 -> 242        0.33950
     241 -> 243        0.58229

 Excited State   5:      Singlet-A      3.2390 eV  382.79 nm  f=0.2128  <S**2>=0.000
     238 -> 242        0.47267
     238 -> 243       -0.21282
     240 -> 243        0.43982
     241 -> 242       -0.15627

 Excited State   6:      Singlet-A      3.3222 eV  373.20 nm  f=0.3243  <S**2>=0.000
     238 -> 242        0.48926
     240 -> 243       -0.46965
     241 -> 242        0.15467

 Excited State   7:      Singlet-A      3.6073 eV  343.71 nm  f=0.0012  <S**2>=0.000
     236 -> 244        0.12167
     237 -> 242        0.60529
     237 -> 243       -0.12470
     237 -> 244        0.23924

 Excited State   8:      Singlet-A      3.6304 eV  341.52 nm  f=0.0011  <S**2>=0.000
     236 -> 242        0.48212
     236 -> 243       -0.11949
     241 -> 244       -0.46852

 Excited State   9:      Singlet-A      3.7204 eV  333.25 nm  f=0.0969  <S**2>=0.000
     236 -> 242        0.38387
     237 -> 242       -0.13282
     238 -> 243       -0.12541
     239 -> 243       -0.29066
     240 -> 242        0.11285
     241 -> 244        0.43456

 Excited State  10:      Singlet-A      3.8101 eV  325.41 nm  f=0.1340  <S**2>=0.000
     236 -> 242        0.19238
     239 -> 243        0.61225
     241 -> 244        0.18704
     241 -> 245       -0.11470

 The electronic state is 1-A.
 Alpha  occ. eigenvalues --  -46.79673 -19.22360 -19.21582 -19.17872 -19.16693
 Alpha  occ. eigenvalues --  -19.15913 -14.38328 -14.35088 -14.34824 -14.34257
 Alpha  occ. eigenvalues --  -10.35449 -10.34474 -10.30652 -10.27475 -10.26940
 Alpha  occ. eigenvalues --  -10.26861 -10.26037 -10.25634 -10.24704 -10.24609
 Alpha  occ. eigenvalues --  -10.24296 -10.24235 -10.24008 -10.23996 -10.23902
 Alpha  occ. eigenvalues --  -10.23844 -10.23789 -10.23482 -10.23449 -10.23407
 Alpha  occ. eigenvalues --  -10.23364 -10.23349 -10.23236 -10.23139 -10.23073
 Alpha  occ. eigenvalues --  -10.22762 -10.22634 -10.22595 -10.22406 -10.22265
 Alpha  occ. eigenvalues --  -10.22214 -10.22135 -10.21998 -10.21865 -10.21765
 Alpha  occ. eigenvalues --  -10.21542 -10.21472 -10.21446 -10.21385 -10.21158
 Alpha  occ. eigenvalues --  -10.21061 -10.20804 -10.20614 -10.20599 -10.20577
 Alpha  occ. eigenvalues --  -10.20420 -10.20391 -10.20156 -10.20141 -10.20068
 Alpha  occ. eigenvalues --  -10.19605 -10.19546 -10.19149 -10.18719 -10.17159
 Alpha  occ. eigenvalues --   -3.08373  -1.83303  -1.82867  -1.82764  -1.12695
 Alpha  occ. eigenvalues --   -1.11858  -1.07490  -1.04590  -1.02371  -1.00686
 Alpha  occ. eigenvalues --   -0.98768  -0.98276  -0.97453  -0.87983  -0.86006
 Alpha  occ. eigenvalues --   -0.85707  -0.85346  -0.84662  -0.83687  -0.83643
 Alpha  occ. eigenvalues --   -0.83007  -0.82734  -0.82193  -0.82046  -0.81347
 Alpha  occ. eigenvalues --   -0.79855  -0.79097  -0.78367  -0.77996  -0.77686
 Alpha  occ. eigenvalues --   -0.76941  -0.76482  -0.75820  -0.75724  -0.74416
 Alpha  occ. eigenvalues --   -0.73246  -0.72112  -0.71928  -0.71270  -0.70830
 Alpha  occ. eigenvalues --   -0.70528  -0.70288  -0.69658  -0.68862  -0.68592
 Alpha  occ. eigenvalues --   -0.67756  -0.66475  -0.66327  -0.64763  -0.63628
 Alpha  occ. eigenvalues --   -0.63383  -0.61955  -0.61383  -0.60613  -0.60011
 Alpha  occ. eigenvalues --   -0.59632  -0.59477  -0.58454  -0.58241  -0.57308
 Alpha  occ. eigenvalues --   -0.57139  -0.56839  -0.56666  -0.56042  -0.54811
 Alpha  occ. eigenvalues --   -0.54516  -0.54268  -0.53474  -0.53362  -0.52986
 Alpha  occ. eigenvalues --   -0.52044  -0.51676  -0.51394  -0.51050  -0.51002
 Alpha  occ. eigenvalues --   -0.50534  -0.50065  -0.49826  -0.49621  -0.49299
 Alpha  occ. eigenvalues --   -0.49196  -0.49045  -0.48785  -0.48608  -0.48043
 Alpha  occ. eigenvalues --   -0.47935  -0.47623  -0.47421  -0.47265  -0.46730
 Alpha  occ. eigenvalues --   -0.46581  -0.46387  -0.46250  -0.46216  -0.45931
 Alpha  occ. eigenvalues --   -0.45645  -0.45454  -0.45366  -0.45333  -0.44934
 Alpha  occ. eigenvalues --   -0.44904  -0.44569  -0.44475  -0.44035  -0.43671
 Alpha  occ. eigenvalues --   -0.43413  -0.43141  -0.42952  -0.42895  -0.42723
 Alpha  occ. eigenvalues --   -0.42145  -0.42096  -0.41950  -0.41890  -0.41620
 Alpha  occ. eigenvalues --   -0.41404  -0.41334  -0.41121  -0.40959  -0.40785
 Alpha  occ. eigenvalues --   -0.40569  -0.40344  -0.40212  -0.40002  -0.39889
 Alpha  occ. eigenvalues --   -0.39780  -0.39518  -0.39230  -0.39174  -0.39078
 Alpha  occ. eigenvalues --   -0.38972  -0.38724  -0.38500  -0.38383  -0.37994
 Alpha  occ. eigenvalues --   -0.37865  -0.37463  -0.37407  -0.37276  -0.37228
 Alpha  occ. eigenvalues --   -0.37021  -0.36766  -0.36487  -0.36272  -0.36253
 Alpha  occ. eigenvalues --   -0.36136  -0.35704  -0.35414  -0.35050  -0.34582
 Alpha  occ. eigenvalues --   -0.34275  -0.34022  -0.33885  -0.33564  -0.33351
 Alpha  occ. eigenvalues --   -0.33094  -0.32683  -0.32637  -0.32445  -0.32349
 Alpha  occ. eigenvalues --   -0.32327  -0.32106  -0.31219  -0.30621  -0.30140
 Alpha  occ. eigenvalues --   -0.29612  -0.29397  -0.28649  -0.28412  -0.27712
 Alpha  occ. eigenvalues --   -0.27072  -0.26970  -0.25517  -0.23835  -0.21431
 Alpha  occ. eigenvalues --   -0.19970
 Alpha virt. eigenvalues --   -0.07027  -0.04079  -0.00594   0.01477   0.02408
 Alpha virt. eigenvalues --    0.03636   0.04694   0.05244   0.05530   0.06047
 Alpha virt. eigenvalues --    0.06489   0.08634   0.09161   0.09252   0.09687

 Mulliken charges:
               1
     1  Mg   0.820589
     2  C    0.076770
     3  C   -0.241062
     4  C   -0.163495
     5  C   -0.183981
     6  N   -0.573197
     7  C    0.180917
     8  C   -0.134039
     9  C   -0.157317
    10  C    0.397156
    11  C   -0.289806
    12  C   -0.159045
    13  C   -0.266602
    14  C    0.620295
    15  O   -0.457907
    16  O   -0.485726
    17  N   -0.737641
    18  C    0.308452
    19  C    0.022074
    20  C   -0.017030
    21  C    0.423544
    22  C   -0.359505
    23  C   -0.109684
    24  C   -0.227945
    25  N   -0.721289
    26  C    0.325888
    27  C   -0.015708
    28  C    0.055868
    29  C    0.295668
    30  C   -0.393876
    31  C   -0.127849
    32  C   -0.331293
    33  N   -0.723064
    34  C    0.265036
    35  C   -0.007925
    36  C    0.000748
    37  C    0.280272
    38  C   -0.357427
    39  C    0.378326
    40  O   -0.440772
    41  C   -0.327906
    42  C    0.603104
    43  O   -0.496905
    44  O   -0.423777
    45  C   -0.092301
    46  C    0.038713
    47  C   -0.141565
    48  C    0.091902
    49  C   -0.369876
    50  C   -0.218640
    51  C   -0.174365
    52  C   -0.176674
    53  C   -0.027403
    54  C   -0.306403
    55  C   -0.169198
    56  C   -0.191889
    57  C   -0.165457
    58  C   -0.071486
    59  C   -0.294104
    60  C   -0.174377
    61  C   -0.171983
    62  C   -0.152149
    63  C   -0.062077
    64  C   -0.268024
    65  C   -0.316040
    66  H    0.063287
    67  H    0.069500
    68  H    0.075620
    69  H    0.138874
    70  H    0.102122
    71  H    0.119832
    72  H    0.084302
    73  H    0.116157
    74  H    0.119555
    75  H    0.117920
    76  H    0.139209
    77  H    0.141662
    78  H    0.137336
    79  H    0.133107
    80  H    0.095856
    81  H    0.093147
    82  H    0.104882
    83  H    0.077203
    84  H    0.122209
    85  H    0.106028
    86  H    0.111797
    87  H    0.103941
    88  H    0.055267
    89  H    0.087978
    90  H    0.121894
    91  H    0.105658
    92  H    0.137466
    93  H    0.148727
    94  H    0.118640
    95  H    0.150000
    96  H    0.126870
    97  H    0.136828
    98  H    0.125025
    99  H    0.126562
   100  H    0.092598
   101  H    0.078095
   102  H    0.113131
   103  H    0.127457
   104  H    0.141781
   105  H    0.090094
   106  H    0.094576
   107  H    0.105229
   108  H    0.094631
   109  H    0.088447
   110  H    0.099903
   111  H    0.032413
   112  H    0.082451
   113  H    0.095199
   114  H    0.102311
   115  H    0.095855
   116  H    0.080006
   117  H    0.080111
   118  H    0.085553
   119  H    0.094995
   120  H    0.082511
   121  H    0.069873
   122  H    0.107215
   123  H    0.108391
   124  H    0.099483
   125  H    0.057141
   126  H    0.096360
   127  H    0.104589
   128  H    0.065293
   129  H    0.084372
   130  H    0.101494
   131  H    0.070794
   132  H    0.108388
   133  H    0.090901
   134  H    0.065327
   135  H    0.093819
   136  H    0.091144
   137  H    0.104069
 Sum of Mulliken charges =  -0.00000

 Dipole moment (field-independent basis, Debye):
    X=              1.8893    Y=              3.6312    Z=              0.6644  Tot=              4.1469
 Quadrupole moment (field-independent basis, Debye-Ang):
   XX=           -353.1173   YY=           -390.2649   ZZ=           -398.4008
   XY=            -24.5319   XZ=             21.4868   YZ=             -4.4411

 Normal termination of Gaussian 16 at Wed Oct 23 18:30:01 2019.
