 Gaussian 16, Revision A.03,
 Gaussian 16:  ES64L-G16RevA.03 25-Dec-2016

 ----------------------------------------------------------------------
 # td=(NStates=10) iop(3/107=0140000000,3/108=0140000000) CAM-B3LYP/6-3
 1G(d,p)
 ----------------------------------------------------------------------

 --
 TD
 --
 Symbolic Z-matrix:
 Charge =  0 Multiplicity = 1

                         Standard orientation:
 ---------------------------------------------------------------------
 Center     Atomic      Atomic             Coordinates (Angstroms)
 Number     Number       Type             X           Y           Z
 ---------------------------------------------------------------------
      1         12           0       -7.075013    0.579553    0.155431
      2          6           0       -4.800259   -1.996288    0.514794
      3          6           0       -4.720814    2.791072    1.243588
      4          6           0       -9.362241    3.096275   -0.377409
      5          6           0       -9.474611   -1.727725   -0.866896
      6          7           0       -5.071010    0.443346    0.756766
      7          6           0       -4.317133   -0.745427    0.852709
      8          6           0       -2.877652   -0.497819    1.250121
      9          6           0       -3.012081    1.071611    1.678076
     10          6           0       -4.265748    1.519065    1.151875
     11          6           0       -2.836515    1.262346    3.124851
     12          6           0       -1.922118   -0.701554    0.081106
     13          6           0       -0.526331   -0.380645    0.496981
     14          6           0        0.465972   -0.598745   -0.619861
     15          8           0        0.268286   -0.872349   -1.766195
     16          8           0        1.731501   -0.388249   -0.193823
     17          7           0       -7.145427    2.602049    0.401115
     18          6           0       -6.025009    3.323834    0.915334
     19          6           0       -6.396842    4.706498    0.977465
     20          6           0       -7.701311    4.845793    0.468931
     21          6           0       -8.149905    3.570739    0.194192
     22          6           0       -5.409904    5.799462    1.229396
     23          6           0       -8.435186    6.146641    0.476563
     24          6           0       -8.003104    7.322082    0.055721
     25          7           0       -9.063590    0.688742   -0.612983
     26          6           0       -9.815563    1.807172   -0.681017
     27          6           0      -11.203591    1.530718   -1.066736
     28          6           0      -11.215906    0.103643   -1.278013
     29          6           0       -9.921565   -0.391499   -0.904375
     30          6           0      -12.333927    2.391387   -1.433666
     31          6           0      -12.427326   -0.803528   -1.670339
     32          6           0      -12.359141   -1.062008   -3.132401
     33          7           0       -7.279681   -1.414630   -0.083108
     34          6           0       -8.343085   -2.292231   -0.422993
     35          6           0       -7.784675   -3.656445   -0.449511
     36          6           0       -6.480255   -3.571710   -0.072607
     37          6           0       -6.120303   -2.208134    0.120974
     38          6           0       -8.637972   -4.870430   -0.931848
     39          6           0       -5.309846   -4.357674    0.102453
     40          8           0       -5.140362   -5.597855    0.186975
     41          6           0       -4.094193   -3.280304    0.420935
     42          6           0       -3.565440   -3.685190    1.839876
     43          8           0       -3.771978   -3.232103    2.927296
     44          8           0       -2.611331   -4.675637    1.637841
     45          6           0       -2.172924   -5.233163    2.903617
     46          6           0        2.737503   -0.565765   -1.312724
     47          6           0        4.037700   -0.400579   -0.633128
     48          6           0        5.030292    0.377861   -0.969065
     49          6           0        5.087083    1.119915   -2.243420
     50          6           0        6.382157    0.409760   -0.131150
     51          6           0        7.493713   -0.296669   -0.895253
     52          6           0        8.841043   -0.122293   -0.195821
     53          6           0       10.152829   -0.573505   -0.803241
     54          6           0       10.099867   -2.090851   -1.210526
     55          6           0       11.326813   -0.063220   -0.077403
     56          6           0       12.701387   -0.216908   -0.774704
     57          6           0       13.944107   -0.045622    0.084282
     58          6           0       15.304957   -0.166783   -0.483851
     59          6           0       15.612719   -1.674494   -0.723731
     60          6           0       16.407590    0.423909    0.423159
     61          6           0       17.738264    0.566717   -0.182027
     62          6           0       18.769427    1.170546    0.777822
     63          6           0       20.092028    1.244734    0.202803
     64          6           0       20.191946    2.066342   -1.107357
     65          6           0       21.056916    1.680010    1.296586
     66          1           0       -3.967702    3.374931    1.779415
     67          1           0      -10.168856    4.023599   -0.643621
     68          1           0      -10.219904   -2.502031   -1.062176
     69          1           0       -2.451012   -0.904376    2.227484
     70          1           0       -2.281604    1.650642    1.049129
     71          1           0       -1.826402    0.737905    3.466358
     72          1           0       -2.804529    2.242459    3.497334
     73          1           0       -3.652680    0.655061    3.521294
     74          1           0       -1.830078   -1.700924   -0.310841
     75          1           0       -2.099153    0.123700   -0.565821
     76          1           0       -0.461858    0.717007    0.618332
     77          1           0       -0.084139   -1.021937    1.228972
     78          1           0       -4.599763    6.169469    0.436599
     79          1           0       -5.830022    6.876316    1.723390
     80          1           0       -4.844643    5.516821    2.050039
     81          1           0       -9.580043    6.103484    0.657575
     82          1           0       -8.689910    8.163035    0.157793
     83          1           0       -6.932578    7.264000   -0.246398
     84          1           0      -12.159057    3.171001   -2.148808
     85          1           0      -13.246520    1.857164   -1.610289
     86          1           0      -12.591103    3.017710   -0.492859
     87          1           0      -12.310360   -1.676047   -1.040644
     88          1           0      -13.422216   -0.214542   -1.490116
     89          1           0      -13.243046   -1.522407   -3.378363
     90          1           0      -12.100971   -0.116951   -3.750573
     91          1           0      -11.539119   -1.754183   -3.307251
     92          1           0       -8.996832   -4.500437   -1.963732
     93          1           0       -8.125728   -5.817441   -1.159661
     94          1           0       -9.397917   -5.036238   -0.365562
     95          1           0       -3.384784   -3.297211   -0.390426
     96          1           0       -1.476220   -4.639609    3.322067
     97          1           0       -2.958638   -5.417929    3.608155
     98          1           0       -1.663408   -6.248396    2.463168
     99          1           0        2.500612   -1.590151   -1.823663
    100          1           0        2.544256    0.359533   -1.951196
    101          1           0        4.235601   -1.053606    0.140128
    102          1           0        4.044522    1.405328   -2.586042
    103          1           0        5.583298    2.129512   -2.072422
    104          1           0        5.827317    0.713119   -3.083080
    105          1           0        6.576102    1.408860    0.091388
    106          1           0        6.234449   -0.002045    0.762166
    107          1           0        7.118174   -1.320072   -1.017729
    108          1           0        7.830583    0.162644   -1.814428
    109          1           0        8.828992    0.991719   -0.099076
    110          1           0        8.915056   -0.575224    0.827069
    111          1           0        9.988557   -0.064223   -1.830471
    112          1           0        9.286586   -2.321257   -1.943220
    113          1           0       10.980685   -2.227234   -1.925079
    114          1           0       10.063615   -2.644061   -0.302600
    115          1           0       11.375590    0.755875    0.227404
    116          1           0       11.380351   -0.695669    0.946780
    117          1           0       12.564408   -1.177667   -1.390306
    118          1           0       12.861092    0.545893   -1.547150
    119          1           0       13.756298    0.981262    0.630606
    120          1           0       13.854475   -0.604392    0.997646
    121          1           0       15.524458    0.350201   -1.411588
    122          1           0       15.562360   -2.117784    0.236030
    123          1           0       14.868796   -2.047305   -1.432051
    124          1           0       16.658637   -1.747776   -1.210047
    125          1           0       16.081637    1.365160    0.877937
    126          1           0       16.538470   -0.113857    1.351769
    127          1           0       18.123384   -0.379079   -0.603915
    128          1           0       17.542058    1.179630   -1.160236
    129          1           0       18.320819    2.081615    1.249347
    130          1           0       18.947769    0.435544    1.609501
    131          1           0       20.479564    0.198100   -0.107258
    132          1           0       19.610451    3.001689   -0.924324
    133          1           0       21.199826    2.341439   -1.260188
    134          1           0       19.646553    1.739745   -2.017649
    135          1           0       20.889642    1.247327    2.266595
    136          1           0       22.085421    1.668368    1.148526
    137          1           0       20.808493    2.838025    1.437611
 ---------------------------------------------------------------------

 SCF Done:  E(RCAM-B3LYP) =  -2933.58591684     A.U. after   15 cycles

 Excitation energies and oscillator strengths:

 Excited State   1:      Singlet-A      2.0585 eV  602.30 nm  f=0.2175  <S**2>=0.000
     240 -> 243       -0.26094
     241 -> 242        0.64410
 This state for optimization and/or second-order correction.
 Total Energy, E(TD-HF/TD-DFT) =  -2933.51026738
 Copying the excited state density for this state as the 1-particle RhoCI density.

 Excited State   2:      Singlet-A      2.2419 eV  553.04 nm  f=0.0436  <S**2>=0.000
     240 -> 242        0.61347
     241 -> 243        0.30850

 Excited State   3:      Singlet-A      2.8537 eV  434.47 nm  f=0.0067  <S**2>=0.000
     238 -> 242       -0.26649
     239 -> 242        0.62051
     239 -> 243       -0.10490

 Excited State   4:      Singlet-A      2.9870 eV  415.08 nm  f=0.0183  <S**2>=0.000
     238 -> 242        0.62526
     239 -> 242        0.28564

 Excited State   5:      Singlet-A      3.1142 eV  398.12 nm  f=0.2859  <S**2>=0.000
     237 -> 242       -0.40415
     237 -> 243       -0.10794
     237 -> 244        0.18942
     240 -> 242       -0.20015
     240 -> 244        0.13907
     241 -> 243        0.42997

 Excited State   6:      Singlet-A      3.1550 eV  392.97 nm  f=0.2423  <S**2>=0.000
     235 -> 242        0.15515
     237 -> 242        0.45385
     237 -> 243        0.12262
     237 -> 244       -0.21694
     240 -> 242       -0.18731
     241 -> 243        0.38121

 Excited State   7:      Singlet-A      3.3041 eV  375.25 nm  f=0.5967  <S**2>=0.000
     238 -> 243       -0.14194
     239 -> 243       -0.16237
     240 -> 243        0.59771
     241 -> 242        0.25340

 Excited State   8:      Singlet-A      3.5145 eV  352.78 nm  f=0.2293  <S**2>=0.000
     235 -> 242       -0.25819
     236 -> 242       -0.12532
     238 -> 243        0.28594
     239 -> 243        0.50656
     240 -> 243        0.19876
     241 -> 243        0.10216

 Excited State   9:      Singlet-A      3.5490 eV  349.35 nm  f=0.1566  <S**2>=0.000
     235 -> 242        0.51859
     236 -> 242        0.25544
     239 -> 243        0.31104
     240 -> 242        0.12090
     241 -> 243       -0.11876

 Excited State  10:      Singlet-A      3.8166 eV  324.86 nm  f=0.1355  <S**2>=0.000
     238 -> 243       -0.10524
     240 -> 242       -0.11194
     240 -> 244       -0.16328
     241 -> 244        0.64756

 The electronic state is 1-A.
 Alpha  occ. eigenvalues --  -46.79663 -19.20820 -19.20652 -19.17501 -19.16508
 Alpha  occ. eigenvalues --  -19.15873 -14.37781 -14.35305 -14.35297 -14.34914
 Alpha  occ. eigenvalues --  -10.34543 -10.33193 -10.31001 -10.28132 -10.26861
 Alpha  occ. eigenvalues --  -10.25857 -10.25837 -10.25431 -10.25351 -10.25157
 Alpha  occ. eigenvalues --  -10.25094 -10.24897 -10.24877 -10.24799 -10.24738
 Alpha  occ. eigenvalues --  -10.24401 -10.23995 -10.23045 -10.23036 -10.22792
 Alpha  occ. eigenvalues --  -10.22782 -10.22733 -10.22684 -10.22653 -10.22579
 Alpha  occ. eigenvalues --  -10.22477 -10.22459 -10.22379 -10.22280 -10.22092
 Alpha  occ. eigenvalues --  -10.22080 -10.22040 -10.22004 -10.21885 -10.21837
 Alpha  occ. eigenvalues --  -10.21743 -10.21720 -10.21527 -10.21306 -10.21289
 Alpha  occ. eigenvalues --  -10.21088 -10.21079 -10.21048 -10.20977 -10.20803
 Alpha  occ. eigenvalues --  -10.20727 -10.20629 -10.20463 -10.20276 -10.20214
 Alpha  occ. eigenvalues --  -10.20017 -10.19967 -10.19891 -10.19811 -10.19489
 Alpha  occ. eigenvalues --   -3.08173  -1.83119  -1.82634  -1.82589  -1.12478
 Alpha  occ. eigenvalues --   -1.12298  -1.04228  -1.04004  -1.03182  -0.98109
 Alpha  occ. eigenvalues --   -0.97289  -0.96766  -0.95907  -0.88389  -0.86767
 Alpha  occ. eigenvalues --   -0.86328  -0.86086  -0.85349  -0.84138  -0.84005
 Alpha  occ. eigenvalues --   -0.83546  -0.83082  -0.82599  -0.81871  -0.81618
 Alpha  occ. eigenvalues --   -0.81085  -0.79371  -0.79193  -0.78729  -0.77584
 Alpha  occ. eigenvalues --   -0.76949  -0.76453  -0.75575  -0.75427  -0.74082
 Alpha  occ. eigenvalues --   -0.73497  -0.72346  -0.71576  -0.71493  -0.71310
 Alpha  occ. eigenvalues --   -0.71126  -0.70563  -0.70278  -0.69257  -0.68418
 Alpha  occ. eigenvalues --   -0.67608  -0.66156  -0.65148  -0.64632  -0.64310
 Alpha  occ. eigenvalues --   -0.63027  -0.61886  -0.61373  -0.60745  -0.60245
 Alpha  occ. eigenvalues --   -0.59710  -0.59678  -0.58395  -0.57757  -0.57215
 Alpha  occ. eigenvalues --   -0.57071  -0.56583  -0.56263  -0.55024  -0.54951
 Alpha  occ. eigenvalues --   -0.54855  -0.54570  -0.53857  -0.53411  -0.53287
 Alpha  occ. eigenvalues --   -0.52750  -0.52156  -0.51621  -0.51478  -0.51062
 Alpha  occ. eigenvalues --   -0.50861  -0.50573  -0.50314  -0.50004  -0.49627
 Alpha  occ. eigenvalues --   -0.49328  -0.48893  -0.48881  -0.48725  -0.48319
 Alpha  occ. eigenvalues --   -0.47775  -0.47619  -0.47454  -0.47319  -0.47140
 Alpha  occ. eigenvalues --   -0.47005  -0.46590  -0.46465  -0.46160  -0.45778
 Alpha  occ. eigenvalues --   -0.45594  -0.45382  -0.44912  -0.44874  -0.44499
 Alpha  occ. eigenvalues --   -0.44470  -0.44456  -0.43997  -0.43796  -0.43645
 Alpha  occ. eigenvalues --   -0.43620  -0.43043  -0.42864  -0.42730  -0.42677
 Alpha  occ. eigenvalues --   -0.42520  -0.42449  -0.42142  -0.41921  -0.41591
 Alpha  occ. eigenvalues --   -0.41521  -0.41253  -0.40977  -0.40803  -0.40559
 Alpha  occ. eigenvalues --   -0.40460  -0.40321  -0.39979  -0.39819  -0.39709
 Alpha  occ. eigenvalues --   -0.39554  -0.39519  -0.39307  -0.39255  -0.39007
 Alpha  occ. eigenvalues --   -0.38902  -0.38698  -0.38618  -0.38392  -0.38174
 Alpha  occ. eigenvalues --   -0.37850  -0.37762  -0.37623  -0.37480  -0.37322
 Alpha  occ. eigenvalues --   -0.37265  -0.37020  -0.36932  -0.36668  -0.36550
 Alpha  occ. eigenvalues --   -0.35790  -0.35517  -0.35276  -0.35146  -0.34848
 Alpha  occ. eigenvalues --   -0.34601  -0.34074  -0.33855  -0.33649  -0.33543
 Alpha  occ. eigenvalues --   -0.33406  -0.32911  -0.32490  -0.32430  -0.32290
 Alpha  occ. eigenvalues --   -0.32121  -0.31853  -0.31675  -0.31276  -0.30818
 Alpha  occ. eigenvalues --   -0.30559  -0.29952  -0.29788  -0.28886  -0.27370
 Alpha  occ. eigenvalues --   -0.27310  -0.27032  -0.25077  -0.24585  -0.21790
 Alpha  occ. eigenvalues --   -0.20765
 Alpha virt. eigenvalues --   -0.07581  -0.04451  -0.00967   0.02825   0.03931
 Alpha virt. eigenvalues --    0.04251   0.04621   0.05269   0.05492   0.05964
 Alpha virt. eigenvalues --    0.06190   0.08960   0.09426   0.09885   0.09978

 Mulliken charges:
               1
     1  Mg   0.801397
     2  C    0.091528
     3  C   -0.191116
     4  C   -0.179267
     5  C   -0.177909
     6  N   -0.655898
     7  C    0.325017
     8  C   -0.166775
     9  C   -0.176062
    10  C    0.369044
    11  C   -0.300658
    12  C   -0.145789
    13  C   -0.265444
    14  C    0.579750
    15  O   -0.473263
    16  O   -0.494316
    17  N   -0.709334
    18  C    0.316041
    19  C    0.017295
    20  C    0.020652
    21  C    0.292266
    22  C   -0.381704
    23  C   -0.071056
    24  C   -0.231770
    25  N   -0.670011
    26  C    0.330190
    27  C    0.031638
    28  C    0.007969
    29  C    0.291904
    30  C   -0.389244
    31  C   -0.232448
    32  C   -0.295473
    33  N   -0.741742
    34  C    0.280141
    35  C   -0.009628
    36  C    0.094824
    37  C    0.287476
    38  C   -0.361026
    39  C    0.314585
    40  O   -0.469745
    41  C   -0.352064
    42  C    0.631779
    43  O   -0.454628
    44  O   -0.461593
    45  C   -0.083768
    46  C    0.006462
    47  C   -0.091889
    48  C    0.109959
    49  C   -0.370723
    50  C   -0.215259
    51  C   -0.166086
    52  C   -0.170557
    53  C   -0.076090
    54  C   -0.310342
    55  C   -0.100212
    56  C   -0.189463
    57  C   -0.169078
    58  C   -0.061167
    59  C   -0.300614
    60  C   -0.169929
    61  C   -0.174703
    62  C   -0.151250
    63  C   -0.044007
    64  C   -0.316826
    65  C   -0.314733
    66  H    0.073482
    67  H    0.074158
    68  H    0.074220
    69  H    0.117046
    70  H    0.092250
    71  H    0.093356
    72  H    0.120024
    73  H    0.132784
    74  H    0.125227
    75  H    0.121317
    76  H    0.137752
    77  H    0.136494
    78  H    0.112219
    79  H    0.088520
    80  H    0.122371
    81  H    0.076521
    82  H    0.107043
    83  H    0.106573
    84  H    0.133387
    85  H    0.118662
    86  H    0.103999
    87  H    0.111135
    88  H    0.090460
    89  H    0.110956
    90  H    0.107367
    91  H    0.107675
    92  H    0.114782
    93  H    0.143920
    94  H    0.142859
    95  H    0.162755
    96  H    0.129563
    97  H    0.139610
    98  H    0.103629
    99  H    0.137281
   100  H    0.116965
   101  H    0.082692
   102  H    0.106021
   103  H    0.099316
   104  H    0.118764
   105  H    0.101607
   106  H    0.107202
   107  H    0.097866
   108  H    0.094137
   109  H    0.082622
   110  H    0.068486
   111  H    0.056765
   112  H    0.106148
   113  H    0.100818
   114  H    0.111299
   115  H    0.089116
   116  H    0.054866
   117  H    0.077738
   118  H    0.092516
   119  H    0.061983
   120  H    0.092025
   121  H    0.079273
   122  H    0.109588
   123  H    0.104155
   124  H    0.087218
   125  H    0.081234
   126  H    0.081347
   127  H    0.092139
   128  H    0.070207
   129  H    0.089220
   130  H    0.088554
   131  H    0.075839
   132  H    0.090667
   133  H    0.106218
   134  H    0.107059
   135  H    0.105460
   136  H    0.106171
   137  H    0.072045
 Sum of Mulliken charges =  -0.00000

 Dipole moment (field-independent basis, Debye):
    X=              1.2523    Y=              3.4631    Z=              0.3057  Tot=              3.6953
 Quadrupole moment (field-independent basis, Debye-Ang):
   XX=           -337.5904   YY=           -398.9119   ZZ=           -398.0427
   XY=             -9.7492   XZ=             13.5702   YZ=              0.9684

 Normal termination of Gaussian 16 at Thu Oct 24 02:02:32 2019.
