 Gaussian 16, Revision A.03,
 Gaussian 16:  ES64L-G16RevA.03 25-Dec-2016

 ----------------------------------------------------------------------
 # td=(NStates=10) iop(3/107=0140000000,3/108=0140000000) CAM-B3LYP/6-3
 1G(d,p)
 ----------------------------------------------------------------------

 --
 TD
 --
 Symbolic Z-matrix:
 Charge =  0 Multiplicity = 1

                         Standard orientation:
 ---------------------------------------------------------------------
 Center     Atomic      Atomic             Coordinates (Angstroms)
 Number     Number       Type             X           Y           Z
 ---------------------------------------------------------------------
      1         12           0       -7.174002    0.672427    0.026899
      2          6           0       -4.811926   -1.968148    0.525484
      3          6           0       -4.830642    2.859835    1.226909
      4          6           0       -9.436986    3.056238   -0.325036
      5          6           0       -9.502662   -1.813333   -0.929205
      6          7           0       -5.101961    0.422166    0.718927
      7          6           0       -4.315404   -0.699724    0.925255
      8          6           0       -2.977509   -0.361716    1.303218
      9          6           0       -3.042921    1.235204    1.709968
     10          6           0       -4.462983    1.524730    1.149371
     11          6           0       -3.012293    1.354745    3.152177
     12          6           0       -1.979783   -0.680633    0.167754
     13          6           0       -0.515483   -0.538314    0.562499
     14          6           0        0.495610   -0.758484   -0.530299
     15          8           0        0.194717   -1.101219   -1.685248
     16          8           0        1.652974   -0.408178   -0.229000
     17          7           0       -7.194117    2.648936    0.431221
     18          6           0       -6.141650    3.403608    0.817801
     19          6           0       -6.490411    4.822271    0.806344
     20          6           0       -7.752199    4.901805    0.369137
     21          6           0       -8.211424    3.456312    0.191714
     22          6           0       -5.599947    5.942339    1.205812
     23          6           0       -8.667831    6.081812    0.301403
     24          6           0       -8.298555    7.355114    0.085087
     25          7           0       -9.093510    0.667230   -0.563521
     26          6           0       -9.899976    1.786802   -0.580064
     27          6           0      -11.200222    1.443381   -1.119404
     28          6           0      -11.250157    0.083435   -1.161617
     29          6           0       -9.856224   -0.421606   -0.805762
     30          6           0      -12.430284    2.387634   -1.358698
     31          6           0      -12.295960   -0.721088   -1.784525
     32          6           0      -12.309849   -0.994973   -3.312872
     33          7           0       -7.148858   -1.384144   -0.271742
     34          6           0       -8.212579   -2.198674   -0.654967
     35          6           0       -7.785634   -3.628742   -0.532787
     36          6           0       -6.499783   -3.456305   -0.050772
     37          6           0       -6.108798   -2.142397    0.058141
     38          6           0       -8.621876   -4.796952   -0.732919
     39          6           0       -5.314901   -4.315759    0.003188
     40          8           0       -5.257413   -5.617850    0.003842
     41          6           0       -4.105755   -3.347747    0.477193
     42          6           0       -3.478031   -3.766736    1.842443
     43          8           0       -3.643502   -3.019438    2.796340
     44          8           0       -2.814605   -4.881737    1.708803
     45          6           0       -2.220509   -5.340079    2.902163
     46          6           0        2.749769   -0.711873   -1.120083
     47          6           0        4.020815   -0.454364   -0.383932
     48          6           0        5.091983    0.245160   -0.772969
     49          6           0        5.128652    1.196893   -2.088851
     50          6           0        6.405531    0.213585   -0.077673
     51          6           0        7.668181   -0.285299   -0.887167
     52          6           0        8.913427   -0.148648   -0.054690
     53          6           0       10.213436   -0.601088   -0.825636
     54          6           0       10.140306   -2.095267   -1.055404
     55          6           0       11.527961   -0.168649   -0.080847
     56          6           0       12.783616   -0.453980   -0.780366
     57          6           0       13.955797   -0.072586    0.089110
     58          6           0       15.358129   -0.241853   -0.663774
     59          6           0       15.691030   -1.607241   -1.027167
     60          6           0       16.463493    0.359575    0.338575
     61          6           0       17.932773    0.510903   -0.219905
     62          6           0       18.822322    1.308056    0.682037
     63          6           0       20.304359    1.360526    0.165443
     64          6           0       20.481346    2.333094   -1.071407
     65          6           0       21.118727    1.978792    1.345047
     66          1           0       -4.126178    3.301434    1.618096
     67          1           0      -10.036996    3.910760   -0.541433
     68          1           0      -10.156962   -2.560027   -1.238392
     69          1           0       -2.741353   -0.934656    2.324562
     70          1           0       -2.279772    1.735460    1.206973
     71          1           0       -2.116215    1.192692    3.789110
     72          1           0       -3.380506    2.181634    3.746933
     73          1           0       -3.799326    0.702789    3.594818
     74          1           0       -2.077256   -1.840813    0.032337
     75          1           0       -2.148385   -0.067692   -0.683585
     76          1           0       -0.326070    0.471868    1.083925
     77          1           0       -0.136222   -1.343915    1.248730
     78          1           0       -5.224269    6.397197    0.112414
     79          1           0       -6.118335    6.780754    1.820692
     80          1           0       -4.500319    5.545998    1.527312
     81          1           0       -9.674326    5.953269    0.631975
     82          1           0       -9.077430    8.096697    0.089902
     83          1           0       -7.306976    7.771608   -0.279285
     84          1           0      -12.124702    2.984131   -2.307529
     85          1           0      -13.198956    1.636875   -1.775968
     86          1           0      -12.755983    2.705873   -0.445398
     87          1           0      -12.128563   -1.780600   -1.130636
     88          1           0      -12.982390   -0.293662   -1.395349
     89          1           0      -13.123810   -1.557568   -3.451574
     90          1           0      -12.208208    0.031468   -3.722049
     91          1           0      -11.388905   -1.728505   -3.611311
     92          1           0       -8.930370   -4.783946   -1.653060
     93          1           0       -7.869237   -5.675873   -0.488021
     94          1           0       -9.446823   -4.677219    0.059227
     95          1           0       -3.342784   -3.620532   -0.371561
     96          1           0       -1.278996   -4.740104    3.105082
     97          1           0       -3.069945   -5.462192    3.702821
     98          1           0       -1.949365   -6.470482    2.703511
     99          1           0        2.857482   -1.792757   -1.415559
    100          1           0        2.621783   -0.095225   -1.956531
    101          1           0        3.948425   -1.013703    0.614042
    102          1           0        4.161858    1.321329   -2.339169
    103          1           0        5.481182    2.249862   -1.819803
    104          1           0        5.667916    0.720798   -2.960835
    105          1           0        6.897363    1.165004    0.230508
    106          1           0        6.245992   -0.302383    0.861053
    107          1           0        7.437279   -1.285435   -1.226829
    108          1           0        7.924619    0.209740   -1.825010
    109          1           0        9.112964    1.016086    0.223413
    110          1           0        8.933791   -0.596058    0.862170
    111          1           0       10.219484    0.028363   -1.768353
    112          1           0        9.247286   -2.702841   -1.606463
    113          1           0       11.189249   -2.694938   -1.233959
    114          1           0       10.042093   -2.445047   -0.001530
    115          1           0       11.513268    1.009458    0.124297
    116          1           0       11.615810   -0.611352    0.863990
    117          1           0       12.972344   -1.485604   -1.201041
    118          1           0       12.874091    0.256003   -1.642110
    119          1           0       13.895567    0.973215    0.399533
    120          1           0       13.952477   -0.643368    0.977505
    121          1           0       15.438129    0.409971   -1.531394
    122          1           0       15.653845   -2.028589   -0.102420
    123          1           0       14.943577   -2.087300   -1.672661
    124          1           0       16.905357   -1.765458   -1.290609
    125          1           0       16.065033    1.398899    0.742628
    126          1           0       16.431053   -0.314615    1.184825
    127          1           0       18.262437   -0.402863   -0.444796
    128          1           0       17.871638    0.932432   -1.139812
    129          1           0       18.390037    2.188765    1.030090
    130          1           0       18.841704    0.536220    1.485205
    131          1           0       20.913465    0.550970   -0.126741
    132          1           0       20.238003    3.498907   -0.979196
    133          1           0       21.472243    2.650392   -1.239644
    134          1           0       19.941246    1.971622   -2.022843
    135          1           0       20.974094    1.221107    2.192513
    136          1           0       22.230325    2.325030    1.183165
    137          1           0       20.684488    2.992017    1.497364
 ---------------------------------------------------------------------

 SCF Done:  E(RCAM-B3LYP) =  -2933.45559625     A.U. after   16 cycles

 Excitation energies and oscillator strengths:

 Excited State   1:      Singlet-A      2.0360 eV  608.97 nm  f=0.2574  <S**2>=0.000
     240 -> 243       -0.24123
     241 -> 242        0.66180
 This state for optimization and/or second-order correction.
 Total Energy, E(TD-HF/TD-DFT) =  -2933.38077643
 Copying the excited state density for this state as the 1-particle RhoCI density.

 Excited State   2:      Singlet-A      2.3331 eV  531.42 nm  f=0.0085  <S**2>=0.000
     240 -> 242        0.56343
     241 -> 243        0.41178

 Excited State   3:      Singlet-A      3.0109 eV  411.79 nm  f=0.0212  <S**2>=0.000
     238 -> 242        0.59307
     238 -> 243        0.10698
     238 -> 244       -0.30941
     241 -> 243       -0.11784

 Excited State   4:      Singlet-A      3.1842 eV  389.38 nm  f=0.6420  <S**2>=0.000
     236 -> 242        0.15413
     238 -> 242        0.10350
     240 -> 242       -0.37315
     240 -> 244        0.15260
     241 -> 243        0.53089

 Excited State   5:      Singlet-A      3.4239 eV  362.11 nm  f=0.0921  <S**2>=0.000
     237 -> 242       -0.21109
     239 -> 242        0.57250
     240 -> 243        0.28959
     241 -> 242        0.11296

 Excited State   6:      Singlet-A      3.4421 eV  360.20 nm  f=0.5151  <S**2>=0.000
     237 -> 242       -0.18884
     239 -> 242       -0.36986
     240 -> 243        0.47263
     241 -> 242        0.18191
     241 -> 244       -0.22447

 Excited State   7:      Singlet-A      3.4972 eV  354.52 nm  f=0.0667  <S**2>=0.000
     236 -> 242        0.47584
     237 -> 242       -0.39376
     238 -> 242       -0.13241
     240 -> 243       -0.10324
     241 -> 244        0.21952

 Excited State   8:      Singlet-A      3.6213 eV  342.38 nm  f=0.1132  <S**2>=0.000
     236 -> 242        0.46124
     237 -> 242        0.41258
     240 -> 242        0.11421
     241 -> 244       -0.25687

 Excited State   9:      Singlet-A      3.6814 eV  336.78 nm  f=0.3183  <S**2>=0.000
     237 -> 242        0.23914
     240 -> 243        0.32470
     241 -> 242        0.10323
     241 -> 244        0.54724

 Excited State  10:      Singlet-A      3.9579 eV  313.26 nm  f=0.2844  <S**2>=0.000
     240 -> 244        0.63637
     241 -> 243       -0.13450
     241 -> 245       -0.15355

 The electronic state is 1-A.
 Alpha  occ. eigenvalues --  -46.79937 -19.23834 -19.22958 -19.16726 -19.15250
 Alpha  occ. eigenvalues --  -19.14128 -14.37215 -14.35462 -14.35076 -14.34598
 Alpha  occ. eigenvalues --  -10.34876 -10.33279 -10.30045 -10.29246 -10.28103
 Alpha  occ. eigenvalues --  -10.25876 -10.25638 -10.25240 -10.24681 -10.24670
 Alpha  occ. eigenvalues --  -10.24413 -10.24306 -10.24190 -10.23947 -10.23899
 Alpha  occ. eigenvalues --  -10.23460 -10.23345 -10.22997 -10.22907 -10.22829
 Alpha  occ. eigenvalues --  -10.22771 -10.22697 -10.22628 -10.22614 -10.22576
 Alpha  occ. eigenvalues --  -10.22521 -10.22513 -10.22282 -10.22236 -10.22097
 Alpha  occ. eigenvalues --  -10.21977 -10.21873 -10.21817 -10.21769 -10.21692
 Alpha  occ. eigenvalues --  -10.21536 -10.21514 -10.21484 -10.21444 -10.21268
 Alpha  occ. eigenvalues --  -10.21252 -10.21191 -10.21175 -10.21132 -10.20834
 Alpha  occ. eigenvalues --  -10.20662 -10.20656 -10.20593 -10.20546 -10.20484
 Alpha  occ. eigenvalues --  -10.20346 -10.20345 -10.20039 -10.19869 -10.18601
 Alpha  occ. eigenvalues --   -3.08517  -1.83467  -1.82975  -1.82925  -1.16624
 Alpha  occ. eigenvalues --   -1.15522  -1.05203  -1.01851  -1.00664  -0.99658
 Alpha  occ. eigenvalues --   -0.98772  -0.97954  -0.97113  -0.86553  -0.86243
 Alpha  occ. eigenvalues --   -0.85671  -0.84651  -0.84335  -0.84169  -0.83825
 Alpha  occ. eigenvalues --   -0.83404  -0.83250  -0.82725  -0.82460  -0.81628
 Alpha  occ. eigenvalues --   -0.80340  -0.79520  -0.78658  -0.78451  -0.77709
 Alpha  occ. eigenvalues --   -0.77546  -0.77106  -0.76128  -0.75531  -0.73671
 Alpha  occ. eigenvalues --   -0.72591  -0.71834  -0.71659  -0.70971  -0.70429
 Alpha  occ. eigenvalues --   -0.70271  -0.69920  -0.69297  -0.68908  -0.67986
 Alpha  occ. eigenvalues --   -0.67256  -0.66383  -0.65794  -0.64557  -0.63244
 Alpha  occ. eigenvalues --   -0.62937  -0.62413  -0.61313  -0.60828  -0.60703
 Alpha  occ. eigenvalues --   -0.60007  -0.59869  -0.59629  -0.59528  -0.58488
 Alpha  occ. eigenvalues --   -0.58323  -0.56809  -0.55756  -0.55554  -0.54784
 Alpha  occ. eigenvalues --   -0.54635  -0.53941  -0.53596  -0.53403  -0.53239
 Alpha  occ. eigenvalues --   -0.51929  -0.51370  -0.51117  -0.50970  -0.50895
 Alpha  occ. eigenvalues --   -0.50771  -0.50423  -0.50268  -0.49835  -0.49526
 Alpha  occ. eigenvalues --   -0.49312  -0.48859  -0.48695  -0.48441  -0.48001
 Alpha  occ. eigenvalues --   -0.47721  -0.47429  -0.47423  -0.47151  -0.46955
 Alpha  occ. eigenvalues --   -0.46782  -0.46492  -0.46128  -0.46020  -0.45789
 Alpha  occ. eigenvalues --   -0.45570  -0.45381  -0.45178  -0.44992  -0.44539
 Alpha  occ. eigenvalues --   -0.44523  -0.44289  -0.44165  -0.44084  -0.43926
 Alpha  occ. eigenvalues --   -0.43534  -0.43224  -0.43121  -0.42772  -0.42616
 Alpha  occ. eigenvalues --   -0.42181  -0.42104  -0.41931  -0.41778  -0.41426
 Alpha  occ. eigenvalues --   -0.41079  -0.40834  -0.40659  -0.40648  -0.40635
 Alpha  occ. eigenvalues --   -0.40484  -0.40373  -0.40116  -0.39912  -0.39560
 Alpha  occ. eigenvalues --   -0.39335  -0.39213  -0.39132  -0.39029  -0.38703
 Alpha  occ. eigenvalues --   -0.38424  -0.38045  -0.37670  -0.37470  -0.37402
 Alpha  occ. eigenvalues --   -0.37310  -0.37052  -0.36889  -0.36803  -0.36756
 Alpha  occ. eigenvalues --   -0.36422  -0.36289  -0.36224  -0.35918  -0.35560
 Alpha  occ. eigenvalues --   -0.35512  -0.35428  -0.35200  -0.35096  -0.34617
 Alpha  occ. eigenvalues --   -0.34228  -0.34062  -0.34012  -0.33998  -0.33391
 Alpha  occ. eigenvalues --   -0.33380  -0.33247  -0.32725  -0.32591  -0.32372
 Alpha  occ. eigenvalues --   -0.32308  -0.31984  -0.31317  -0.30463  -0.29990
 Alpha  occ. eigenvalues --   -0.29474  -0.29311  -0.28596  -0.28103  -0.27229
 Alpha  occ. eigenvalues --   -0.26338  -0.25784  -0.25493  -0.25338  -0.21300
 Alpha  occ. eigenvalues --   -0.19287
 Alpha virt. eigenvalues --   -0.06404  -0.03312  -0.00201   0.02725   0.03892
 Alpha virt. eigenvalues --    0.03997   0.04592   0.05518   0.05784   0.05999
 Alpha virt. eigenvalues --    0.06920   0.08633   0.09359   0.09568   0.09890

 Mulliken charges:
               1
     1  Mg   0.817124
     2  C    0.081032
     3  C   -0.079232
     4  C   -0.173435
     5  C   -0.150591
     6  N   -0.634769
     7  C    0.325487
     8  C   -0.193002
     9  C   -0.135694
    10  C    0.299219
    11  C   -0.326422
    12  C   -0.145711
    13  C   -0.264494
    14  C    0.570444
    15  O   -0.516497
    16  O   -0.401138
    17  N   -0.694505
    18  C    0.284652
    19  C    0.068923
    20  C    0.003531
    21  C    0.285168
    22  C   -0.379396
    23  C   -0.089814
    24  C   -0.244406
    25  N   -0.696887
    26  C    0.295435
    27  C    0.012305
    28  C   -0.045018
    29  C    0.314225
    30  C   -0.359829
    31  C   -0.192954
    32  C   -0.287555
    33  N   -0.754120
    34  C    0.276462
    35  C    0.027895
    36  C   -0.022274
    37  C    0.355952
    38  C   -0.372737
    39  C    0.335136
    40  O   -0.502645
    41  C   -0.334507
    42  C    0.641738
    43  O   -0.475324
    44  O   -0.394035
    45  C   -0.099834
    46  C    0.010003
    47  C   -0.147486
    48  C    0.116195
    49  C   -0.362195
    50  C   -0.223590
    51  C   -0.176412
    52  C   -0.168755
    53  C   -0.053234
    54  C   -0.305883
    55  C   -0.173635
    56  C   -0.166570
    57  C   -0.180000
    58  C   -0.067074
    59  C   -0.292201
    60  C   -0.191909
    61  C   -0.182089
    62  C   -0.153242
    63  C   -0.059724
    64  C   -0.319434
    65  C   -0.305432
    66  H    0.020205
    67  H    0.076486
    68  H    0.085956
    69  H    0.129934
    70  H    0.101606
    71  H    0.106431
    72  H    0.109308
    73  H    0.118738
    74  H    0.106379
    75  H    0.126717
    76  H    0.117867
    77  H    0.121789
    78  H    0.098157
    79  H    0.129779
    80  H    0.102501
    81  H    0.102862
    82  H    0.096544
    83  H    0.103238
    84  H    0.124968
    85  H    0.098514
    86  H    0.144038
    87  H    0.050897
    88  H    0.103582
    89  H    0.129340
    90  H    0.113523
    91  H    0.090170
    92  H    0.137402
    93  H    0.147392
    94  H    0.125608
    95  H    0.150524
    96  H    0.129557
    97  H    0.135618
    98  H    0.121617
    99  H    0.138307
   100  H    0.130234
   101  H    0.086907
   102  H    0.119117
   103  H    0.113999
   104  H    0.119770
   105  H    0.097664
   106  H    0.095226
   107  H    0.100646
   108  H    0.102009
   109  H    0.061692
   110  H    0.102277
   111  H    0.075567
   112  H    0.099386
   113  H    0.080751
   114  H    0.099994
   115  H    0.075829
   116  H    0.093294
   117  H    0.088772
   118  H    0.089677
   119  H    0.091128
   120  H    0.090652
   121  H    0.081810
   122  H    0.111975
   123  H    0.103424
   124  H    0.073067
   125  H    0.064172
   126  H    0.085635
   127  H    0.098916
   128  H    0.097919
   129  H    0.106188
   130  H    0.089767
   131  H    0.109343
   132  H    0.067032
   133  H    0.107785
   134  H    0.093540
   135  H    0.093275
   136  H    0.080345
   137  H    0.100426
 Sum of Mulliken charges =  -0.00000

 Dipole moment (field-independent basis, Debye):
    X=              2.2650    Y=              3.2605    Z=              1.3528  Tot=              4.1942
 Quadrupole moment (field-independent basis, Debye-Ang):
   XX=           -346.4976   YY=           -393.7736   ZZ=           -398.0376
   XY=            -24.3577   XZ=             10.1426   YZ=             -7.8495

 Normal termination of Gaussian 16 at Tue Oct 22 04:05:56 2019.
