 Gaussian 16, Revision A.03,
 Gaussian 16:  ES64L-G16RevA.03 25-Dec-2016

 ----------------------------------------------------------------------
 # td=(NStates=10) iop(3/107=0140000000,3/108=0140000000) CAM-B3LYP/6-3
 1G(d,p)
 ----------------------------------------------------------------------

 --
 TD
 --
 Symbolic Z-matrix:
 Charge =  0 Multiplicity = 1

                         Standard orientation:
 ---------------------------------------------------------------------
 Center     Atomic      Atomic             Coordinates (Angstroms)
 Number     Number       Type             X           Y           Z
 ---------------------------------------------------------------------
      1         12           0       -7.147167    0.656852    0.080083
      2          6           0       -4.849872   -1.977353    0.529563
      3          6           0       -4.714245    2.815302    1.093793
      4          6           0       -9.274927    3.213789   -0.316576
      5          6           0       -9.567344   -1.719831   -0.825445
      6          7           0       -5.096872    0.401885    0.852358
      7          6           0       -4.358042   -0.753201    0.884059
      8          6           0       -2.915334   -0.418270    1.272846
      9          6           0       -2.987023    1.082758    1.731370
     10          6           0       -4.392033    1.500611    1.215782
     11          6           0       -2.877985    1.155608    3.175306
     12          6           0       -1.954145   -0.651860    0.140078
     13          6           0       -0.507190   -0.577420    0.532292
     14          6           0        0.467623   -0.851278   -0.566682
     15          8           0        0.131722   -1.079675   -1.690362
     16          8           0        1.781238   -0.554063   -0.185961
     17          7           0       -7.035226    2.624025    0.440983
     18          6           0       -5.960661    3.348012    0.762449
     19          6           0       -6.316997    4.783630    0.827226
     20          6           0       -7.632060    4.812632    0.428276
     21          6           0       -8.094007    3.498819    0.174213
     22          6           0       -5.484353    5.860513    1.364607
     23          6           0       -8.456995    5.994621    0.353173
     24          6           0       -8.063590    7.232166   -0.033834
     25          7           0       -9.068156    0.676999   -0.481801
     26          6           0       -9.780044    1.830239   -0.599358
     27          6           0      -11.124030    1.592043   -1.143083
     28          6           0      -11.270047    0.210569   -1.262238
     29          6           0       -9.944169   -0.362436   -0.854560
     30          6           0      -12.180629    2.576021   -1.338501
     31          6           0      -12.424040   -0.692980   -1.674665
     32          6           0      -12.353290   -0.948160   -3.229627
     33          7           0       -7.242749   -1.367684   -0.160452
     34          6           0       -8.353985   -2.193126   -0.537173
     35          6           0       -7.972635   -3.508250   -0.481594
     36          6           0       -6.582056   -3.566458   -0.109097
     37          6           0       -6.206994   -2.144317    0.124408
     38          6           0       -8.710410   -4.764276   -0.836060
     39          6           0       -5.444518   -4.378381    0.079713
     40          8           0       -5.421961   -5.580479    0.191648
     41          6           0       -4.211316   -3.310253    0.506876
     42          6           0       -3.669380   -3.760363    1.792643
     43          8           0       -3.772973   -3.230649    2.874496
     44          8           0       -2.821315   -4.740114    1.616767
     45          6           0       -1.968387   -5.072861    2.852768
     46          6           0        2.766133   -0.677310   -1.173381
     47          6           0        4.123768   -0.533205   -0.573969
     48          6           0        5.103230    0.255180   -0.954225
     49          6           0        5.038579    1.129939   -2.169042
     50          6           0        6.401540    0.296503   -0.310638
     51          6           0        7.620091   -0.124682   -1.082830
     52          6           0        8.937708   -0.134579   -0.179191
     53          6           0       10.185957   -0.545721   -0.932279
     54          6           0       10.095100   -2.042142   -1.230553
     55          6           0       11.450526   -0.160624   -0.105220
     56          6           0       12.784593   -0.586660   -0.705072
     57          6           0       13.824869    0.018808    0.026406
     58          6           0       15.292599   -0.144465   -0.549015
     59          6           0       15.704686   -1.646490   -0.974462
     60          6           0       16.316925    0.486677    0.414230
     61          6           0       17.791277    0.621856   -0.268773
     62          6           0       18.814032    1.335370    0.778823
     63          6           0       20.235754    1.288015    0.413368
     64          6           0       20.442183    1.883441   -1.040663
     65          6           0       21.111220    2.003704    1.437256
     66          1           0       -4.001736    3.615712    1.369567
     67          1           0       -9.849364    4.043912   -0.304833
     68          1           0      -10.273839   -2.490746   -1.115077
     69          1           0       -2.695127   -1.102442    2.033552
     70          1           0       -2.180531    1.692199    1.209098
     71          1           0       -1.678632    1.010407    3.394854
     72          1           0       -3.409561    2.010937    3.788272
     73          1           0       -3.432916    0.107282    3.578064
     74          1           0       -2.015203   -1.763480   -0.283148
     75          1           0       -2.135347   -0.071992   -0.803352
     76          1           0        0.010710    0.360927    1.041723
     77          1           0       -0.293542   -1.219075    1.351355
     78          1           0       -4.793646    6.301566    0.701112
     79          1           0       -6.213461    6.631622    1.664396
     80          1           0       -4.938905    5.669293    2.268302
     81          1           0       -9.441274    5.886522    0.545169
     82          1           0       -8.926280    7.863475    0.014111
     83          1           0       -7.075577    7.498623   -0.174699
     84          1           0      -11.886445    3.026829   -2.389526
     85          1           0      -13.278101    2.106151   -1.401809
     86          1           0      -12.254075    3.100077   -0.634851
     87          1           0      -12.415918   -1.554614   -1.180392
     88          1           0      -13.398104   -0.280123   -1.255297
     89          1           0      -13.143667   -1.878959   -3.618762
     90          1           0      -12.404074    0.171412   -3.618033
     91          1           0      -11.240107   -1.293581   -3.445362
     92          1           0       -9.303048   -4.563028   -1.840746
     93          1           0       -8.045246   -5.502128   -0.828702
     94          1           0       -9.521575   -5.032376   -0.068770
     95          1           0       -3.191973   -3.495725   -0.127220
     96          1           0       -1.328862   -4.386810    3.117580
     97          1           0       -2.762590   -5.263057    3.760581
     98          1           0       -1.470559   -6.093178    2.631417
     99          1           0        2.466109   -1.662524   -1.503651
    100          1           0        2.549730   -0.033991   -1.991750
    101          1           0        4.159853   -0.939941    0.490035
    102          1           0        3.934345    1.033099   -2.561612
    103          1           0        5.502611    2.087558   -2.085268
    104          1           0        5.367277    0.619580   -3.073936
    105          1           0        6.538243    1.426295   -0.071339
    106          1           0        6.292774   -0.192522    0.675338
    107          1           0        7.484451   -1.172281   -1.451390
    108          1           0        7.700942    0.548388   -1.967405
    109          1           0        9.248118    0.915658    0.107755
    110          1           0        8.998200   -0.785601    0.668538
    111          1           0       10.238296    0.144782   -1.887327
    112          1           0        9.425546   -2.309645   -2.102345
    113          1           0       11.062440   -2.505156   -1.519167
    114          1           0        9.647223   -2.500862   -0.046636
    115          1           0       11.426242    0.941879    0.161964
    116          1           0       11.352828   -0.677655    0.816707
    117          1           0       12.865928   -1.589602   -0.816063
    118          1           0       12.663012   -0.104072   -1.630416
    119          1           0       13.630302    1.076338    0.239724
    120          1           0       13.855182   -0.493114    1.024724
    121          1           0       15.313892    0.463021   -1.425814
    122          1           0       15.764218   -2.298430   -0.017892
    123          1           0       14.776177   -2.018514   -1.727606
    124          1           0       16.652035   -1.414677   -1.564632
    125          1           0       15.873494    1.318425    0.737532
    126          1           0       16.400650   -0.243774    1.339156
    127          1           0       18.163055   -0.331629   -0.214705
    128          1           0       17.898128    1.187269   -1.236976
    129          1           0       18.591407    2.468039    0.801922
    130          1           0       18.825930    0.793875    1.669994
    131          1           0       20.438519    0.085917    0.448768
    132          1           0       20.361085    3.095333   -0.990283
    133          1           0       21.600205    1.829664   -1.132160
    134          1           0       19.892691    1.372780   -1.782702
    135          1           0       20.984426    1.592840    2.535600
    136          1           0       22.345862    1.805398    1.337881
    137          1           0       20.956512    3.134021    1.273222
 ---------------------------------------------------------------------

 SCF Done:  E(RCAM-B3LYP) =  -2933.48516028     A.U. after   15 cycles

 Excitation energies and oscillator strengths:

 Excited State   1:      Singlet-A      2.2344 eV  554.89 nm  f=0.2069  <S**2>=0.000
     240 -> 242        0.14475
     240 -> 243        0.26233
     241 -> 242        0.62981
 This state for optimization and/or second-order correction.
 Total Energy, E(TD-HF/TD-DFT) =  -2933.40304746
 Copying the excited state density for this state as the 1-particle RhoCI density.

 Excited State   2:      Singlet-A      2.4507 eV  505.90 nm  f=0.0262  <S**2>=0.000
     240 -> 242        0.57074
     241 -> 242       -0.15452
     241 -> 243       -0.36374

 Excited State   3:      Singlet-A      3.1882 eV  388.89 nm  f=0.3248  <S**2>=0.000
     238 -> 242        0.17051
     239 -> 242        0.35416
     240 -> 242        0.24919
     240 -> 243       -0.13398
     241 -> 243        0.47125

 Excited State   4:      Singlet-A      3.2403 eV  382.64 nm  f=0.1334  <S**2>=0.000
     236 -> 242        0.18708
     237 -> 242        0.37891
     237 -> 243       -0.10391
     237 -> 244       -0.16032
     238 -> 242        0.33478
     239 -> 242        0.19522
     240 -> 242       -0.16679
     241 -> 243       -0.25429

 Excited State   5:      Singlet-A      3.3574 eV  369.28 nm  f=0.0025  <S**2>=0.000
     237 -> 242       -0.29051
     238 -> 242        0.54509
     238 -> 243        0.11934
     239 -> 242       -0.24226

 Excited State   6:      Singlet-A      3.3878 eV  365.97 nm  f=0.2872  <S**2>=0.000
     237 -> 242       -0.36124
     239 -> 242        0.46500
     240 -> 242       -0.19588
     240 -> 243       -0.14843
     241 -> 243       -0.22063

 Excited State   7:      Singlet-A      3.4858 eV  355.68 nm  f=0.9273  <S**2>=0.000
     237 -> 242       -0.15837
     239 -> 242        0.15539
     240 -> 243        0.59886
     241 -> 242       -0.25647

 Excited State   8:      Singlet-A      3.6253 eV  342.00 nm  f=0.1554  <S**2>=0.000
     236 -> 242        0.63563
     237 -> 242       -0.18572
     238 -> 243        0.10597
     240 -> 242        0.10989

 Excited State   9:      Singlet-A      3.9215 eV  316.16 nm  f=0.0026  <S**2>=0.000
     236 -> 243        0.20941
     237 -> 243       -0.24308
     239 -> 243        0.59459

 Excited State  10:      Singlet-A      4.0348 eV  307.29 nm  f=0.0654  <S**2>=0.000
     234 -> 242        0.13498
     240 -> 244       -0.11944
     241 -> 244        0.63790
     241 -> 245        0.11108

 The electronic state is 1-A.
 Alpha  occ. eigenvalues --  -46.79482 -19.21106 -19.20669 -19.17195 -19.15367
 Alpha  occ. eigenvalues --  -19.14544 -14.37007 -14.35935 -14.35160 -14.34788
 Alpha  occ. eigenvalues --  -10.34318 -10.32462 -10.29735 -10.27635 -10.26308
 Alpha  occ. eigenvalues --  -10.25969 -10.25962 -10.25938 -10.25673 -10.24827
 Alpha  occ. eigenvalues --  -10.24588 -10.24524 -10.24184 -10.24013 -10.23925
 Alpha  occ. eigenvalues --  -10.23510 -10.23426 -10.23350 -10.23188 -10.23140
 Alpha  occ. eigenvalues --  -10.23127 -10.23097 -10.23019 -10.22934 -10.22820
 Alpha  occ. eigenvalues --  -10.22507 -10.22379 -10.22312 -10.22279 -10.22261
 Alpha  occ. eigenvalues --  -10.22240 -10.22222 -10.22117 -10.22093 -10.22052
 Alpha  occ. eigenvalues --  -10.21948 -10.21909 -10.21726 -10.21720 -10.21658
 Alpha  occ. eigenvalues --  -10.21505 -10.21492 -10.21431 -10.21391 -10.21194
 Alpha  occ. eigenvalues --  -10.21188 -10.21176 -10.21113 -10.21060 -10.20854
 Alpha  occ. eigenvalues --  -10.20419 -10.20282 -10.20103 -10.19926 -10.18421
 Alpha  occ. eigenvalues --   -3.08168  -1.83107  -1.82661  -1.82554  -1.12659
 Alpha  occ. eigenvalues --   -1.12609  -1.05736  -1.05358  -1.02189  -0.99409
 Alpha  occ. eigenvalues --   -0.98345  -0.97654  -0.96561  -0.87123  -0.86899
 Alpha  occ. eigenvalues --   -0.86088  -0.85717  -0.85296  -0.84330  -0.84256
 Alpha  occ. eigenvalues --   -0.83452  -0.83206  -0.83102  -0.82406  -0.81319
 Alpha  occ. eigenvalues --   -0.80340  -0.79941  -0.79316  -0.79066  -0.78329
 Alpha  occ. eigenvalues --   -0.76550  -0.76317  -0.75371  -0.74404  -0.74147
 Alpha  occ. eigenvalues --   -0.73203  -0.72452  -0.71383  -0.71289  -0.70895
 Alpha  occ. eigenvalues --   -0.69876  -0.69587  -0.69219  -0.68787  -0.68194
 Alpha  occ. eigenvalues --   -0.67227  -0.65639  -0.64823  -0.64599  -0.64224
 Alpha  occ. eigenvalues --   -0.62997  -0.62819  -0.61360  -0.61032  -0.60833
 Alpha  occ. eigenvalues --   -0.60272  -0.58918  -0.58246  -0.57781  -0.57026
 Alpha  occ. eigenvalues --   -0.56929  -0.56754  -0.55975  -0.55575  -0.55385
 Alpha  occ. eigenvalues --   -0.54830  -0.54329  -0.54189  -0.52952  -0.52581
 Alpha  occ. eigenvalues --   -0.52350  -0.51922  -0.51595  -0.51301  -0.51013
 Alpha  occ. eigenvalues --   -0.50842  -0.50543  -0.49926  -0.49415  -0.49277
 Alpha  occ. eigenvalues --   -0.49177  -0.48578  -0.48551  -0.48515  -0.48005
 Alpha  occ. eigenvalues --   -0.47769  -0.47635  -0.47293  -0.47021  -0.46802
 Alpha  occ. eigenvalues --   -0.46735  -0.46481  -0.46407  -0.46033  -0.45780
 Alpha  occ. eigenvalues --   -0.45618  -0.45513  -0.45340  -0.45242  -0.44807
 Alpha  occ. eigenvalues --   -0.44604  -0.44257  -0.43849  -0.43711  -0.43582
 Alpha  occ. eigenvalues --   -0.43478  -0.43191  -0.43047  -0.42965  -0.42752
 Alpha  occ. eigenvalues --   -0.42593  -0.42477  -0.42063  -0.41784  -0.41664
 Alpha  occ. eigenvalues --   -0.41587  -0.41053  -0.40923  -0.40699  -0.40583
 Alpha  occ. eigenvalues --   -0.40418  -0.40365  -0.40287  -0.40109  -0.39731
 Alpha  occ. eigenvalues --   -0.39711  -0.39297  -0.39159  -0.38929  -0.38704
 Alpha  occ. eigenvalues --   -0.38612  -0.38562  -0.38352  -0.38175  -0.37925
 Alpha  occ. eigenvalues --   -0.37818  -0.37744  -0.37464  -0.37398  -0.36836
 Alpha  occ. eigenvalues --   -0.36628  -0.36571  -0.36364  -0.36243  -0.35588
 Alpha  occ. eigenvalues --   -0.35456  -0.35367  -0.35173  -0.35076  -0.34746
 Alpha  occ. eigenvalues --   -0.34556  -0.34021  -0.33848  -0.33611  -0.33394
 Alpha  occ. eigenvalues --   -0.33310  -0.32733  -0.32646  -0.32333  -0.32144
 Alpha  occ. eigenvalues --   -0.32081  -0.31715  -0.31459  -0.30665  -0.30567
 Alpha  occ. eigenvalues --   -0.30403  -0.29776  -0.28795  -0.28342  -0.26870
 Alpha  occ. eigenvalues --   -0.26481  -0.26026  -0.25702  -0.25469  -0.21959
 Alpha  occ. eigenvalues --   -0.20597
 Alpha virt. eigenvalues --   -0.06674  -0.04131   0.00178   0.02256   0.03765
 Alpha virt. eigenvalues --    0.04410   0.04628   0.04750   0.05626   0.06198
 Alpha virt. eigenvalues --    0.06675   0.08425   0.09220   0.09291   0.09830

 Mulliken charges:
               1
     1  Mg   0.810790
     2  C    0.140847
     3  C   -0.192061
     4  C   -0.137446
     5  C   -0.166767
     6  N   -0.639553
     7  C    0.307548
     8  C   -0.150530
     9  C   -0.125740
    10  C    0.353227
    11  C   -0.284661
    12  C   -0.177666
    13  C   -0.268292
    14  C    0.607517
    15  O   -0.451748
    16  O   -0.502076
    17  N   -0.750144
    18  C    0.323503
    19  C    0.033343
    20  C    0.023343
    21  C    0.344359
    22  C   -0.402604
    23  C   -0.109904
    24  C   -0.210804
    25  N   -0.689329
    26  C    0.293783
    27  C   -0.016082
    28  C    0.027910
    29  C    0.254497
    30  C   -0.328330
    31  C   -0.225361
    32  C   -0.286498
    33  N   -0.758496
    34  C    0.314146
    35  C    0.023708
    36  C    0.022028
    37  C    0.302948
    38  C   -0.362227
    39  C    0.326351
    40  O   -0.450591
    41  C   -0.396473
    42  C    0.644322
    43  O   -0.497362
    44  O   -0.450035
    45  C   -0.090800
    46  C    0.034656
    47  C   -0.145821
    48  C    0.165199
    49  C   -0.375698
    50  C   -0.223405
    51  C   -0.169472
    52  C   -0.150656
    53  C   -0.067276
    54  C   -0.279256
    55  C   -0.188879
    56  C   -0.150361
    57  C   -0.175989
    58  C   -0.071740
    59  C   -0.302448
    60  C   -0.159853
    61  C   -0.195384
    62  C   -0.143803
    63  C   -0.043621
    64  C   -0.307432
    65  C   -0.287861
    66  H    0.075876
    67  H    0.063287
    68  H    0.091194
    69  H    0.124098
    70  H    0.103465
    71  H    0.085618
    72  H    0.105497
    73  H    0.104410
    74  H    0.102952
    75  H    0.121738
    76  H    0.122944
    77  H    0.136666
    78  H    0.130627
    79  H    0.119906
    80  H    0.125459
    81  H    0.091679
    82  H    0.100199
    83  H    0.103994
    84  H    0.113362
    85  H    0.092781
    86  H    0.122196
    87  H    0.116111
    88  H    0.092915
    89  H    0.082030
    90  H    0.107202
    91  H    0.105087
    92  H    0.102733
    93  H    0.153305
    94  H    0.117661
    95  H    0.145469
    96  H    0.145791
    97  H    0.130279
    98  H    0.123498
    99  H    0.112788
   100  H    0.111986
   101  H    0.081814
   102  H    0.087882
   103  H    0.121921
   104  H    0.129632
   105  H    0.080275
   106  H    0.090272
   107  H    0.101415
   108  H    0.096961
   109  H    0.079004
   110  H    0.093733
   111  H    0.062283
   112  H    0.108261
   113  H    0.102519
   114  H    0.047078
   115  H    0.081315
   116  H    0.087335
   117  H    0.103870
   118  H    0.092315
   119  H    0.083914
   120  H    0.074056
   121  H    0.085172
   122  H    0.099633
   123  H    0.075000
   124  H    0.111626
   125  H    0.100349
   126  H    0.067395
   127  H    0.112308
   128  H    0.094971
   129  H    0.068551
   130  H    0.091388
   131  H    0.051313
   132  H    0.079873
   133  H    0.095280
   134  H    0.117020
   135  H    0.095070
   136  H    0.071244
   137  H    0.099659
 Sum of Mulliken charges =  -0.00000

 Dipole moment (field-independent basis, Debye):
    X=              1.0379    Y=              5.9650    Z=              0.2714  Tot=              6.0607
 Quadrupole moment (field-independent basis, Debye-Ang):
   XX=           -342.0514   YY=           -393.0249   ZZ=           -400.9529
   XY=            -30.4017   XZ=              5.2177   YZ=             -1.1068

 Normal termination of Gaussian 16 at Tue Oct 22 20:43:39 2019.
