 Gaussian 16, Revision A.03,
 Gaussian 16:  ES64L-G16RevA.03 25-Dec-2016

 ----------------------------------------------------------------------
 # td=(NStates=10) iop(3/107=0140000000,3/108=0140000000) CAM-B3LYP/6-3
 1G(d,p)
 ----------------------------------------------------------------------

 --
 TD
 --
 Symbolic Z-matrix:
 Charge =  0 Multiplicity = 1

                         Standard orientation:
 ---------------------------------------------------------------------
 Center     Atomic      Atomic             Coordinates (Angstroms)
 Number     Number       Type             X           Y           Z
 ---------------------------------------------------------------------
      1         12           0       -7.114227    0.657628    0.104525
      2          6           0       -4.836146   -1.963240    0.537842
      3          6           0       -4.869898    2.902106    1.221483
      4          6           0       -9.405528    2.967515   -0.332468
      5          6           0       -9.552664   -1.785597   -0.819155
      6          7           0       -5.117471    0.427965    0.766395
      7          6           0       -4.367741   -0.711284    0.832794
      8          6           0       -2.928368   -0.339814    1.114920
      9          6           0       -3.024345    1.136445    1.657968
     10          6           0       -4.469696    1.513367    1.161523
     11          6           0       -2.758868    1.313357    3.117095
     12          6           0       -1.906262   -0.520982    0.123071
     13          6           0       -0.475643   -0.265949    0.530354
     14          6           0        0.481887   -0.668181   -0.526932
     15          8           0        0.273625   -1.017004   -1.645603
     16          8           0        1.795601   -0.473463   -0.030170
     17          7           0       -7.107217    2.688842    0.348746
     18          6           0       -6.063689    3.395460    0.876841
     19          6           0       -6.503718    4.855500    0.784280
     20          6           0       -7.844420    4.826561    0.411140
     21          6           0       -8.161028    3.425466    0.095603
     22          6           0       -5.585504    5.978071    1.423854
     23          6           0       -8.721807    5.915975    0.276100
     24          6           0       -8.270969    7.200213    0.070359
     25          7           0       -9.079839    0.583464   -0.511567
     26          6           0       -9.819837    1.741284   -0.628833
     27          6           0      -11.149386    1.468894   -1.122003
     28          6           0      -11.220842    0.132100   -1.268759
     29          6           0       -9.882469   -0.407272   -0.975986
     30          6           0      -12.189958    2.454030   -1.393637
     31          6           0      -12.419253   -0.797448   -1.673845
     32          6           0      -12.346652   -1.276660   -3.098591
     33          7           0       -7.271389   -1.379621   -0.178470
     34          6           0       -8.265603   -2.233015   -0.636314
     35          6           0       -7.845155   -3.598205   -0.568193
     36          6           0       -6.478558   -3.460509   -0.184322
     37          6           0       -6.151687   -2.130698    0.003521
     38          6           0       -8.650193   -4.778724   -0.903273
     39          6           0       -5.173483   -4.295339    0.102112
     40          8           0       -5.086625   -5.488247    0.045512
     41          6           0       -4.216592   -3.300471    0.520415
     42          6           0       -3.542606   -3.641439    1.864138
     43          8           0       -3.734901   -3.163642    2.895670
     44          8           0       -2.778579   -4.782153    1.795773
     45          6           0       -2.299529   -5.295119    2.981513
     46          6           0        2.785932   -0.788221   -1.077056
     47          6           0        4.232047   -0.572772   -0.592813
     48          6           0        5.179426    0.255252   -1.036796
     49          6           0        5.005396    1.248824   -2.150947
     50          6           0        6.400852    0.323526   -0.136618
     51          6           0        7.624344   -0.069226   -0.972564
     52          6           0        8.873746   -0.201138   -0.134225
     53          6           0       10.100975   -0.683648   -0.800609
     54          6           0       10.128739   -2.071302   -1.245694
     55          6           0       11.393079   -0.281623   -0.039720
     56          6           0       12.726883   -0.431768   -0.748832
     57          6           0       14.010775   -0.081250    0.215733
     58          6           0       15.341489   -0.208711   -0.508271
     59          6           0       15.720562   -1.705258   -0.706250
     60          6           0       16.387019    0.448202    0.415983
     61          6           0       17.802026    0.470231   -0.145039
     62          6           0       18.818285    1.189623    0.659940
     63          6           0       20.242738    1.341025    0.114406
     64          6           0       20.330271    2.396604   -1.103453
     65          6           0       21.294203    1.810428    1.165578
     66          1           0       -4.156513    3.564730    1.598318
     67          1           0      -10.009681    3.772934   -0.468566
     68          1           0      -10.433392   -2.670347   -1.204402
     69          1           0       -2.589727   -0.939969    2.009442
     70          1           0       -2.094998    1.719168    1.046652
     71          1           0       -1.853476    1.150980    3.315167
     72          1           0       -2.877739    2.402121    3.427977
     73          1           0       -3.497944    0.807079    3.754350
     74          1           0       -1.996865   -1.518928   -0.276511
     75          1           0       -2.233547    0.277042   -0.683123
     76          1           0       -0.328340    0.888342    0.663068
     77          1           0       -0.245347   -0.626022    1.618058
     78          1           0       -5.289875    6.461409    0.634818
     79          1           0       -6.179142    6.735934    1.697851
     80          1           0       -4.822258    5.635318    2.057267
     81          1           0       -9.834199    5.640635    0.365942
     82          1           0       -8.876507    7.935033    0.061120
     83          1           0       -7.213371    7.200911   -0.133062
     84          1           0      -11.928056    2.945954   -2.442081
     85          1           0      -13.230670    2.174814   -1.180928
     86          1           0      -12.036249    3.388865   -0.562995
     87          1           0      -12.440423   -1.743982   -0.907276
     88          1           0      -13.343624   -0.485865   -1.593444
     89          1           0      -13.129711   -1.803486   -3.388966
     90          1           0      -12.275093   -0.415194   -3.863172
     91          1           0      -11.508128   -1.941465   -3.199685
     92          1           0       -9.054920   -4.806215   -1.921538
     93          1           0       -8.128347   -5.679156   -0.510722
     94          1           0       -9.708081   -4.959407   -0.607652
     95          1           0       -3.466519   -3.312478   -0.326423
     96          1           0       -1.474827   -4.563943    3.295170
     97          1           0       -3.072207   -5.270482    3.664070
     98          1           0       -1.853298   -6.355970    2.912007
     99          1           0        2.532281   -1.904715   -1.155423
    100          1           0        2.570932   -0.229420   -2.022169
    101          1           0        4.405590   -1.039366    0.398143
    102          1           0        3.915139    1.741144   -2.295670
    103          1           0        5.775000    2.145513   -1.883818
    104          1           0        5.452349    0.795035   -3.174130
    105          1           0        6.648576    1.474572    0.093784
    106          1           0        6.325512   -0.262127    0.881270
    107          1           0        7.365395   -1.106490   -1.484696
    108          1           0        7.716356    0.527520   -1.891635
    109          1           0        8.955491    0.805764    0.177334
    110          1           0        8.706062   -0.920895    0.710430
    111          1           0       10.310364    0.124725   -1.730737
    112          1           0        9.213452   -2.124069   -1.946910
    113          1           0       11.158390   -2.431995   -1.478479
    114          1           0        9.857316   -2.703644   -0.325917
    115          1           0       11.467663    0.812040    0.387904
    116          1           0       11.428916   -0.874289    0.940597
    117          1           0       12.801668   -1.404815   -1.287448
    118          1           0       12.802406    0.191687   -1.517182
    119          1           0       13.814789    0.947664    0.573035
    120          1           0       13.767063   -0.696027    1.168936
    121          1           0       15.273882    0.279686   -1.485059
    122          1           0       15.989396   -2.057739    0.330509
    123          1           0       15.119700   -2.437047   -1.331943
    124          1           0       16.655102   -1.663803   -1.309905
    125          1           0       16.099755    1.547471    0.492539
    126          1           0       16.542671   -0.067022    1.421529
    127          1           0       18.195842   -0.445270   -0.479486
    128          1           0       17.799178    1.216955   -1.110784
    129          1           0       18.359391    2.276862    1.032750
    130          1           0       18.895896    0.349651    1.401148
    131          1           0       20.373101    0.349972   -0.145976
    132          1           0       19.966922    3.419409   -0.629342
    133          1           0       21.224188    2.291316   -1.650750
    134          1           0       19.496130    2.138523   -1.895379
    135          1           0       21.223430    1.214800    2.084420
    136          1           0       22.344547    1.563953    0.755018
    137          1           0       21.386913    2.934933    1.329041
 ---------------------------------------------------------------------

 SCF Done:  E(RCAM-B3LYP) =  -2933.48624012     A.U. after   16 cycles

 Excitation energies and oscillator strengths:

 Excited State   1:      Singlet-A      2.0572 eV  602.67 nm  f=0.2672  <S**2>=0.000
     240 -> 243        0.22147
     241 -> 242        0.66970
 This state for optimization and/or second-order correction.
 Total Energy, E(TD-HF/TD-DFT) =  -2933.41063778
 Copying the excited state density for this state as the 1-particle RhoCI density.

 Excited State   2:      Singlet-A      2.3993 eV  516.75 nm  f=0.0006  <S**2>=0.000
     240 -> 242        0.50862
     241 -> 243       -0.47829

 Excited State   3:      Singlet-A      3.1561 eV  392.84 nm  f=0.1405  <S**2>=0.000
     238 -> 242        0.60808
     240 -> 242       -0.19449
     241 -> 243       -0.25106

 Excited State   4:      Singlet-A      3.1789 eV  390.02 nm  f=0.0143  <S**2>=0.000
     239 -> 242        0.67774

 Excited State   5:      Singlet-A      3.3110 eV  374.46 nm  f=0.6829  <S**2>=0.000
     236 -> 242        0.22456
     238 -> 242        0.30786
     240 -> 242        0.39704
     241 -> 243        0.40141
     241 -> 244       -0.10069

 Excited State   6:      Singlet-A      3.4302 eV  361.45 nm  f=0.1245  <S**2>=0.000
     236 -> 242        0.60103
     236 -> 244        0.21723
     236 -> 245        0.10266
     240 -> 242       -0.15807
     241 -> 243       -0.16096

 Excited State   7:      Singlet-A      3.5578 eV  348.48 nm  f=0.2542  <S**2>=0.000
     237 -> 242        0.50398
     237 -> 243       -0.16577
     240 -> 243       -0.40571
     241 -> 242        0.13360
     241 -> 244        0.15210

 Excited State   8:      Singlet-A      3.6601 eV  338.75 nm  f=0.3946  <S**2>=0.000
     237 -> 242        0.46122
     240 -> 243        0.44158
     241 -> 242       -0.15495
     241 -> 244       -0.18739

 Excited State   9:      Singlet-A      3.7546 eV  330.22 nm  f=0.2257  <S**2>=0.000
     238 -> 243        0.10801
     240 -> 242        0.10112
     240 -> 243        0.21797
     241 -> 244        0.62817

 Excited State  10:      Singlet-A      4.0130 eV  308.96 nm  f=0.0324  <S**2>=0.000
     237 -> 243        0.21655
     238 -> 243        0.42257
     239 -> 243        0.40425
     241 -> 245        0.28282

 The electronic state is 1-A.
 Alpha  occ. eigenvalues --  -46.80111 -19.20626 -19.20558 -19.17863 -19.17658
 Alpha  occ. eigenvalues --  -19.16181 -14.38516 -14.35017 -14.34801 -14.34356
 Alpha  occ. eigenvalues --  -10.34905 -10.34762 -10.30333 -10.27460 -10.27410
 Alpha  occ. eigenvalues --  -10.26243 -10.26190 -10.25228 -10.25125 -10.25070
 Alpha  occ. eigenvalues --  -10.25054 -10.24629 -10.24619 -10.24491 -10.24182
 Alpha  occ. eigenvalues --  -10.23798 -10.23775 -10.23679 -10.23625 -10.23568
 Alpha  occ. eigenvalues --  -10.23395 -10.23258 -10.23203 -10.23150 -10.22957
 Alpha  occ. eigenvalues --  -10.22717 -10.22534 -10.22238 -10.22204 -10.22050
 Alpha  occ. eigenvalues --  -10.22047 -10.21879 -10.21874 -10.21808 -10.21802
 Alpha  occ. eigenvalues --  -10.21741 -10.21631 -10.21528 -10.21525 -10.21479
 Alpha  occ. eigenvalues --  -10.21357 -10.21301 -10.21256 -10.21241 -10.21128
 Alpha  occ. eigenvalues --  -10.21004 -10.20652 -10.20574 -10.20523 -10.20495
 Alpha  occ. eigenvalues --  -10.20416 -10.20343 -10.20094 -10.19677 -10.19575
 Alpha  occ. eigenvalues --   -3.08658  -1.83611  -1.83155  -1.83025  -1.15343
 Alpha  occ. eigenvalues --   -1.12229  -1.07212  -1.06371  -1.04033  -1.00254
 Alpha  occ. eigenvalues --   -0.99209  -0.98304  -0.97287  -0.89234  -0.86677
 Alpha  occ. eigenvalues --   -0.86467  -0.85427  -0.84940  -0.84694  -0.84226
 Alpha  occ. eigenvalues --   -0.83404  -0.82874  -0.82608  -0.81619  -0.81129
 Alpha  occ. eigenvalues --   -0.79978  -0.79583  -0.79003  -0.78598  -0.78010
 Alpha  occ. eigenvalues --   -0.77449  -0.76494  -0.75894  -0.75311  -0.74352
 Alpha  occ. eigenvalues --   -0.73561  -0.72711  -0.71963  -0.71022  -0.70845
 Alpha  occ. eigenvalues --   -0.70101  -0.69523  -0.69386  -0.68937  -0.68093
 Alpha  occ. eigenvalues --   -0.67448  -0.66169  -0.65421  -0.64354  -0.64096
 Alpha  occ. eigenvalues --   -0.63320  -0.61709  -0.60891  -0.60771  -0.60253
 Alpha  occ. eigenvalues --   -0.59663  -0.58701  -0.58350  -0.57623  -0.57305
 Alpha  occ. eigenvalues --   -0.56977  -0.56913  -0.56669  -0.56039  -0.55423
 Alpha  occ. eigenvalues --   -0.54675  -0.54581  -0.54205  -0.53851  -0.52953
 Alpha  occ. eigenvalues --   -0.52787  -0.51780  -0.51709  -0.51507  -0.51366
 Alpha  occ. eigenvalues --   -0.51108  -0.50733  -0.50241  -0.49786  -0.49686
 Alpha  occ. eigenvalues --   -0.49498  -0.49178  -0.48851  -0.48779  -0.48556
 Alpha  occ. eigenvalues --   -0.48005  -0.47770  -0.47627  -0.47086  -0.46965
 Alpha  occ. eigenvalues --   -0.46807  -0.46665  -0.46481  -0.46354  -0.45994
 Alpha  occ. eigenvalues --   -0.45881  -0.45664  -0.45530  -0.45243  -0.44953
 Alpha  occ. eigenvalues --   -0.44809  -0.44456  -0.44290  -0.44205  -0.44093
 Alpha  occ. eigenvalues --   -0.43803  -0.43581  -0.43042  -0.42929  -0.42721
 Alpha  occ. eigenvalues --   -0.42537  -0.42424  -0.42309  -0.42193  -0.41966
 Alpha  occ. eigenvalues --   -0.41679  -0.41449  -0.41016  -0.40942  -0.40575
 Alpha  occ. eigenvalues --   -0.40498  -0.40276  -0.39775  -0.39745  -0.39615
 Alpha  occ. eigenvalues --   -0.39535  -0.39474  -0.39240  -0.38956  -0.38868
 Alpha  occ. eigenvalues --   -0.38797  -0.38668  -0.38445  -0.38377  -0.37944
 Alpha  occ. eigenvalues --   -0.37493  -0.37483  -0.37467  -0.37265  -0.37053
 Alpha  occ. eigenvalues --   -0.36875  -0.36747  -0.36589  -0.36322  -0.35886
 Alpha  occ. eigenvalues --   -0.35677  -0.35645  -0.35131  -0.35090  -0.34908
 Alpha  occ. eigenvalues --   -0.34835  -0.34053  -0.33936  -0.33904  -0.33418
 Alpha  occ. eigenvalues --   -0.33268  -0.32946  -0.32842  -0.32262  -0.32103
 Alpha  occ. eigenvalues --   -0.31927  -0.31535  -0.31266  -0.31233  -0.30096
 Alpha  occ. eigenvalues --   -0.30088  -0.29960  -0.29924  -0.28752  -0.26977
 Alpha  occ. eigenvalues --   -0.26476  -0.26273  -0.25242  -0.24652  -0.22287
 Alpha  occ. eigenvalues --   -0.19463
 Alpha virt. eigenvalues --   -0.06632  -0.03628   0.00017   0.01675   0.02906
 Alpha virt. eigenvalues --    0.03261   0.04070   0.04834   0.05221   0.05527
 Alpha virt. eigenvalues --    0.06494   0.08296   0.08744   0.09397   0.09545

 Mulliken charges:
               1
     1  Mg   0.801880
     2  C    0.091961
     3  C   -0.177425
     4  C   -0.150645
     5  C   -0.162363
     6  N   -0.648656
     7  C    0.308177
     8  C   -0.168993
     9  C   -0.147705
    10  C    0.340428
    11  C   -0.290669
    12  C   -0.142863
    13  C   -0.270523
    14  C    0.628714
    15  O   -0.446347
    16  O   -0.514942
    17  N   -0.744958
    18  C    0.325477
    19  C   -0.049405
    20  C    0.018297
    21  C    0.347067
    22  C   -0.350962
    23  C   -0.089373
    24  C   -0.223353
    25  N   -0.676023
    26  C    0.350156
    27  C    0.071455
    28  C    0.019293
    29  C    0.258240
    30  C   -0.378612
    31  C   -0.224660
    32  C   -0.306799
    33  N   -0.710264
    34  C    0.256189
    35  C    0.054235
    36  C   -0.069935
    37  C    0.311329
    38  C   -0.403534
    39  C    0.390351
    40  O   -0.440321
    41  C   -0.324513
    42  C    0.610930
    43  O   -0.417359
    44  O   -0.448258
    45  C   -0.073315
    46  C    0.027587
    47  C   -0.140454
    48  C    0.167934
    49  C   -0.359775
    50  C   -0.218298
    51  C   -0.183823
    52  C   -0.140801
    53  C   -0.032949
    54  C   -0.302296
    55  C   -0.172075
    56  C   -0.189143
    57  C   -0.168965
    58  C   -0.050511
    59  C   -0.310381
    60  C   -0.159168
    61  C   -0.176926
    62  C   -0.152720
    63  C   -0.034730
    64  C   -0.311325
    65  C   -0.306530
    66  H    0.073795
    67  H    0.050460
    68  H    0.068077
    69  H    0.105299
    70  H    0.060968
    71  H    0.119536
    72  H    0.091561
    73  H    0.126743
    74  H    0.113495
    75  H    0.096941
    76  H    0.135605
    77  H    0.132230
    78  H    0.140447
    79  H    0.124871
    80  H    0.121173
    81  H    0.086041
    82  H    0.090277
    83  H    0.090180
    84  H    0.121090
    85  H    0.127091
    86  H    0.078106
    87  H    0.078152
    88  H    0.106798
    89  H    0.113524
    90  H    0.096326
    91  H    0.107252
    92  H    0.126809
    93  H    0.141443
    94  H    0.114385
    95  H    0.176545
    96  H    0.096627
    97  H    0.132118
    98  H    0.118033
    99  H    0.112470
   100  H    0.113398
   101  H    0.082753
   102  H    0.118664
   103  H    0.097765
   104  H    0.114624
   105  H    0.078141
   106  H    0.099232
   107  H    0.069839
   108  H    0.100988
   109  H    0.098198
   110  H    0.083417
   111  H    0.037272
   112  H    0.107186
   113  H    0.112441
   114  H    0.087813
   115  H    0.069535
   116  H    0.065258
   117  H    0.078147
   118  H    0.104224
   119  H    0.084625
   120  H    0.083047
   121  H    0.093330
   122  H    0.099397
   123  H    0.100535
   124  H    0.099000
   125  H    0.092029
   126  H    0.087234
   127  H    0.097620
   128  H    0.049034
   129  H    0.055249
   130  H    0.074687
   131  H    0.086868
   132  H    0.096269
   133  H    0.116985
   134  H    0.083319
   135  H    0.101687
   136  H    0.088059
   137  H    0.101611
 Sum of Mulliken charges =  -0.00000

 Dipole moment (field-independent basis, Debye):
    X=              1.2951    Y=              4.5815    Z=              0.4152  Tot=              4.7791
 Quadrupole moment (field-independent basis, Debye-Ang):
   XX=           -340.9001   YY=           -395.8159   ZZ=           -399.2280
   XY=            -22.2392   XZ=              6.5305   YZ=             -3.0719

 Normal termination of Gaussian 16 at Tue Oct 22 03:54:50 2019.
