 Gaussian 16, Revision A.03,
 Gaussian 16:  ES64L-G16RevA.03 25-Dec-2016

 ----------------------------------------------------------------------
 # td=(NStates=10) iop(3/107=0140000000,3/108=0140000000) CAM-B3LYP/6-3
 1G(d,p)
 ----------------------------------------------------------------------

 --
 TD
 --
 Symbolic Z-matrix:
 Charge =  0 Multiplicity = 1

                         Standard orientation:
 ---------------------------------------------------------------------
 Center     Atomic      Atomic             Coordinates (Angstroms)
 Number     Number       Type             X           Y           Z
 ---------------------------------------------------------------------
      1         12           0       -7.146900    0.510381    0.067511
      2          6           0       -4.859160   -2.048103    0.509443
      3          6           0       -4.834760    2.832844    1.194398
      4          6           0       -9.434809    3.141914   -0.308900
      5          6           0       -9.608759   -1.771737   -0.873355
      6          7           0       -5.077312    0.420710    0.729464
      7          6           0       -4.331072   -0.743161    0.768326
      8          6           0       -2.935595   -0.434355    1.087001
      9          6           0       -3.011295    1.134630    1.620769
     10          6           0       -4.471591    1.497253    1.090046
     11          6           0       -2.905861    1.295536    3.021793
     12          6           0       -1.915572   -0.676485    0.072071
     13          6           0       -0.477334   -0.596457    0.538672
     14          6           0        0.530796   -0.688896   -0.631642
     15          8           0        0.257662   -1.111850   -1.693469
     16          8           0        1.794479   -0.387267   -0.218242
     17          7           0       -7.173145    2.615101    0.390815
     18          6           0       -6.117088    3.311882    0.838079
     19          6           0       -6.439953    4.674449    0.954758
     20          6           0       -7.707821    4.867881    0.438774
     21          6           0       -8.155057    3.521247    0.104315
     22          6           0       -5.520142    5.821995    1.536713
     23          6           0       -8.564287    5.978626    0.328363
     24          6           0       -8.195307    7.236210    0.118522
     25          7           0       -9.170513    0.652461   -0.451811
     26          6           0       -9.864410    1.883366   -0.572253
     27          6           0      -11.279317    1.523625   -0.992974
     28          6           0      -11.299220    0.178309   -1.196921
     29          6           0       -9.985555   -0.428519   -0.806473
     30          6           0      -12.339871    2.622190   -1.360814
     31          6           0      -12.430541   -0.607703   -1.756119
     32          6           0      -12.260054   -0.922324   -3.218060
     33          7           0       -7.234326   -1.398924   -0.114876
     34          6           0       -8.312735   -2.239111   -0.576388
     35          6           0       -7.886681   -3.610740   -0.492925
     36          6           0       -6.501288   -3.632553    0.000129
     37          6           0       -6.219709   -2.212987    0.183211
     38          6           0       -8.695515   -4.780989   -1.017327
     39          6           0       -5.308940   -4.471045    0.175325
     40          8           0       -5.098704   -5.608766    0.051951
     41          6           0       -4.137802   -3.411065    0.450014
     42          6           0       -3.515563   -3.811421    1.781165
     43          8           0       -3.843377   -3.223994    2.875921
     44          8           0       -2.678179   -4.833777    1.732632
     45          6           0       -2.169190   -5.286089    3.002153
     46          6           0        2.774082   -0.552994   -1.102713
     47          6           0        4.156507   -0.409276   -0.438954
     48          6           0        4.998334    0.455989   -0.923612
     49          6           0        5.045652    1.400593   -2.085536
     50          6           0        6.421177    0.499564   -0.186374
     51          6           0        7.553880   -0.198068   -0.906651
     52          6           0        8.945094    0.005417   -0.080505
     53          6           0       10.260632   -0.529573   -0.892620
     54          6           0        9.997984   -2.008236   -1.304407
     55          6           0       11.513011   -0.278603   -0.111734
     56          6           0       12.877030   -0.458931   -0.855143
     57          6           0       13.979284   -0.072402    0.103718
     58          6           0       15.359486   -0.222088   -0.547864
     59          6           0       15.682657   -1.740168   -0.812149
     60          6           0       16.428288    0.335435    0.323462
     61          6           0       17.884226    0.571097   -0.239423
     62          6           0       18.844943    1.230762    0.901552
     63          6           0       20.283838    1.378895    0.295288
     64          6           0       20.405513    2.009897   -1.082965
     65          6           0       21.231957    2.044594    1.223447
     66          1           0       -4.180464    3.707574    1.174011
     67          1           0      -10.130739    3.894650   -0.531455
     68          1           0      -10.298359   -2.625540   -1.099926
     69          1           0       -2.989106   -1.037958    2.006222
     70          1           0       -2.227379    1.697397    0.854793
     71          1           0       -1.861716    1.087640    3.345117
     72          1           0       -3.109497    2.172845    3.447973
     73          1           0       -3.600096    0.505520    3.654900
     74          1           0       -2.137902   -1.666672   -0.197356
     75          1           0       -2.098481   -0.194011   -0.797498
     76          1           0       -0.240483    0.273517    0.963714
     77          1           0       -0.213819   -1.231679    1.491339
     78          1           0       -4.958445    6.318237    0.607867
     79          1           0       -6.162463    6.667860    1.593916
     80          1           0       -4.997348    5.518584    2.384155
     81          1           0       -9.566925    5.918280    0.851134
     82          1           0       -8.926939    7.978996    0.076171
     83          1           0       -7.255364    7.311268   -0.378215
     84          1           0      -12.074207    3.147946   -2.465891
     85          1           0      -13.092246    2.016135   -1.356671
     86          1           0      -12.307832    3.658080   -0.635762
     87          1           0      -12.468834   -1.706575   -1.420568
     88          1           0      -13.353273   -0.239688   -1.515866
     89          1           0      -13.258253   -1.640599   -3.489836
     90          1           0      -12.320676   -0.081422   -3.977795
     91          1           0      -11.085879   -1.176810   -3.277643
     92          1           0       -8.863784   -4.505997   -2.068843
     93          1           0       -8.199514   -5.712719   -1.067547
     94          1           0       -9.695393   -5.056671   -0.409435
     95          1           0       -3.412242   -3.525814   -0.256952
     96          1           0       -1.340393   -4.536067    3.246789
     97          1           0       -3.067537   -5.269085    3.713038
     98          1           0       -1.468431   -6.152058    2.763677
     99          1           0        2.623549   -1.634283   -1.584554
    100          1           0        2.717946    0.244114   -1.871065
    101          1           0        4.433751   -0.960323    0.570962
    102          1           0        4.001657    1.856824   -2.470924
    103          1           0        5.390312    2.329058   -1.837574
    104          1           0        5.658861    0.922096   -2.852901
    105          1           0        6.801459    1.583088   -0.013136
    106          1           0        6.239474    0.186848    0.822587
    107          1           0        7.475001   -1.241451   -1.114999
    108          1           0        7.744376    0.161267   -1.959811
    109          1           0        9.016128    1.018456    0.184870
    110          1           0        8.874350   -0.681586    0.858862
    111          1           0       10.278360    0.100617   -1.861090
    112          1           0        9.048853   -2.210769   -1.927256
    113          1           0       10.972308   -2.541475   -1.798950
    114          1           0        9.698935   -2.678406   -0.401555
    115          1           0       11.292312    0.794573    0.327852
    116          1           0       11.430434   -0.898731    0.775667
    117          1           0       13.000213   -1.553330   -1.103269
    118          1           0       12.767224    0.129117   -1.855519
    119          1           0       14.044146    1.173784    0.321377
    120          1           0       13.913185   -0.689530    1.118650
    121          1           0       15.012875    0.399618   -1.438041
    122          1           0       15.648420   -2.393768    0.177569
    123          1           0       15.056846   -2.178756   -1.647654
    124          1           0       16.729577   -1.747726   -1.338519
    125          1           0       16.071906    1.255714    0.863131
    126          1           0       16.630575   -0.273691    1.330553
    127          1           0       18.530873   -0.322096   -0.371167
    128          1           0       18.089161    1.123772   -1.190703
    129          1           0       18.640864    2.283791    1.215613
    130          1           0       18.831602    0.535211    1.869164
    131          1           0       20.646701    0.418304    0.229300
    132          1           0       20.025867    3.080145   -0.984808
    133          1           0       21.334298    1.847358   -1.375301
    134          1           0       19.650006    1.758052   -1.826494
    135          1           0       21.249617    1.360580    2.193363
    136          1           0       22.239624    2.208814    0.925434
    137          1           0       21.152095    3.234059    1.416916
 ---------------------------------------------------------------------

 SCF Done:  E(RCAM-B3LYP) =  -2933.46061335     A.U. after   16 cycles

 Excitation energies and oscillator strengths:

 Excited State   1:      Singlet-A      2.0207 eV  613.58 nm  f=0.2725  <S**2>=0.000
     240 -> 243        0.23400
     241 -> 242        0.66589
 This state for optimization and/or second-order correction.
 Total Energy, E(TD-HF/TD-DFT) =  -2933.38635520
 Copying the excited state density for this state as the 1-particle RhoCI density.

 Excited State   2:      Singlet-A      2.3131 eV  536.00 nm  f=0.0386  <S**2>=0.000
     240 -> 242        0.59255
     241 -> 243       -0.37023

 Excited State   3:      Singlet-A      3.0766 eV  402.99 nm  f=0.0088  <S**2>=0.000
     238 -> 242        0.21069
     239 -> 242        0.64798
     241 -> 243       -0.11563

 Excited State   4:      Singlet-A      3.2604 eV  380.27 nm  f=0.0520  <S**2>=0.000
     238 -> 242        0.61265
     239 -> 242       -0.23880
     240 -> 242       -0.12366
     241 -> 243       -0.16016

 Excited State   5:      Singlet-A      3.2658 eV  379.65 nm  f=0.7297  <S**2>=0.000
     237 -> 242       -0.18202
     238 -> 242        0.18397
     240 -> 242        0.32963
     241 -> 243        0.54342

 Excited State   6:      Singlet-A      3.4525 eV  359.11 nm  f=0.1198  <S**2>=0.000
     236 -> 242        0.38967
     236 -> 244        0.17584
     237 -> 242        0.46895
     240 -> 243        0.21804

 Excited State   7:      Singlet-A      3.5256 eV  351.67 nm  f=0.2996  <S**2>=0.000
     236 -> 242        0.51135
     237 -> 242       -0.29326
     240 -> 242       -0.10185
     240 -> 243       -0.28022
     241 -> 242        0.10500

 Excited State   8:      Singlet-A      3.5691 eV  347.38 nm  f=0.5067  <S**2>=0.000
     236 -> 242        0.10416
     237 -> 242       -0.34965
     238 -> 242       -0.16024
     240 -> 243        0.51286
     241 -> 242       -0.18785
     241 -> 244       -0.10176

 Excited State   9:      Singlet-A      3.7825 eV  327.78 nm  f=0.0215  <S**2>=0.000
     232 -> 242        0.20771
     234 -> 242       -0.22851
     241 -> 244        0.59373

 Excited State  10:      Singlet-A      3.8202 eV  324.55 nm  f=0.0501  <S**2>=0.000
     232 -> 242       -0.36593
     233 -> 242        0.14314
     234 -> 242        0.43404
     235 -> 242       -0.10498
     241 -> 244        0.32014

 The electronic state is 1-A.
 Alpha  occ. eigenvalues --  -46.79813 -19.23051 -19.21761 -19.17448 -19.16642
 Alpha  occ. eigenvalues --  -19.15482 -14.37685 -14.35464 -14.35329 -14.34768
 Alpha  occ. eigenvalues --  -10.34603 -10.34572 -10.30688 -10.28469 -10.27339
 Alpha  occ. eigenvalues --  -10.26522 -10.25969 -10.25475 -10.25210 -10.24819
 Alpha  occ. eigenvalues --  -10.24811 -10.24594 -10.24573 -10.24196 -10.23933
 Alpha  occ. eigenvalues --  -10.23767 -10.23713 -10.23594 -10.23495 -10.23199
 Alpha  occ. eigenvalues --  -10.22933 -10.22879 -10.22777 -10.22712 -10.22548
 Alpha  occ. eigenvalues --  -10.22465 -10.22457 -10.22442 -10.22323 -10.22309
 Alpha  occ. eigenvalues --  -10.22210 -10.22197 -10.22094 -10.22071 -10.22069
 Alpha  occ. eigenvalues --  -10.21995 -10.21979 -10.21954 -10.21947 -10.21889
 Alpha  occ. eigenvalues --  -10.21879 -10.21783 -10.21782 -10.21674 -10.21610
 Alpha  occ. eigenvalues --  -10.21573 -10.21464 -10.21410 -10.21221 -10.21087
 Alpha  occ. eigenvalues --  -10.20911 -10.20844 -10.20816 -10.20579 -10.19311
 Alpha  occ. eigenvalues --   -3.08420  -1.83363  -1.82866  -1.82847  -1.15486
 Alpha  occ. eigenvalues --   -1.13395  -1.09478  -1.07427  -1.00937  -0.99953
 Alpha  occ. eigenvalues --   -0.98801  -0.97467  -0.95267  -0.87137  -0.85770
 Alpha  occ. eigenvalues --   -0.85353  -0.85096  -0.84742  -0.84120  -0.84014
 Alpha  occ. eigenvalues --   -0.83146  -0.82832  -0.82295  -0.81890  -0.81049
 Alpha  occ. eigenvalues --   -0.79778  -0.79162  -0.78683  -0.77967  -0.77590
 Alpha  occ. eigenvalues --   -0.76783  -0.76743  -0.75832  -0.74350  -0.73831
 Alpha  occ. eigenvalues --   -0.73216  -0.72324  -0.71666  -0.71323  -0.71160
 Alpha  occ. eigenvalues --   -0.70356  -0.69376  -0.69185  -0.68685  -0.67955
 Alpha  occ. eigenvalues --   -0.66783  -0.66442  -0.64816  -0.64248  -0.63536
 Alpha  occ. eigenvalues --   -0.62898  -0.62446  -0.60965  -0.60493  -0.60375
 Alpha  occ. eigenvalues --   -0.59796  -0.59003  -0.58499  -0.58059  -0.57926
 Alpha  occ. eigenvalues --   -0.56578  -0.56170  -0.56046  -0.55658  -0.54853
 Alpha  occ. eigenvalues --   -0.54716  -0.54396  -0.53597  -0.53485  -0.53304
 Alpha  occ. eigenvalues --   -0.52841  -0.52153  -0.51524  -0.50998  -0.50710
 Alpha  occ. eigenvalues --   -0.50507  -0.50174  -0.50101  -0.49816  -0.49317
 Alpha  occ. eigenvalues --   -0.49174  -0.48899  -0.48550  -0.48209  -0.47923
 Alpha  occ. eigenvalues --   -0.47677  -0.47496  -0.47334  -0.47027  -0.46891
 Alpha  occ. eigenvalues --   -0.46630  -0.46523  -0.46248  -0.46132  -0.45873
 Alpha  occ. eigenvalues --   -0.45813  -0.45418  -0.45245  -0.44874  -0.44835
 Alpha  occ. eigenvalues --   -0.44681  -0.44477  -0.44414  -0.44029  -0.43745
 Alpha  occ. eigenvalues --   -0.43483  -0.43321  -0.43100  -0.42983  -0.42671
 Alpha  occ. eigenvalues --   -0.42518  -0.42278  -0.42185  -0.41864  -0.41477
 Alpha  occ. eigenvalues --   -0.41421  -0.41220  -0.40999  -0.40648  -0.40540
 Alpha  occ. eigenvalues --   -0.40229  -0.40058  -0.39914  -0.39843  -0.39632
 Alpha  occ. eigenvalues --   -0.39582  -0.39237  -0.39111  -0.38832  -0.38582
 Alpha  occ. eigenvalues --   -0.38391  -0.38330  -0.38250  -0.37992  -0.37968
 Alpha  occ. eigenvalues --   -0.37879  -0.37588  -0.37268  -0.37261  -0.37026
 Alpha  occ. eigenvalues --   -0.36719  -0.36536  -0.36315  -0.35555  -0.35442
 Alpha  occ. eigenvalues --   -0.34875  -0.34842  -0.34412  -0.34331  -0.34128
 Alpha  occ. eigenvalues --   -0.33851  -0.33736  -0.33382  -0.33154  -0.32943
 Alpha  occ. eigenvalues --   -0.32843  -0.32791  -0.32501  -0.32237  -0.31965
 Alpha  occ. eigenvalues --   -0.31825  -0.31548  -0.31084  -0.30846  -0.30233
 Alpha  occ. eigenvalues --   -0.29911  -0.29474  -0.29020  -0.28224  -0.27930
 Alpha  occ. eigenvalues --   -0.27109  -0.26768  -0.25738  -0.25319  -0.21792
 Alpha  occ. eigenvalues --   -0.19951
 Alpha virt. eigenvalues --   -0.07273  -0.03479  -0.00234   0.02313   0.03534
 Alpha virt. eigenvalues --    0.04060   0.04428   0.05132   0.05517   0.06106
 Alpha virt. eigenvalues --    0.06783   0.08164   0.09056   0.09743   0.10072

 Mulliken charges:
               1
     1  Mg   0.818306
     2  C    0.104604
     3  C   -0.163047
     4  C   -0.150129
     5  C   -0.169900
     6  N   -0.617903
     7  C    0.263450
     8  C   -0.179756
     9  C   -0.137018
    10  C    0.322501
    11  C   -0.297171
    12  C   -0.155215
    13  C   -0.268636
    14  C    0.590230
    15  O   -0.433136
    16  O   -0.434332
    17  N   -0.703931
    18  C    0.327453
    19  C   -0.018714
    20  C    0.043922
    21  C    0.282248
    22  C   -0.367820
    23  C   -0.106567
    24  C   -0.234340
    25  N   -0.710288
    26  C    0.306476
    27  C   -0.007297
    28  C    0.021079
    29  C    0.316348
    30  C   -0.321587
    31  C   -0.239920
    32  C   -0.286547
    33  N   -0.772032
    34  C    0.277467
    35  C   -0.006516
    36  C    0.003054
    37  C    0.315823
    38  C   -0.383816
    39  C    0.359566
    40  O   -0.415449
    41  C   -0.324034
    42  C    0.608674
    43  O   -0.520196
    44  O   -0.422884
    45  C   -0.089366
    46  C    0.012785
    47  C   -0.136253
    48  C    0.125303
    49  C   -0.356063
    50  C   -0.224056
    51  C   -0.174880
    52  C   -0.184502
    53  C   -0.050688
    54  C   -0.307322
    55  C   -0.155173
    56  C   -0.178893
    57  C   -0.147932
    58  C   -0.039551
    59  C   -0.308156
    60  C   -0.158512
    61  C   -0.182483
    62  C   -0.176441
    63  C   -0.057897
    64  C   -0.305772
    65  C   -0.299381
    66  H    0.097826
    67  H    0.074187
    68  H    0.106368
    69  H    0.140500
    70  H    0.074032
    71  H    0.100946
    72  H    0.124876
    73  H    0.102710
    74  H    0.116459
    75  H    0.121882
    76  H    0.137152
    77  H    0.124261
    78  H    0.104233
    79  H    0.127714
    80  H    0.129255
    81  H    0.096839
    82  H    0.101711
    83  H    0.096939
    84  H    0.101614
    85  H    0.124683
    86  H    0.094871
    87  H    0.100783
    88  H    0.107284
    89  H    0.076086
    90  H    0.100758
    91  H    0.098844
    92  H    0.130571
    93  H    0.145190
    94  H    0.106839
    95  H    0.155807
    96  H    0.117167
    97  H    0.157084
    98  H    0.129935
    99  H    0.092557
   100  H    0.100945
   101  H    0.084552
   102  H    0.085763
   103  H    0.133585
   104  H    0.135783
   105  H    0.077589
   106  H    0.099709
   107  H    0.103782
   108  H    0.085723
   109  H    0.096436
   110  H    0.080833
   111  H    0.070089
   112  H    0.099192
   113  H    0.080592
   114  H    0.088414
   115  H    0.075546
   116  H    0.092968
   117  H    0.104600
   118  H    0.088912
   119  H    0.056537
   120  H    0.075773
   121  H    0.087058
   122  H    0.096850
   123  H    0.096769
   124  H    0.094066
   125  H    0.087303
   126  H    0.073285
   127  H    0.099341
   128  H    0.092073
   129  H    0.088858
   130  H    0.073680
   131  H    0.098872
   132  H    0.090520
   133  H    0.113984
   134  H    0.096607
   135  H    0.081100
   136  H    0.105646
   137  H    0.070913
 Sum of Mulliken charges =  -0.00000

 Dipole moment (field-independent basis, Debye):
    X=              2.0671    Y=              3.8296    Z=             -0.2613  Tot=              4.3596
 Quadrupole moment (field-independent basis, Debye-Ang):
   XX=           -350.7328   YY=           -390.2251   ZZ=           -401.1693
   XY=            -22.5088   XZ=              6.3778   YZ=             -6.7142

 Normal termination of Gaussian 16 at Tue Oct 22 04:43:51 2019.
