 Gaussian 16, Revision A.03,
 Gaussian 16:  ES64L-G16RevA.03 25-Dec-2016

 ----------------------------------------------------------------------
 # td=(NStates=10) iop(3/107=0140000000,3/108=0140000000) CAM-B3LYP/6-3
 1G(d,p)
 ----------------------------------------------------------------------

 --
 TD
 --
 Symbolic Z-matrix:
 Charge =  0 Multiplicity = 1

                         Standard orientation:
 ---------------------------------------------------------------------
 Center     Atomic      Atomic             Coordinates (Angstroms)
 Number     Number       Type             X           Y           Z
 ---------------------------------------------------------------------
      1         12           0       -7.150664    0.529083    0.000293
      2          6           0       -4.801165   -1.923815    0.523301
      3          6           0       -4.844661    2.875528    1.104639
      4          6           0       -9.386022    3.051428   -0.383222
      5          6           0       -9.422367   -1.832205   -0.975611
      6          7           0       -5.158461    0.511823    0.743684
      7          6           0       -4.357194   -0.641136    0.759996
      8          6           0       -2.955349   -0.285826    1.220001
      9          6           0       -3.120330    1.070895    1.713518
     10          6           0       -4.460088    1.555884    1.169364
     11          6           0       -2.965965    1.341926    3.277892
     12          6           0       -1.884089   -0.468563    0.101831
     13          6           0       -0.527208   -0.274354    0.575278
     14          6           0        0.547215   -0.533656   -0.523607
     15          8           0        0.139616   -0.758406   -1.708141
     16          8           0        1.786393   -0.464874   -0.113545
     17          7           0       -7.142018    2.610701    0.277882
     18          6           0       -6.187295    3.384274    0.684352
     19          6           0       -6.599050    4.797638    0.931622
     20          6           0       -7.881743    4.852762    0.325197
     21          6           0       -8.202261    3.505638    0.008553
     22          6           0       -5.703820    5.906046    1.595024
     23          6           0       -8.843716    5.919520    0.279936
     24          6           0       -8.402574    7.248242    0.227417
     25          7           0       -9.090923    0.644157   -0.610652
     26          6           0       -9.875691    1.691212   -0.670968
     27          6           0      -11.173130    1.308700   -1.204215
     28          6           0      -11.104140   -0.039693   -1.365385
     29          6           0       -9.774627   -0.466405   -1.039214
     30          6           0      -12.227432    2.325932   -1.388935
     31          6           0      -12.290807   -0.763522   -1.854553
     32          6           0      -12.122614   -1.301780   -3.376970
     33          7           0       -7.171377   -1.377746   -0.108952
     34          6           0       -8.175541   -2.368370   -0.595141
     35          6           0       -7.732035   -3.562282   -0.620122
     36          6           0       -6.431184   -3.552964   -0.104965
     37          6           0       -6.123240   -2.182234    0.060404
     38          6           0       -8.592826   -4.815989   -0.841021
     39          6           0       -5.331129   -4.382924    0.205890
     40          8           0       -5.239041   -5.649146    0.427691
     41          6           0       -4.168686   -3.276371    0.489138
     42          6           0       -3.543151   -3.556158    1.876030
     43          8           0       -3.751640   -3.064890    2.898324
     44          8           0       -2.527459   -4.652796    1.810472
     45          6           0       -2.182449   -5.172791    2.985014
     46          6           0        2.810485   -0.701176   -1.123305
     47          6           0        4.174676   -0.553195   -0.453870
     48          6           0        5.069903    0.327382   -0.847648
     49          6           0        4.941515    1.345363   -1.946900
     50          6           0        6.403465    0.276689   -0.030659
     51          6           0        7.706591   -0.077059   -0.963248
     52          6           0        8.947719   -0.142293   -0.141453
     53          6           0       10.170200   -0.606452   -0.802380
     54          6           0       10.154035   -2.152553   -1.154893
     55          6           0       11.492241   -0.302115    0.013736
     56          6           0       12.832439   -0.360117   -0.776188
     57          6           0       13.971475   -0.086580    0.089387
     58          6           0       15.368640   -0.193701   -0.511543
     59          6           0       15.698699   -1.734929   -0.670884
     60          6           0       16.438850    0.372809    0.398450
     61          6           0       17.766438    0.644115   -0.256739
     62          6           0       18.833773    1.321646    0.586723
     63          6           0       20.269210    1.306234    0.073596
     64          6           0       20.356193    2.123322   -1.217366
     65          6           0       21.274628    1.929289    1.071762
     66          1           0       -4.016961    3.510073    1.371556
     67          1           0      -10.138270    3.909285   -0.555968
     68          1           0      -10.160458   -2.612618   -1.101028
     69          1           0       -2.818763   -0.864780    2.164410
     70          1           0       -2.328049    1.622056    1.174266
     71          1           0       -1.875192    1.181051    3.662301
     72          1           0       -3.220403    2.385235    3.777859
     73          1           0       -3.675459    0.540840    3.728202
     74          1           0       -2.107082   -1.534243   -0.177533
     75          1           0       -2.369314    0.094024   -0.710345
     76          1           0       -0.391256    0.795403    0.827073
     77          1           0       -0.361076   -0.983405    1.403171
     78          1           0       -4.833207    6.044602    0.950562
     79          1           0       -6.453123    6.739571    1.776709
     80          1           0       -5.226595    5.451931    2.530080
     81          1           0       -9.960891    5.812566    0.334413
     82          1           0       -9.174151    8.022991    0.312206
     83          1           0       -7.217151    7.535006    0.281287
     84          1           0      -11.809295    3.312840   -1.921978
     85          1           0      -12.990137    1.721549   -2.179278
     86          1           0      -12.598111    2.735261   -0.421228
     87          1           0      -12.501487   -1.678949   -1.370353
     88          1           0      -13.214659   -0.126455   -1.739372
     89          1           0      -12.813462   -1.974126   -3.656288
     90          1           0      -12.329885   -0.414844   -4.128800
     91          1           0      -11.221491   -1.784397   -3.449038
     92          1           0       -8.877399   -4.736010   -1.863052
     93          1           0       -8.199119   -5.684000   -0.616696
     94          1           0       -9.455917   -4.636725   -0.226886
     95          1           0       -3.378637   -3.535513   -0.456000
     96          1           0       -1.861796   -4.580492    3.821241
     97          1           0       -2.884267   -5.790933    3.549467
     98          1           0       -1.417416   -5.877291    2.805904
     99          1           0        2.524333   -1.739439   -1.472904
    100          1           0        2.770582   -0.033364   -1.946620
    101          1           0        4.291628   -0.965867    0.682090
    102          1           0        3.901998    1.325803   -2.294808
    103          1           0        5.292881    2.190709   -1.441785
    104          1           0        5.639742    1.118325   -2.884275
    105          1           0        6.534376    1.381478    0.398008
    106          1           0        6.381053   -0.321267    0.804087
    107          1           0        7.426112   -1.147812   -1.569150
    108          1           0        7.636061    0.470524   -1.960642
    109          1           0        9.047850    0.782268    0.265606
    110          1           0        8.928263   -0.870327    0.599674
    111          1           0       10.281147   -0.150731   -1.753146
    112          1           0        8.967606   -2.315511   -1.519485
    113          1           0       10.871496   -2.379819   -1.906652
    114          1           0       10.148346   -2.741603   -0.317247
    115          1           0       11.171238    0.620852    0.516635
    116          1           0       11.429337   -1.082336    0.848456
    117          1           0       12.792140   -1.404775   -1.322441
    118          1           0       13.045974    0.312848   -1.622499
    119          1           0       13.991295    1.103074    0.569666
    120          1           0       13.806189   -0.586006    1.252732
    121          1           0       15.288696    0.482064   -1.288583
    122          1           0       15.841079   -2.280943    0.262437
    123          1           0       14.871476   -2.384209   -1.142007
    124          1           0       16.581497   -2.051987   -1.180053
    125          1           0       16.001708    1.341357    0.861073
    126          1           0       16.803486   -0.307908    1.226699
    127          1           0       18.198008   -0.285157   -0.657332
    128          1           0       17.595768    1.411595   -1.076253
    129          1           0       18.450938    2.441140    0.835004
    130          1           0       18.724343    0.584968    1.453841
    131          1           0       20.736680    0.315334   -0.093457
    132          1           0       19.768739    3.174303   -1.203919
    133          1           0       21.318661    2.114478   -1.469820
    134          1           0       19.698359    1.415952   -2.075990
    135          1           0       21.025982    1.714826    2.235193
    136          1           0       22.463723    1.633158    0.812995
    137          1           0       21.107295    3.136268    1.000080
 ---------------------------------------------------------------------

 SCF Done:  E(RCAM-B3LYP) =  -2933.45508589     A.U. after   15 cycles

 Excitation energies and oscillator strengths:

 Excited State   1:      Singlet-A      2.2364 eV  554.40 nm  f=0.2379  <S**2>=0.000
     240 -> 242       -0.34389
     240 -> 243        0.19369
     241 -> 242        0.54882
     241 -> 243        0.17636
 This state for optimization and/or second-order correction.
 Total Energy, E(TD-HF/TD-DFT) =  -2933.37290028
 Copying the excited state density for this state as the 1-particle RhoCI density.

 Excited State   2:      Singlet-A      2.2835 eV  542.95 nm  f=0.0826  <S**2>=0.000
     240 -> 242        0.53099
     241 -> 242        0.38022
     241 -> 243       -0.22261

 Excited State   3:      Singlet-A      3.0654 eV  404.47 nm  f=0.0143  <S**2>=0.000
     238 -> 242        0.61498
     238 -> 243        0.11998
     238 -> 244        0.20719
     238 -> 245        0.10059
     241 -> 243        0.14980

 Excited State   4:      Singlet-A      3.1331 eV  395.72 nm  f=0.1030  <S**2>=0.000
     237 -> 242       -0.12098
     239 -> 242        0.62103
     241 -> 243       -0.25977

 Excited State   5:      Singlet-A      3.1755 eV  390.44 nm  f=0.1161  <S**2>=0.000
     236 -> 242       -0.17159
     237 -> 242        0.46001
     239 -> 242        0.24411
     240 -> 242        0.16187
     241 -> 243        0.35883

 Excited State   6:      Singlet-A      3.2583 eV  380.52 nm  f=0.1914  <S**2>=0.000
     236 -> 242        0.13467
     237 -> 242        0.46432
     238 -> 242        0.17765
     239 -> 242       -0.10460
     240 -> 242       -0.19101
     241 -> 243       -0.39845

 Excited State   7:      Singlet-A      3.4272 eV  361.77 nm  f=0.8684  <S**2>=0.000
     237 -> 242       -0.10570
     240 -> 243        0.65023
     241 -> 242       -0.21446

 Excited State   8:      Singlet-A      3.4987 eV  354.37 nm  f=0.1513  <S**2>=0.000
     236 -> 242        0.64431
     240 -> 242        0.12309
     241 -> 243        0.16862

 Excited State   9:      Singlet-A      3.8942 eV  318.38 nm  f=0.2524  <S**2>=0.000
     239 -> 243       -0.10785
     240 -> 242       -0.11063
     240 -> 244        0.17428
     241 -> 244        0.62482
     241 -> 245        0.12277

 Excited State  10:      Singlet-A      4.0191 eV  308.49 nm  f=0.0202  <S**2>=0.000
     234 -> 242        0.24039
     236 -> 243        0.15751
     237 -> 242       -0.10275
     237 -> 243        0.43629
     238 -> 243        0.18044
     239 -> 243       -0.36478
     241 -> 244       -0.14418

 The electronic state is 1-A.
 Alpha  occ. eigenvalues --  -46.79560 -19.23316 -19.18314 -19.18075 -19.15377
 Alpha  occ. eigenvalues --  -19.14861 -14.36791 -14.36012 -14.35855 -14.34829
 Alpha  occ. eigenvalues --  -10.34412 -10.34095 -10.29918 -10.28044 -10.26964
 Alpha  occ. eigenvalues --  -10.26121 -10.25732 -10.25719 -10.25592 -10.25205
 Alpha  occ. eigenvalues --  -10.25154 -10.24798 -10.24752 -10.24613 -10.24480
 Alpha  occ. eigenvalues --  -10.24371 -10.24155 -10.24105 -10.23965 -10.23888
 Alpha  occ. eigenvalues --  -10.23781 -10.23728 -10.23611 -10.23536 -10.23416
 Alpha  occ. eigenvalues --  -10.23294 -10.23258 -10.23051 -10.23003 -10.22621
 Alpha  occ. eigenvalues --  -10.22561 -10.22484 -10.22430 -10.22406 -10.22288
 Alpha  occ. eigenvalues --  -10.22231 -10.22059 -10.21987 -10.21975 -10.21841
 Alpha  occ. eigenvalues --  -10.21819 -10.21819 -10.21775 -10.21688 -10.21528
 Alpha  occ. eigenvalues --  -10.21226 -10.21198 -10.20790 -10.20729 -10.20566
 Alpha  occ. eigenvalues --  -10.20554 -10.20371 -10.20208 -10.20094 -10.19746
 Alpha  occ. eigenvalues --   -3.08374  -1.83298  -1.82845  -1.82804  -1.13752
 Alpha  occ. eigenvalues --   -1.12992  -1.04637  -1.01447  -1.01006  -1.00610
 Alpha  occ. eigenvalues --   -0.99811  -0.99027  -0.98022  -0.87332  -0.86570
 Alpha  occ. eigenvalues --   -0.85998  -0.85716  -0.85376  -0.85173  -0.84515
 Alpha  occ. eigenvalues --   -0.83826  -0.83698  -0.83136  -0.81955  -0.80827
 Alpha  occ. eigenvalues --   -0.80352  -0.79477  -0.78373  -0.78157  -0.78023
 Alpha  occ. eigenvalues --   -0.76959  -0.76166  -0.75324  -0.74412  -0.74208
 Alpha  occ. eigenvalues --   -0.73037  -0.72727  -0.72304  -0.71249  -0.70446
 Alpha  occ. eigenvalues --   -0.69980  -0.69782  -0.69113  -0.68774  -0.68638
 Alpha  occ. eigenvalues --   -0.67024  -0.66623  -0.65912  -0.64911  -0.64199
 Alpha  occ. eigenvalues --   -0.63302  -0.62413  -0.61540  -0.60460  -0.59729
 Alpha  occ. eigenvalues --   -0.59553  -0.59364  -0.59256  -0.58390  -0.57485
 Alpha  occ. eigenvalues --   -0.56891  -0.56464  -0.56416  -0.55748  -0.55383
 Alpha  occ. eigenvalues --   -0.55114  -0.54524  -0.53816  -0.53375  -0.52567
 Alpha  occ. eigenvalues --   -0.52370  -0.51721  -0.51663  -0.51320  -0.51182
 Alpha  occ. eigenvalues --   -0.50531  -0.50014  -0.49904  -0.49788  -0.49129
 Alpha  occ. eigenvalues --   -0.48777  -0.48650  -0.48429  -0.48259  -0.47965
 Alpha  occ. eigenvalues --   -0.47777  -0.47717  -0.47533  -0.46961  -0.46665
 Alpha  occ. eigenvalues --   -0.46417  -0.46389  -0.46059  -0.45846  -0.45704
 Alpha  occ. eigenvalues --   -0.45521  -0.45279  -0.45117  -0.44989  -0.44922
 Alpha  occ. eigenvalues --   -0.44589  -0.44128  -0.44039  -0.43737  -0.43499
 Alpha  occ. eigenvalues --   -0.43451  -0.43145  -0.43041  -0.42873  -0.42652
 Alpha  occ. eigenvalues --   -0.42379  -0.42347  -0.42294  -0.42220  -0.41748
 Alpha  occ. eigenvalues --   -0.41646  -0.41494  -0.41275  -0.41152  -0.40880
 Alpha  occ. eigenvalues --   -0.40618  -0.40493  -0.40422  -0.40235  -0.40046
 Alpha  occ. eigenvalues --   -0.39784  -0.39642  -0.39391  -0.39136  -0.38880
 Alpha  occ. eigenvalues --   -0.38616  -0.38427  -0.38321  -0.38137  -0.37891
 Alpha  occ. eigenvalues --   -0.37678  -0.37652  -0.37467  -0.37136  -0.37031
 Alpha  occ. eigenvalues --   -0.36813  -0.36562  -0.36428  -0.36346  -0.36222
 Alpha  occ. eigenvalues --   -0.35934  -0.35408  -0.34962  -0.34771  -0.34628
 Alpha  occ. eigenvalues --   -0.34523  -0.34227  -0.34012  -0.33821  -0.33481
 Alpha  occ. eigenvalues --   -0.33332  -0.33311  -0.33196  -0.32931  -0.32471
 Alpha  occ. eigenvalues --   -0.31170  -0.31068  -0.30939  -0.30502  -0.30408
 Alpha  occ. eigenvalues --   -0.29743  -0.29034  -0.28927  -0.28369  -0.27543
 Alpha  occ. eigenvalues --   -0.26980  -0.26171  -0.25859  -0.25576  -0.22026
 Alpha  occ. eigenvalues --   -0.21084
 Alpha virt. eigenvalues --   -0.07553  -0.04177  -0.00594   0.01322   0.03595
 Alpha virt. eigenvalues --    0.03728   0.04338   0.04608   0.05023   0.05720
 Alpha virt. eigenvalues --    0.06341   0.08274   0.08884   0.08970   0.09292

 Mulliken charges:
               1
     1  Mg   0.817992
     2  C    0.127562
     3  C   -0.219104
     4  C   -0.212064
     5  C   -0.162804
     6  N   -0.638880
     7  C    0.259969
     8  C   -0.178260
     9  C   -0.140030
    10  C    0.373436
    11  C   -0.308983
    12  C   -0.145772
    13  C   -0.257270
    14  C    0.594225
    15  O   -0.506390
    16  O   -0.439174
    17  N   -0.656113
    18  C    0.324196
    19  C    0.001362
    20  C    0.046089
    21  C    0.330479
    22  C   -0.365597
    23  C   -0.100915
    24  C   -0.241380
    25  N   -0.691344
    26  C    0.309677
    27  C    0.043003
    28  C    0.054926
    29  C    0.293489
    30  C   -0.371206
    31  C   -0.273482
    32  C   -0.318115
    33  N   -0.754821
    34  C    0.268547
    35  C    0.002916
    36  C    0.049622
    37  C    0.288551
    38  C   -0.348304
    39  C    0.318781
    40  O   -0.501131
    41  C   -0.359357
    42  C    0.627969
    43  O   -0.395631
    44  O   -0.473880
    45  C   -0.074422
    46  C    0.000934
    47  C   -0.135369
    48  C    0.122798
    49  C   -0.346330
    50  C   -0.211240
    51  C   -0.180383
    52  C   -0.147511
    53  C   -0.085417
    54  C   -0.311362
    55  C   -0.168590
    56  C   -0.155798
    57  C   -0.151214
    58  C   -0.019976
    59  C   -0.330947
    60  C   -0.165188
    61  C   -0.178346
    62  C   -0.143978
    63  C   -0.045956
    64  C   -0.270129
    65  C   -0.284534
    66  H    0.065515
    67  H    0.068245
    68  H    0.095389
    69  H    0.124105
    70  H    0.092385
    71  H    0.101647
    72  H    0.102250
    73  H    0.119334
    74  H    0.114564
    75  H    0.118955
    76  H    0.129266
    77  H    0.139402
    78  H    0.139491
    79  H    0.121683
    80  H    0.123482
    81  H    0.111191
    82  H    0.105965
    83  H    0.102468
    84  H    0.105786
    85  H    0.091357
    86  H    0.130587
    87  H    0.111073
    88  H    0.098041
    89  H    0.115892
    90  H    0.091721
    91  H    0.118485
    92  H    0.123466
    93  H    0.148930
    94  H    0.124453
    95  H    0.147577
    96  H    0.093450
    97  H    0.091552
    98  H    0.103722
    99  H    0.130320
   100  H    0.124758
   101  H    0.083949
   102  H    0.115901
   103  H    0.135175
   104  H    0.110828
   105  H    0.068566
   106  H    0.110376
   107  H    0.062259
   108  H    0.096033
   109  H    0.103652
   110  H    0.103554
   111  H    0.083810
   112  H    0.062243
   113  H    0.111857
   114  H    0.112848
   115  H    0.087297
   116  H    0.085060
   117  H    0.088488
   118  H    0.097526
   119  H    0.043654
   120  H    0.051287
   121  H    0.094980
   122  H    0.113103
   123  H    0.086397
   124  H    0.107289
   125  H    0.070726
   126  H    0.083188
   127  H    0.093837
   128  H    0.076568
   129  H    0.072145
   130  H    0.071257
   131  H    0.094422
   132  H    0.091000
   133  H    0.113655
   134  H    0.057854
   135  H    0.087917
   136  H    0.077149
   137  H    0.077812
 Sum of Mulliken charges =  -0.00000

 Dipole moment (field-independent basis, Debye):
    X=              0.0848    Y=              7.4686    Z=             -0.4881  Tot=              7.4850
 Quadrupole moment (field-independent basis, Debye-Ang):
   XX=           -316.7956   YY=           -402.8840   ZZ=           -402.9171
   XY=            -35.9237   XZ=              6.2118   YZ=              8.3128

 Normal termination of Gaussian 16 at Wed Oct 23 05:22:55 2019.
