 Gaussian 16, Revision A.03,
 Gaussian 16:  ES64L-G16RevA.03 25-Dec-2016

 ----------------------------------------------------------------------
 # td=(NStates=10) iop(3/107=0140000000,3/108=0140000000) CAM-B3LYP/6-3
 1G(d,p)
 ----------------------------------------------------------------------

 --
 TD
 --
 Symbolic Z-matrix:
 Charge =  0 Multiplicity = 1

                         Standard orientation:
 ---------------------------------------------------------------------
 Center     Atomic      Atomic             Coordinates (Angstroms)
 Number     Number       Type             X           Y           Z
 ---------------------------------------------------------------------
      1         12           0       -7.195436    0.591382    0.087469
      2          6           0       -4.826510   -1.951104    0.454167
      3          6           0       -4.948551    2.860246    1.175363
      4          6           0       -9.446979    3.016658   -0.349557
      5          6           0       -9.506276   -1.800304   -0.722855
      6          7           0       -5.099901    0.459621    0.681623
      7          6           0       -4.300916   -0.665232    0.795200
      8          6           0       -2.940154   -0.362052    1.187555
      9          6           0       -3.003169    1.221767    1.547632
     10          6           0       -4.477041    1.520154    1.124555
     11          6           0       -2.754322    1.494840    3.127348
     12          6           0       -1.880036   -0.632880    0.049831
     13          6           0       -0.414761   -0.437588    0.555207
     14          6           0        0.432549   -0.696830   -0.633899
     15          8           0        0.167440   -1.119096   -1.781540
     16          8           0        1.719505   -0.504993   -0.122500
     17          7           0       -7.162386    2.597428    0.358536
     18          6           0       -6.136824    3.362846    0.793691
     19          6           0       -6.532514    4.753861    0.762807
     20          6           0       -7.753509    4.819486    0.311179
     21          6           0       -8.290589    3.431555    0.089699
     22          6           0       -5.656628    5.856862    1.370285
     23          6           0       -8.675313    6.000875    0.292814
     24          6           0       -8.379231    7.294127    0.140443
     25          7           0       -9.141761    0.704535   -0.518489
     26          6           0       -9.868649    1.769343   -0.596787
     27          6           0      -11.180355    1.403092   -1.207054
     28          6           0      -11.213502   -0.030592   -1.289536
     29          6           0       -9.939872   -0.465025   -0.872432
     30          6           0      -12.339609    2.359482   -1.422097
     31          6           0      -12.327089   -0.948050   -1.798567
     32          6           0      -12.302370   -1.219301   -3.298092
     33          7           0       -7.195796   -1.384564   -0.175590
     34          6           0       -8.229692   -2.324760   -0.363159
     35          6           0       -7.807521   -3.592608   -0.374679
     36          6           0       -6.489837   -3.463309   -0.134178
     37          6           0       -6.180488   -2.162778    0.093374
     38          6           0       -8.499672   -4.890220   -0.748725
     39          6           0       -5.277806   -4.287385    0.173278
     40          8           0       -5.010577   -5.487425    0.163518
     41          6           0       -4.146227   -3.354687    0.475006
     42          6           0       -3.507489   -3.611899    1.884426
     43          8           0       -3.666931   -2.983869    2.855135
     44          8           0       -2.587735   -4.620546    1.808685
     45          6           0       -2.077547   -4.941711    3.077637
     46          6           0        2.746203   -0.646795   -1.231924
     47          6           0        4.091015   -0.493795   -0.664750
     48          6           0        5.126476    0.264186   -1.026705
     49          6           0        5.063118    1.278522   -2.175081
     50          6           0        6.340643    0.271506   -0.105683
     51          6           0        7.634310   -0.283621   -0.781120
     52          6           0        8.937661   -0.265118    0.064486
     53          6           0       10.173535   -0.500712   -0.790674
     54          6           0       10.141296   -2.050128   -1.245047
     55          6           0       11.427285   -0.246157    0.008822
     56          6           0       12.827139   -0.427505   -0.656342
     57          6           0       13.979801   -0.152743    0.243860
     58          6           0       15.281548   -0.257220   -0.391795
     59          6           0       15.588251   -1.733684   -0.656586
     60          6           0       16.461809    0.415478    0.391027
     61          6           0       17.795088    0.541825   -0.318670
     62          6           0       18.878854    1.211775    0.585530
     63          6           0       20.290934    1.375712    0.141679
     64          6           0       20.261210    2.155915   -1.283702
     65          6           0       21.209207    2.105956    1.187126
     66          1           0       -4.199529    3.644989    1.592534
     67          1           0       -9.933281    3.842379   -0.595738
     68          1           0      -10.339190   -2.458337   -1.152321
     69          1           0       -2.753490   -0.936373    2.206142
     70          1           0       -2.427073    1.783235    0.869975
     71          1           0       -1.791442    1.295183    3.559730
     72          1           0       -2.859720    2.465940    3.359452
     73          1           0       -3.279022    0.982328    3.714532
     74          1           0       -2.003447   -1.723404   -0.180288
     75          1           0       -2.160861   -0.102892   -0.856261
     76          1           0       -0.223300    0.482318    1.008169
     77          1           0       -0.208501   -1.300452    1.212167
     78          1           0       -4.819367    6.134310    0.846241
     79          1           0       -6.211415    6.754064    1.519281
     80          1           0       -5.131808    5.585687    2.436218
     81          1           0       -9.703377    5.815567    0.424732
     82          1           0       -9.076423    8.127084    0.074643
     83          1           0       -7.327094    7.711721    0.165625
     84          1           0      -11.858101    3.214804   -2.049501
     85          1           0      -13.290349    1.815550   -2.004907
     86          1           0      -12.788342    2.654810   -0.418662
     87          1           0      -12.341966   -1.819519   -1.096376
     88          1           0      -13.139481   -0.380810   -1.274289
     89          1           0      -13.060123   -1.941647   -3.720178
     90          1           0      -12.655315   -0.300434   -3.810443
     91          1           0      -11.359403   -1.657047   -3.689503
     92          1           0       -8.903512   -4.936766   -1.766152
     93          1           0       -8.127316   -5.808385   -0.307986
     94          1           0       -9.378721   -5.073288   -0.139968
     95          1           0       -3.355216   -3.299668   -0.377465
     96          1           0       -1.113195   -4.415095    3.217344
     97          1           0       -2.761340   -4.953021    3.848714
     98          1           0       -1.662377   -5.988068    2.709414
     99          1           0        2.692654   -1.795217   -1.588850
    100          1           0        2.634101    0.011433   -1.968627
    101          1           0        4.131484   -1.109362    0.326668
    102          1           0        3.947973    1.320609   -2.526325
    103          1           0        5.369050    2.232710   -1.668635
    104          1           0        6.048288    1.033469   -2.938025
    105          1           0        6.664777    1.588563   -0.077201
    106          1           0        6.275696   -0.005725    0.955431
    107          1           0        7.382047   -1.357349   -1.084741
    108          1           0        7.911263    0.020146   -1.737144
    109          1           0        9.019515    0.873353    0.537185
    110          1           0        8.750697   -0.982592    0.766487
    111          1           0       10.196862    0.242808   -1.630033
    112          1           0        9.267651   -2.164050   -1.807435
    113          1           0       11.010358   -2.277055   -1.913676
    114          1           0       10.242098   -2.535679   -0.157016
    115          1           0       11.478554    0.738685    0.326596
    116          1           0       11.432763   -0.671480    1.020085
    117          1           0       13.061098   -1.383838   -1.269431
    118          1           0       12.878838    0.160959   -1.416470
    119          1           0       13.865694    0.825931    0.745299
    120          1           0       14.118759   -0.869324    1.073830
    121          1           0       14.985769    0.374720   -1.339073
    122          1           0       15.505843   -2.397942    0.253780
    123          1           0       14.950061   -2.130108   -1.439593
    124          1           0       16.488482   -1.878356   -1.299542
    125          1           0       16.165813    1.530691    0.574526
    126          1           0       16.536545   -0.092435    1.306953
    127          1           0       18.054718   -0.419096   -0.816431
    128          1           0       17.725200    1.180306   -1.160810
    129          1           0       18.374024    2.144996    0.814609
    130          1           0       18.768667    0.846082    1.608453
    131          1           0       20.730619    0.432882    0.066716
    132          1           0       19.793603    3.207640   -1.141973
    133          1           0       21.265904    2.354237   -1.550336
    134          1           0       19.720450    1.595589   -2.089506
    135          1           0       21.205268    1.432883    2.064466
    136          1           0       22.193621    2.105002    0.977364
    137          1           0       20.707515    3.251195    1.233000
 ---------------------------------------------------------------------

 SCF Done:  E(RCAM-B3LYP) =  -2933.50109231     A.U. after   15 cycles

 Excitation energies and oscillator strengths:

 Excited State   1:      Singlet-A      2.2658 eV  547.19 nm  f=0.1719  <S**2>=0.000
     240 -> 242       -0.21488
     240 -> 243        0.26332
     241 -> 242        0.59751
     241 -> 243        0.14533
 This state for optimization and/or second-order correction.
 Total Energy, E(TD-HF/TD-DFT) =  -2933.41782436
 Copying the excited state density for this state as the 1-particle RhoCI density.

 Excited State   2:      Singlet-A      2.4485 eV  506.36 nm  f=0.0424  <S**2>=0.000
     240 -> 242        0.53216
     241 -> 242        0.24844
     241 -> 243       -0.37138

 Excited State   3:      Singlet-A      3.2334 eV  383.45 nm  f=0.5837  <S**2>=0.000
     237 -> 242       -0.11537
     239 -> 242        0.17020
     240 -> 242        0.35414
     240 -> 243        0.10707
     241 -> 243        0.53466

 Excited State   4:      Singlet-A      3.3092 eV  374.67 nm  f=0.1023  <S**2>=0.000
     239 -> 242        0.62129
     239 -> 243        0.14776
     240 -> 243        0.18496
     241 -> 243       -0.14524

 Excited State   5:      Singlet-A      3.3823 eV  366.56 nm  f=0.0285  <S**2>=0.000
     238 -> 242        0.59992
     238 -> 244        0.28408
     238 -> 246        0.11657
     240 -> 243       -0.10087

 Excited State   6:      Singlet-A      3.4910 eV  355.16 nm  f=0.8812  <S**2>=0.000
     239 -> 242       -0.19393
     239 -> 243       -0.14229
     240 -> 243        0.58497
     241 -> 242       -0.26107

 Excited State   7:      Singlet-A      3.5873 eV  345.62 nm  f=0.0107  <S**2>=0.000
     235 -> 242       -0.13337
     237 -> 242        0.63870
     237 -> 243       -0.10578
     239 -> 243       -0.10749

 Excited State   8:      Singlet-A      3.8690 eV  320.46 nm  f=0.0498  <S**2>=0.000
     235 -> 242       -0.10688
     239 -> 242       -0.18079
     239 -> 243        0.64074
     240 -> 243        0.11833

 Excited State   9:      Singlet-A      3.8906 eV  318.68 nm  f=0.2021  <S**2>=0.000
     235 -> 242        0.64848
     237 -> 242        0.11437
     240 -> 242        0.11421

 Excited State  10:      Singlet-A      4.0416 eV  306.77 nm  f=0.1174  <S**2>=0.000
     240 -> 244        0.14208
     241 -> 244        0.64783
     241 -> 246        0.13594

 The electronic state is 1-A.
 Alpha  occ. eigenvalues --  -46.79117 -19.22013 -19.21219 -19.17741 -19.17517
 Alpha  occ. eigenvalues --  -19.14649 -14.37550 -14.34412 -14.34378 -14.34299
 Alpha  occ. eigenvalues --  -10.35027 -10.34375 -10.29166 -10.27290 -10.26657
 Alpha  occ. eigenvalues --  -10.26260 -10.25567 -10.24852 -10.24724 -10.24713
 Alpha  occ. eigenvalues --  -10.24573 -10.24141 -10.24101 -10.23972 -10.23905
 Alpha  occ. eigenvalues --  -10.23879 -10.23698 -10.23542 -10.23509 -10.23312
 Alpha  occ. eigenvalues --  -10.23306 -10.23020 -10.22995 -10.22889 -10.22885
 Alpha  occ. eigenvalues --  -10.22631 -10.22617 -10.22432 -10.22355 -10.22287
 Alpha  occ. eigenvalues --  -10.22135 -10.22093 -10.22021 -10.21851 -10.21831
 Alpha  occ. eigenvalues --  -10.21633 -10.21580 -10.21565 -10.21456 -10.21439
 Alpha  occ. eigenvalues --  -10.21235 -10.21201 -10.21010 -10.20928 -10.20757
 Alpha  occ. eigenvalues --  -10.20691 -10.20415 -10.20035 -10.19787 -10.19741
 Alpha  occ. eigenvalues --  -10.19686 -10.19569 -10.19541 -10.19389 -10.19163
 Alpha  occ. eigenvalues --   -3.07808  -1.82752  -1.82271  -1.82221  -1.14537
 Alpha  occ. eigenvalues --   -1.10482  -1.06164  -1.04325  -1.02815  -1.00427
 Alpha  occ. eigenvalues --   -0.99345  -0.98192  -0.96951  -0.86799  -0.86386
 Alpha  occ. eigenvalues --   -0.85797  -0.85143  -0.84630  -0.84317  -0.84028
 Alpha  occ. eigenvalues --   -0.83234  -0.82931  -0.82683  -0.81292  -0.80870
 Alpha  occ. eigenvalues --   -0.79889  -0.79388  -0.78571  -0.78202  -0.77532
 Alpha  occ. eigenvalues --   -0.76874  -0.76185  -0.76080  -0.74726  -0.73948
 Alpha  occ. eigenvalues --   -0.73396  -0.72762  -0.71944  -0.70770  -0.70631
 Alpha  occ. eigenvalues --   -0.70376  -0.69979  -0.69859  -0.68997  -0.68115
 Alpha  occ. eigenvalues --   -0.67457  -0.66482  -0.66187  -0.65368  -0.63911
 Alpha  occ. eigenvalues --   -0.62608  -0.62441  -0.61907  -0.61373  -0.60366
 Alpha  occ. eigenvalues --   -0.59622  -0.59388  -0.59065  -0.58951  -0.58141
 Alpha  occ. eigenvalues --   -0.57351  -0.56518  -0.56346  -0.55744  -0.55075
 Alpha  occ. eigenvalues --   -0.54879  -0.53779  -0.53579  -0.53037  -0.52698
 Alpha  occ. eigenvalues --   -0.52172  -0.51749  -0.51187  -0.51040  -0.50924
 Alpha  occ. eigenvalues --   -0.50854  -0.49930  -0.49729  -0.49437  -0.49040
 Alpha  occ. eigenvalues --   -0.48991  -0.48698  -0.48040  -0.47939  -0.47681
 Alpha  occ. eigenvalues --   -0.47621  -0.47373  -0.47204  -0.46832  -0.46625
 Alpha  occ. eigenvalues --   -0.46404  -0.46263  -0.46128  -0.45876  -0.45778
 Alpha  occ. eigenvalues --   -0.45426  -0.45225  -0.44849  -0.44710  -0.44613
 Alpha  occ. eigenvalues --   -0.44407  -0.44158  -0.44134  -0.44031  -0.43595
 Alpha  occ. eigenvalues --   -0.43468  -0.43417  -0.42806  -0.42598  -0.42453
 Alpha  occ. eigenvalues --   -0.42211  -0.42062  -0.41980  -0.41868  -0.41727
 Alpha  occ. eigenvalues --   -0.41440  -0.41119  -0.41050  -0.40823  -0.40645
 Alpha  occ. eigenvalues --   -0.40591  -0.40454  -0.40089  -0.40036  -0.39911
 Alpha  occ. eigenvalues --   -0.39682  -0.39381  -0.39215  -0.39132  -0.38863
 Alpha  occ. eigenvalues --   -0.38735  -0.38578  -0.38416  -0.38164  -0.38068
 Alpha  occ. eigenvalues --   -0.37812  -0.37636  -0.37480  -0.37389  -0.37250
 Alpha  occ. eigenvalues --   -0.36831  -0.36592  -0.36416  -0.36276  -0.36178
 Alpha  occ. eigenvalues --   -0.35526  -0.35399  -0.35365  -0.34640  -0.34467
 Alpha  occ. eigenvalues --   -0.34127  -0.33986  -0.33678  -0.33620  -0.33142
 Alpha  occ. eigenvalues --   -0.33105  -0.33045  -0.32596  -0.32342  -0.32323
 Alpha  occ. eigenvalues --   -0.32238  -0.32162  -0.32105  -0.31546  -0.30905
 Alpha  occ. eigenvalues --   -0.30785  -0.30072  -0.30026  -0.28451  -0.27067
 Alpha  occ. eigenvalues --   -0.26889  -0.26070  -0.25700  -0.24862  -0.21475
 Alpha  occ. eigenvalues --   -0.20190
 Alpha virt. eigenvalues --   -0.06035  -0.03707   0.00543   0.02600   0.02676
 Alpha virt. eigenvalues --    0.03616   0.04290   0.05213   0.05449   0.05594
 Alpha virt. eigenvalues --    0.06575   0.08137   0.09122   0.09475   0.10151

 Mulliken charges:
               1
     1  Mg   0.796057
     2  C    0.019823
     3  C   -0.217858
     4  C   -0.132640
     5  C   -0.194633
     6  N   -0.614196
     7  C    0.303571
     8  C   -0.189565
     9  C   -0.147958
    10  C    0.348448
    11  C   -0.321601
    12  C   -0.183521
    13  C   -0.256731
    14  C    0.628847
    15  O   -0.485152
    16  O   -0.500698
    17  N   -0.749475
    18  C    0.376033
    19  C    0.060283
    20  C   -0.000302
    21  C    0.283218
    22  C   -0.378264
    23  C   -0.069728
    24  C   -0.253111
    25  N   -0.703026
    26  C    0.373029
    27  C   -0.016310
    28  C    0.010094
    29  C    0.283882
    30  C   -0.363291
    31  C   -0.239028
    32  C   -0.308619
    33  N   -0.729219
    34  C    0.226920
    35  C    0.063276
    36  C   -0.013223
    37  C    0.355699
    38  C   -0.384241
    39  C    0.370823
    40  O   -0.482342
    41  C   -0.304513
    42  C    0.611587
    43  O   -0.432182
    44  O   -0.435462
    45  C   -0.091605
    46  C    0.031287
    47  C   -0.131061
    48  C    0.138243
    49  C   -0.346812
    50  C   -0.198518
    51  C   -0.186241
    52  C   -0.146685
    53  C   -0.078985
    54  C   -0.297016
    55  C   -0.173478
    56  C   -0.174084
    57  C   -0.149784
    58  C   -0.065051
    59  C   -0.317381
    60  C   -0.163384
    61  C   -0.182740
    62  C   -0.155912
    63  C   -0.063514
    64  C   -0.319012
    65  C   -0.299607
    66  H    0.068665
    67  H    0.053190
    68  H    0.085528
    69  H    0.124657
    70  H    0.111776
    71  H    0.102811
    72  H    0.114148
    73  H    0.133040
    74  H    0.109781
    75  H    0.125852
    76  H    0.148180
    77  H    0.156289
    78  H    0.136180
    79  H    0.119600
    80  H    0.096387
    81  H    0.097305
    82  H    0.107702
    83  H    0.092222
    84  H    0.114960
    85  H    0.090487
    86  H    0.124883
    87  H    0.105096
    88  H    0.107542
    89  H    0.101140
    90  H    0.118111
    91  H    0.121712
    92  H    0.130288
    93  H    0.139920
    94  H    0.112213
    95  H    0.163894
    96  H    0.112543
    97  H    0.144846
    98  H    0.112247
    99  H    0.120117
   100  H    0.113591
   101  H    0.078912
   102  H    0.109276
   103  H    0.126958
   104  H    0.100881
   105  H    0.024807
   106  H    0.114828
   107  H    0.085881
   108  H    0.098908
   109  H    0.060543
   110  H    0.104694
   111  H    0.077415
   112  H    0.110765
   113  H    0.101617
   114  H    0.093749
   115  H    0.094732
   116  H    0.083858
   117  H    0.072555
   118  H    0.102165
   119  H    0.077983
   120  H    0.073649
   121  H    0.056697
   122  H    0.105207
   123  H    0.105140
   124  H    0.097191
   125  H    0.070932
   126  H    0.095099
   127  H    0.080806
   128  H    0.101465
   129  H    0.083276
   130  H    0.076039
   131  H    0.094319
   132  H    0.088624
   133  H    0.103900
   134  H    0.105410
   135  H    0.099883
   136  H    0.114474
   137  H    0.077096
 Sum of Mulliken charges =  -0.00000

 Dipole moment (field-independent basis, Debye):
    X=              1.2463    Y=              5.0819    Z=              1.0409  Tot=              5.3350
 Quadrupole moment (field-independent basis, Debye-Ang):
   XX=           -340.0936   YY=           -396.5797   ZZ=           -393.7979
   XY=            -24.5497   XZ=              2.1011   YZ=             -2.5386

 Normal termination of Gaussian 16 at Tue Oct 22 16:14:37 2019.
