 Gaussian 16, Revision A.03,
 Gaussian 16:  ES64L-G16RevA.03 25-Dec-2016

 ----------------------------------------------------------------------
 # td=(NStates=10) iop(3/107=0140000000,3/108=0140000000) CAM-B3LYP/6-3
 1G(d,p)
 ----------------------------------------------------------------------

 --
 TD
 --
 Symbolic Z-matrix:
 Charge =  0 Multiplicity = 1

                         Standard orientation:
 ---------------------------------------------------------------------
 Center     Atomic      Atomic             Coordinates (Angstroms)
 Number     Number       Type             X           Y           Z
 ---------------------------------------------------------------------
      1         12           0       -7.146456    0.580277    0.023978
      2          6           0       -4.851260   -1.998277    0.547038
      3          6           0       -4.891266    2.784050    1.226826
      4          6           0       -9.481696    3.122024   -0.380100
      5          6           0       -9.488324   -1.671374   -1.000290
      6          7           0       -5.028143    0.474333    0.706646
      7          6           0       -4.248482   -0.719712    0.743809
      8          6           0       -2.913525   -0.418970    1.248202
      9          6           0       -3.060571    1.022472    1.682042
     10          6           0       -4.423910    1.498570    1.120332
     11          6           0       -3.064801    1.254158    3.281298
     12          6           0       -1.900275   -0.695396    0.229583
     13          6           0       -0.440231   -0.371651    0.728289
     14          6           0        0.521638   -0.597139   -0.524032
     15          8           0        0.241954   -0.917886   -1.661739
     16          8           0        1.829596   -0.418660   -0.109549
     17          7           0       -7.134735    2.548010    0.399288
     18          6           0       -6.064313    3.323495    0.797488
     19          6           0       -6.455560    4.786512    0.815617
     20          6           0       -7.842537    4.784749    0.381448
     21          6           0       -8.218380    3.445973    0.062972
     22          6           0       -5.556890    5.988208    1.336823
     23          6           0       -8.735197    5.979218    0.285118
     24          6           0       -8.386447    7.330380    0.209155
     25          7           0       -9.137450    0.602202   -0.568857
     26          6           0       -9.973596    1.730073   -0.628808
     27          6           0      -11.264596    1.426248   -0.964073
     28          6           0      -11.296029    0.004311   -1.226199
     29          6           0      -10.021815   -0.453688   -0.867852
     30          6           0      -12.388468    2.492787   -1.256168
     31          6           0      -12.452310   -0.766468   -1.839518
     32          6           0      -12.154001   -1.216395   -3.186869
     33          7           0       -7.163918   -1.442012   -0.115948
     34          6           0       -8.257058   -2.206872   -0.571395
     35          6           0       -7.842495   -3.556855   -0.572074
     36          6           0       -6.496443   -3.603466   -0.195551
     37          6           0       -6.191458   -2.219333    0.048046
     38          6           0       -8.698053   -4.777073   -0.929863
     39          6           0       -5.279833   -4.385492    0.070697
     40          8           0       -4.955294   -5.636408    0.032080
     41          6           0       -4.184846   -3.344368    0.619424
     42          6           0       -3.569830   -3.716240    1.867141
     43          8           0       -3.812110   -3.188732    2.998953
     44          8           0       -2.884006   -4.838095    1.761419
     45          6           0       -2.142589   -5.236795    2.943424
     46          6           0        2.727279   -0.617356   -1.101401
     47          6           0        4.211298   -0.348340   -0.510840
     48          6           0        5.081900    0.351089   -1.001569
     49          6           0        5.037919    1.147192   -2.354756
     50          6           0        6.429216    0.466062   -0.233861
     51          6           0        7.592378    0.101490   -1.032780
     52          6           0        8.976174    0.034838   -0.190179
     53          6           0       10.183728   -0.414153   -0.954183
     54          6           0       10.137300   -1.973500   -1.291692
     55          6           0       11.490730   -0.058982   -0.132819
     56          6           0       12.839693   -0.398755   -0.723318
     57          6           0       14.043076    0.051994    0.135440
     58          6           0       15.444966   -0.174896   -0.443411
     59          6           0       15.645351   -1.625799   -0.702341
     60          6           0       16.455119    0.397561    0.456282
     61          6           0       17.877714    0.564923   -0.114757
     62          6           0       18.901720    1.264566    0.771042
     63          6           0       20.327222    1.191437    0.186499
     64          6           0       20.383302    1.973086   -1.032308
     65          6           0       21.296860    1.725666    1.190528
     66          1           0       -4.002655    3.434527    1.751538
     67          1           0      -10.373162    3.840855   -0.573024
     68          1           0      -10.096789   -2.498349   -1.438524
     69          1           0       -2.661392   -0.819438    2.201683
     70          1           0       -2.270439    1.846003    1.236205
     71          1           0       -2.175839    0.669907    3.797774
     72          1           0       -2.853314    2.382249    3.606244
     73          1           0       -4.257751    0.874256    3.578546
     74          1           0       -1.990457   -1.673710   -0.279944
     75          1           0       -2.113351    0.020584   -0.680802
     76          1           0       -0.428580    0.736552    1.080388
     77          1           0       -0.049998   -1.090832    1.398762
     78          1           0       -5.031808    6.412482    0.507370
     79          1           0       -6.228473    6.681546    1.903805
     80          1           0       -4.824970    5.634301    1.981494
     81          1           0       -9.768427    5.534045    0.338590
     82          1           0       -8.886807    8.243865    0.209879
     83          1           0       -7.365248    7.509924    0.071392
     84          1           0      -12.114948    3.034275   -2.188298
     85          1           0      -13.290902    1.841872   -1.539351
     86          1           0      -12.523108    3.213961   -0.500284
     87          1           0      -12.526348   -1.582435   -1.095457
     88          1           0      -13.312916   -0.197997   -1.619662
     89          1           0      -13.046614   -1.729417   -3.449778
     90          1           0      -12.284974   -0.393842   -3.756991
     91          1           0      -11.154064   -1.800135   -3.266551
     92          1           0       -8.868501   -4.914307   -2.088283
     93          1           0       -8.054960   -5.649385   -0.284790
     94          1           0       -9.575389   -4.538439   -0.342295
     95          1           0       -3.143790   -3.468114    0.016797
     96          1           0       -0.946107   -4.582609    3.082847
     97          1           0       -2.753549   -5.164911    3.798758
     98          1           0       -2.007481   -6.332841    2.645967
     99          1           0        2.722617   -1.604778   -1.463709
    100          1           0        2.386616    0.038734   -2.086621
    101          1           0        4.138686   -0.839273    0.512358
    102          1           0        3.964126    1.076310   -2.661311
    103          1           0        5.375897    2.183181   -2.373541
    104          1           0        5.271706    0.401872   -3.226068
    105          1           0        6.591385    1.495390   -0.065072
    106          1           0        6.591272   -0.020607    0.760104
    107          1           0        7.367956   -0.912259   -1.384921
    108          1           0        7.640960    0.665994   -2.079720
    109          1           0        9.089328    0.966122    0.366339
    110          1           0        8.717379   -0.817953    0.483913
    111          1           0       10.244519    0.107713   -1.974639
    112          1           0        9.370652   -2.396127   -1.941818
    113          1           0       11.230572   -2.186428   -1.767436
    114          1           0       10.125206   -2.604250   -0.455917
    115          1           0       11.576261    0.993941    0.270218
    116          1           0       11.568479   -0.466696    0.866385
    117          1           0       12.862890   -1.444163   -0.790528
    118          1           0       13.089018    0.056703   -1.698543
    119          1           0       13.749345    1.061674    0.363342
    120          1           0       13.990943   -0.585376    1.056822
    121          1           0       15.215474    0.306114   -1.435522
    122          1           0       15.483734   -2.309023    0.196662
    123          1           0       14.777446   -2.088721   -1.360743
    124          1           0       16.604839   -1.928217   -1.135732
    125          1           0       16.080175    1.360126    0.627099
    126          1           0       16.487705   -0.246618    1.363990
    127          1           0       18.290020   -0.386457   -0.457058
    128          1           0       17.978143    1.033271   -1.090147
    129          1           0       18.589504    2.367634    0.861991
    130          1           0       18.690696    0.849422    1.936103
    131          1           0       20.471783    0.225864    0.120910
    132          1           0       20.289919    3.096216   -0.828647
    133          1           0       21.216085    1.586481   -1.618658
    134          1           0       19.478998    1.918748   -1.776407
    135          1           0       21.385185    1.082207    1.980109
    136          1           0       22.447356    1.519699    0.810382
    137          1           0       21.271327    2.671583    1.457756
 ---------------------------------------------------------------------

 SCF Done:  E(RCAM-B3LYP) =  -2933.46070624     A.U. after   15 cycles

 Excitation energies and oscillator strengths:

 Excited State   1:      Singlet-A      2.2736 eV  545.31 nm  f=0.1210  <S**2>=0.000
     240 -> 243       -0.31255
     241 -> 242        0.61512
 This state for optimization and/or second-order correction.
 Total Energy, E(TD-HF/TD-DFT) =  -2933.37715114
 Copying the excited state density for this state as the 1-particle RhoCI density.

 Excited State   2:      Singlet-A      2.3594 eV  525.48 nm  f=0.0561  <S**2>=0.000
     240 -> 242        0.60534
     241 -> 243        0.32992

 Excited State   3:      Singlet-A      3.0153 eV  411.18 nm  f=0.0026  <S**2>=0.000
     238 -> 243        0.16216
     239 -> 242        0.65477

 Excited State   4:      Singlet-A      3.1240 eV  396.88 nm  f=0.1933  <S**2>=0.000
     237 -> 242        0.22209
     237 -> 244        0.12604
     238 -> 242        0.40094
     239 -> 243        0.17155
     240 -> 243        0.33522
     241 -> 242        0.14676
     241 -> 243        0.26209

 Excited State   5:      Singlet-A      3.1594 eV  392.43 nm  f=0.0857  <S**2>=0.000
     237 -> 242        0.45348
     237 -> 243       -0.10254
     237 -> 244        0.24510
     238 -> 242       -0.34397
     239 -> 243       -0.16168
     240 -> 242       -0.10259
     241 -> 243        0.17365

 Excited State   6:      Singlet-A      3.2340 eV  383.38 nm  f=0.3495  <S**2>=0.000
     236 -> 242        0.12113
     237 -> 242       -0.28790
     237 -> 244       -0.16150
     238 -> 242       -0.27715
     239 -> 243       -0.11421
     240 -> 242       -0.20386
     240 -> 243        0.27148
     241 -> 242        0.12866
     241 -> 243        0.35133

 Excited State   7:      Singlet-A      3.2584 eV  380.50 nm  f=0.8628  <S**2>=0.000
     238 -> 242       -0.24687
     240 -> 242        0.20929
     240 -> 243        0.41771
     241 -> 242        0.23078
     241 -> 243       -0.35887

 Excited State   8:      Singlet-A      3.5860 eV  345.74 nm  f=0.1152  <S**2>=0.000
     238 -> 242       -0.23011
     238 -> 243       -0.42610
     239 -> 243        0.47668
     240 -> 243       -0.11861

 Excited State   9:      Singlet-A      3.7444 eV  331.12 nm  f=0.1830  <S**2>=0.000
     236 -> 242        0.66044
     236 -> 243       -0.12654

 Excited State  10:      Singlet-A      3.8695 eV  320.41 nm  f=0.1072  <S**2>=0.000
     238 -> 243        0.46891
     239 -> 242       -0.17315
     239 -> 243        0.39468
     240 -> 244        0.19276
     241 -> 244        0.16581

 The electronic state is 1-A.
 Alpha  occ. eigenvalues --  -46.80346 -19.22357 -19.22172 -19.18100 -19.15532
 Alpha  occ. eigenvalues --  -19.14930 -14.37160 -14.35771 -14.35450 -14.34853
 Alpha  occ. eigenvalues --  -10.35393 -10.33601 -10.31395 -10.28874 -10.27042
 Alpha  occ. eigenvalues --  -10.26609 -10.26609 -10.26092 -10.25855 -10.25516
 Alpha  occ. eigenvalues --  -10.24811 -10.24787 -10.24736 -10.24701 -10.24683
 Alpha  occ. eigenvalues --  -10.24623 -10.24544 -10.24455 -10.24089 -10.24021
 Alpha  occ. eigenvalues --  -10.23942 -10.23863 -10.23826 -10.23796 -10.23532
 Alpha  occ. eigenvalues --  -10.23240 -10.23070 -10.22956 -10.22624 -10.22539
 Alpha  occ. eigenvalues --  -10.22387 -10.22176 -10.22147 -10.22137 -10.22107
 Alpha  occ. eigenvalues --  -10.21903 -10.21901 -10.21769 -10.21537 -10.21162
 Alpha  occ. eigenvalues --  -10.21011 -10.20921 -10.20865 -10.20829 -10.20776
 Alpha  occ. eigenvalues --  -10.20740 -10.20675 -10.20614 -10.20296 -10.20042
 Alpha  occ. eigenvalues --  -10.20007 -10.20004 -10.19792 -10.19585 -10.18952
 Alpha  occ. eigenvalues --   -3.08862  -1.83808  -1.83310  -1.83284  -1.14363
 Alpha  occ. eigenvalues --   -1.13026  -1.05688  -1.01701  -1.00903  -1.00678
 Alpha  occ. eigenvalues --   -1.00318  -0.97118  -0.96213  -0.87465  -0.86369
 Alpha  occ. eigenvalues --   -0.86018  -0.85836  -0.85268  -0.84832  -0.84110
 Alpha  occ. eigenvalues --   -0.83434  -0.83365  -0.82491  -0.81767  -0.80577
 Alpha  occ. eigenvalues --   -0.79734  -0.79562  -0.79173  -0.78029  -0.77644
 Alpha  occ. eigenvalues --   -0.76978  -0.76199  -0.75991  -0.74709  -0.73770
 Alpha  occ. eigenvalues --   -0.72717  -0.72637  -0.71767  -0.71329  -0.71203
 Alpha  occ. eigenvalues --   -0.70441  -0.70249  -0.69805  -0.69141  -0.68332
 Alpha  occ. eigenvalues --   -0.67245  -0.66247  -0.65589  -0.64788  -0.64353
 Alpha  occ. eigenvalues --   -0.63713  -0.62128  -0.61472  -0.60632  -0.60177
 Alpha  occ. eigenvalues --   -0.59857  -0.59516  -0.59390  -0.59097  -0.57937
 Alpha  occ. eigenvalues --   -0.57672  -0.57115  -0.56207  -0.55456  -0.54812
 Alpha  occ. eigenvalues --   -0.54445  -0.53919  -0.53519  -0.52695  -0.52318
 Alpha  occ. eigenvalues --   -0.52056  -0.51463  -0.51268  -0.51119  -0.50644
 Alpha  occ. eigenvalues --   -0.50501  -0.50303  -0.50032  -0.49704  -0.49379
 Alpha  occ. eigenvalues --   -0.49287  -0.48906  -0.48781  -0.48623  -0.48262
 Alpha  occ. eigenvalues --   -0.48033  -0.47686  -0.47584  -0.46900  -0.46534
 Alpha  occ. eigenvalues --   -0.46526  -0.46361  -0.46272  -0.46028  -0.45739
 Alpha  occ. eigenvalues --   -0.45509  -0.45303  -0.45150  -0.45005  -0.44815
 Alpha  occ. eigenvalues --   -0.44359  -0.44241  -0.44052  -0.43850  -0.43454
 Alpha  occ. eigenvalues --   -0.43278  -0.43117  -0.43066  -0.42803  -0.42722
 Alpha  occ. eigenvalues --   -0.42499  -0.42409  -0.42294  -0.41999  -0.41733
 Alpha  occ. eigenvalues --   -0.41483  -0.41275  -0.41108  -0.40922  -0.40646
 Alpha  occ. eigenvalues --   -0.40222  -0.40123  -0.39958  -0.39797  -0.39657
 Alpha  occ. eigenvalues --   -0.39569  -0.39005  -0.38733  -0.38609  -0.38515
 Alpha  occ. eigenvalues --   -0.38396  -0.38247  -0.37937  -0.37899  -0.37815
 Alpha  occ. eigenvalues --   -0.37736  -0.37584  -0.37259  -0.37122  -0.36984
 Alpha  occ. eigenvalues --   -0.36776  -0.36638  -0.36159  -0.35862  -0.35664
 Alpha  occ. eigenvalues --   -0.35278  -0.35215  -0.34834  -0.34735  -0.34376
 Alpha  occ. eigenvalues --   -0.34338  -0.34172  -0.33807  -0.33640  -0.33499
 Alpha  occ. eigenvalues --   -0.33228  -0.32825  -0.32713  -0.32547  -0.32453
 Alpha  occ. eigenvalues --   -0.32196  -0.31628  -0.31156  -0.31010  -0.30477
 Alpha  occ. eigenvalues --   -0.30296  -0.29865  -0.28859  -0.28806  -0.28238
 Alpha  occ. eigenvalues --   -0.27418  -0.26361  -0.25360  -0.24753  -0.21655
 Alpha  occ. eigenvalues --   -0.21416
 Alpha virt. eigenvalues --   -0.07060  -0.04870  -0.00998   0.01367   0.02743
 Alpha virt. eigenvalues --    0.03324   0.03712   0.04405   0.05655   0.05927
 Alpha virt. eigenvalues --    0.07750   0.07995   0.08832   0.09112   0.09744

 Mulliken charges:
               1
     1  Mg   0.817688
     2  C    0.139341
     3  C   -0.197769
     4  C   -0.203118
     5  C   -0.188785
     6  N   -0.618663
     7  C    0.233479
     8  C   -0.113967
     9  C   -0.174311
    10  C    0.393649
    11  C   -0.292744
    12  C   -0.175685
    13  C   -0.261093
    14  C    0.590251
    15  O   -0.452178
    16  O   -0.444206
    17  N   -0.729822
    18  C    0.334121
    19  C   -0.006094
    20  C   -0.011253
    21  C    0.345980
    22  C   -0.368330
    23  C   -0.052851
    24  C   -0.261909
    25  N   -0.695150
    26  C    0.311292
    27  C   -0.016021
    28  C    0.015152
    29  C    0.312368
    30  C   -0.374285
    31  C   -0.238094
    32  C   -0.293750
    33  N   -0.719182
    34  C    0.269023
    35  C   -0.040841
    36  C    0.077633
    37  C    0.276446
    38  C   -0.358746
    39  C    0.351687
    40  O   -0.500698
    41  C   -0.332231
    42  C    0.618930
    43  O   -0.518419
    44  O   -0.412658
    45  C   -0.069709
    46  C    0.002396
    47  C   -0.148940
    48  C    0.153014
    49  C   -0.374487
    50  C   -0.215815
    51  C   -0.187007
    52  C   -0.169532
    53  C   -0.036879
    54  C   -0.329353
    55  C   -0.190030
    56  C   -0.180894
    57  C   -0.189625
    58  C   -0.049091
    59  C   -0.313564
    60  C   -0.143706
    61  C   -0.186350
    62  C   -0.157965
    63  C   -0.030626
    64  C   -0.302177
    65  C   -0.294154
    66  H    0.065558
    67  H    0.092792
    68  H    0.082678
    69  H    0.137435
    70  H    0.073444
    71  H    0.107283
    72  H    0.101272
    73  H    0.108498
    74  H    0.121281
    75  H    0.106463
    76  H    0.135246
    77  H    0.145319
    78  H    0.135697
    79  H    0.130159
    80  H    0.123808
    81  H    0.079333
    82  H    0.119578
    83  H    0.106004
    84  H    0.128408
    85  H    0.103096
    86  H    0.131263
    87  H    0.106724
    88  H    0.107815
    89  H    0.109966
    90  H    0.124680
    91  H    0.111048
    92  H    0.127182
    93  H    0.126878
    94  H    0.129983
    95  H    0.141414
    96  H    0.070427
    97  H    0.160607
    98  H    0.130959
    99  H    0.121084
   100  H    0.083030
   101  H    0.092993
   102  H    0.106411
   103  H    0.129342
   104  H    0.119291
   105  H    0.099433
   106  H    0.089252
   107  H    0.089790
   108  H    0.073366
   109  H    0.092715
   110  H    0.093286
   111  H    0.084825
   112  H    0.111052
   113  H    0.080969
   114  H    0.112761
   115  H    0.075308
   116  H    0.094079
   117  H    0.105297
   118  H    0.080610
   119  H    0.087470
   120  H    0.073945
   121  H    0.080155
   122  H    0.088363
   123  H    0.084682
   124  H    0.105041
   125  H    0.096829
   126  H    0.090327
   127  H    0.081850
   128  H    0.090774
   129  H    0.071762
   130  H    0.047487
   131  H    0.096338
   132  H    0.100538
   133  H    0.107577
   134  H    0.084019
   135  H    0.110550
   136  H    0.050665
   137  H    0.114739
 Sum of Mulliken charges =  -0.00000

 Dipole moment (field-independent basis, Debye):
    X=             -0.7244    Y=              5.2279    Z=             -0.2976  Tot=              5.2863
 Quadrupole moment (field-independent basis, Debye-Ang):
   XX=           -334.6847   YY=           -396.1588   ZZ=           -400.5349
   XY=            -28.0246   XZ=             19.5090   YZ=             -0.7713

 Normal termination of Gaussian 16 at Thu Oct 24 01:54:47 2019.
