 Gaussian 16, Revision A.03,
 Gaussian 16:  ES64L-G16RevA.03 25-Dec-2016

 ----------------------------------------------------------------------
 # td=(NStates=10) iop(3/107=0140000000,3/108=0140000000) CAM-B3LYP/6-3
 1G(d,p)
 ----------------------------------------------------------------------

 --
 TD
 --
 Symbolic Z-matrix:
 Charge =  0 Multiplicity = 1

                         Standard orientation:
 ---------------------------------------------------------------------
 Center     Atomic      Atomic             Coordinates (Angstroms)
 Number     Number       Type             X           Y           Z
 ---------------------------------------------------------------------
      1         12           0       -7.259991    0.521388    0.176326
      2          6           0       -4.855516   -1.922514    0.525509
      3          6           0       -4.831619    2.794143    1.173658
      4          6           0       -9.448411    3.082937   -0.287213
      5          6           0       -9.525111   -1.820994   -0.824252
      6          7           0       -5.121562    0.414192    0.817110
      7          6           0       -4.369851   -0.687735    0.859459
      8          6           0       -2.941631   -0.408441    1.268210
      9          6           0       -3.083705    1.062475    1.693712
     10          6           0       -4.328251    1.482429    1.069237
     11          6           0       -3.074564    1.152501    3.361927
     12          6           0       -1.955290   -0.573539    0.035652
     13          6           0       -0.523458   -0.274065    0.417825
     14          6           0        0.493051   -0.578890   -0.768360
     15          8           0        0.160127   -0.923822   -1.868524
     16          8           0        1.764798   -0.460904   -0.312553
     17          7           0       -7.208759    2.645162    0.383765
     18          6           0       -6.067214    3.294543    0.772967
     19          6           0       -6.484826    4.824653    0.804607
     20          6           0       -7.770058    4.825724    0.310115
     21          6           0       -8.174706    3.481868    0.192277
     22          6           0       -5.685971    5.888717    1.408972
     23          6           0       -8.569742    5.976631    0.302186
     24          6           0       -8.221323    7.244639   -0.040368
     25          7           0       -9.242841    0.554613   -0.381685
     26          6           0       -9.946291    1.771744   -0.456160
     27          6           0      -11.272962    1.392198   -1.000013
     28          6           0      -11.310272    0.016702   -1.153286
     29          6           0       -9.941926   -0.424835   -0.768777
     30          6           0      -12.347871    2.334245   -1.307838
     31          6           0      -12.444793   -0.848705   -1.855171
     32          6           0      -12.104060   -1.244633   -3.333530
     33          7           0       -7.279592   -1.496421   -0.143656
     34          6           0       -8.257076   -2.275191   -0.475187
     35          6           0       -7.808462   -3.717280   -0.434916
     36          6           0       -6.483697   -3.596057   -0.041728
     37          6           0       -6.199237   -2.235643    0.196119
     38          6           0       -8.627596   -4.905955   -0.841188
     39          6           0       -5.295292   -4.406006    0.170365
     40          8           0       -5.186059   -5.583728    0.096797
     41          6           0       -4.123661   -3.297258    0.534293
     42          6           0       -3.479526   -3.706754    1.762956
     43          8           0       -3.669330   -3.218583    2.907227
     44          8           0       -2.629452   -4.744735    1.746897
     45          6           0       -1.899976   -5.044599    2.857614
     46          6           0        2.788810   -0.388811   -1.417127
     47          6           0        4.106785   -0.343943   -0.687212
     48          6           0        5.143500    0.469115   -0.983721
     49          6           0        5.153027    1.433922   -2.248447
     50          6           0        6.368899    0.442172   -0.132858
     51          6           0        7.647799    0.089216   -0.955346
     52          6           0        8.922605    0.029966   -0.162763
     53          6           0       10.210320   -0.296579   -1.022176
     54          6           0       10.192388   -1.783463   -1.420203
     55          6           0       11.442386   -0.059888   -0.021454
     56          6           0       12.834275   -0.497341   -0.761314
     57          6           0       13.963474   -0.181464    0.165227
     58          6           0       15.337824   -0.248876   -0.504494
     59          6           0       15.537630   -1.673588   -0.912329
     60          6           0       16.456502    0.308946    0.447709
     61          6           0       17.911025    0.425627   -0.100331
     62          6           0       18.890767    1.113711    0.807760
     63          6           0       20.407516    1.162840    0.324219
     64          6           0       20.421058    1.981276   -0.952895
     65          6           0       21.220222    1.678685    1.417881
     66          1           0       -4.110440    3.547390    1.677709
     67          1           0      -10.330186    3.892965   -0.421806
     68          1           0      -10.265194   -2.452197   -1.372374
     69          1           0       -2.817125   -1.070859    2.016738
     70          1           0       -2.381069    1.579311    1.106299
     71          1           0       -2.066863    1.035630    3.814018
     72          1           0       -3.460714    2.247826    3.723070
     73          1           0       -3.791760    0.499928    3.693760
     74          1           0       -1.900286   -1.511806   -0.552718
     75          1           0       -2.362289    0.283848   -0.635596
     76          1           0       -0.161149    0.689641    0.566080
     77          1           0        0.017427   -0.823508    1.287039
     78          1           0       -5.005797    6.395763    0.698283
     79          1           0       -6.511399    6.720576    1.586857
     80          1           0       -5.057163    5.345664    2.293542
     81          1           0       -9.663662    5.765063    0.579440
     82          1           0       -8.895434    8.024335   -0.107042
     83          1           0       -7.254054    7.635853   -0.202172
     84          1           0      -12.220112    3.067955   -2.142267
     85          1           0      -13.445111    1.913685   -1.406866
     86          1           0      -12.581660    3.170442   -0.497913
     87          1           0      -12.530760   -1.777621   -1.099596
     88          1           0      -13.351011   -0.368548   -1.767144
     89          1           0      -12.629603   -2.032980   -3.590356
     90          1           0      -12.146126   -0.348381   -3.950699
     91          1           0      -11.070412   -1.671145   -3.213825
     92          1           0       -9.094603   -4.885335   -1.896104
     93          1           0       -8.032331   -5.826215   -0.380698
     94          1           0       -9.453397   -4.780592   -0.286469
     95          1           0       -3.503533   -3.454621   -0.218839
     96          1           0       -1.399667   -4.057423    3.303114
     97          1           0       -2.640116   -5.516531    3.665047
     98          1           0       -0.962893   -5.637312    2.764347
     99          1           0        2.561014   -1.244228   -2.007835
    100          1           0        2.671587    0.525401   -2.116924
    101          1           0        4.415062   -0.975620    0.120676
    102          1           0        4.153332    1.655478   -2.754305
    103          1           0        5.543724    2.442058   -1.799572
    104          1           0        5.943338    1.062883   -2.972964
    105          1           0        6.553962    1.475237    0.028595
    106          1           0        6.183627   -0.069860    0.623253
    107          1           0        7.316636   -0.960073   -1.263099
    108          1           0        7.686957    0.585037   -1.800053
    109          1           0        9.071352    0.990477    0.420744
    110          1           0        8.925266   -0.371813    0.820698
    111          1           0       10.308041    0.538862   -1.769828
    112          1           0        9.366276   -2.097026   -1.993587
    113          1           0       11.070518   -1.820082   -2.257023
    114          1           0       10.509646   -2.318316   -0.505788
    115          1           0       11.556190    0.901497    0.259563
    116          1           0       11.466433   -0.471897    0.964534
    117          1           0       12.800666   -1.581018   -1.149097
    118          1           0       12.834556   -0.023009   -1.570626
    119          1           0       13.746145    0.973721    0.469569
    120          1           0       13.819367   -0.859663    0.978514
    121          1           0       15.330862    0.505417   -1.313942
    122          1           0       15.416606   -2.504994    0.045741
    123          1           0       14.858266   -2.064312   -1.698675
    124          1           0       16.586079   -1.715496   -1.179842
    125          1           0       16.062467    1.298123    0.872736
    126          1           0       16.537272   -0.407452    1.345853
    127          1           0       18.232984   -0.478808   -0.458914
    128          1           0       17.725474    1.018840   -1.013368
    129          1           0       18.573933    2.247539    1.119162
    130          1           0       18.838917    0.476873    1.682143
    131          1           0       20.339687   -0.026456   -0.054188
    132          1           0       19.956812    2.996874   -0.663652
    133          1           0       21.481019    2.100164   -1.359596
    134          1           0       19.841021    1.646713   -1.752050
    135          1           0       21.215191    1.057158    2.302295
    136          1           0       22.229141    1.615610    1.114586
    137          1           0       20.942060    2.738602    1.791204
 ---------------------------------------------------------------------

 SCF Done:  E(RCAM-B3LYP) =  -2933.48209240     A.U. after   15 cycles

 Excitation energies and oscillator strengths:

 Excited State   1:      Singlet-A      2.0126 eV  616.03 nm  f=0.2443  <S**2>=0.000
     240 -> 243       -0.23373
     241 -> 242        0.66117
 This state for optimization and/or second-order correction.
 Total Energy, E(TD-HF/TD-DFT) =  -2933.40812950
 Copying the excited state density for this state as the 1-particle RhoCI density.

 Excited State   2:      Singlet-A      2.2829 eV  543.10 nm  f=0.0004  <S**2>=0.000
     240 -> 242        0.52993
     241 -> 243        0.45287

 Excited State   3:      Singlet-A      3.1375 eV  395.16 nm  f=0.7947  <S**2>=0.000
     239 -> 242        0.12477
     240 -> 242       -0.42749
     240 -> 244        0.12234
     241 -> 243        0.51418

 Excited State   4:      Singlet-A      3.2611 eV  380.19 nm  f=0.0465  <S**2>=0.000
     239 -> 242        0.66186
     239 -> 243       -0.13728

 Excited State   5:      Singlet-A      3.4050 eV  364.13 nm  f=0.4168  <S**2>=0.000
     238 -> 242        0.30061
     238 -> 243        0.10896
     240 -> 243        0.53877
     241 -> 242        0.19924
     241 -> 244       -0.23129

 Excited State   6:      Singlet-A      3.4965 eV  354.60 nm  f=0.1050  <S**2>=0.000
     238 -> 242        0.60783
     240 -> 243       -0.21760
     241 -> 244        0.21995

 Excited State   7:      Singlet-A      3.5576 eV  348.51 nm  f=0.0220  <S**2>=0.000
     235 -> 242        0.59911
     235 -> 244       -0.23892
     236 -> 242        0.17870

 Excited State   8:      Singlet-A      3.6855 eV  336.41 nm  f=0.2170  <S**2>=0.000
     236 -> 242        0.27108
     238 -> 242       -0.10607
     240 -> 243        0.26664
     241 -> 244        0.55998

 Excited State   9:      Singlet-A      3.8048 eV  325.87 nm  f=0.1919  <S**2>=0.000
     235 -> 242       -0.18005
     236 -> 242        0.58720
     238 -> 243       -0.10763
     240 -> 242        0.10747
     241 -> 244       -0.25304

 Excited State  10:      Singlet-A      3.9393 eV  314.74 nm  f=0.0401  <S**2>=0.000
     238 -> 243        0.35531
     239 -> 243        0.52242
     240 -> 244       -0.12508
     241 -> 245        0.21065

 The electronic state is 1-A.
 Alpha  occ. eigenvalues --  -46.81882 -19.21712 -19.21711 -19.17626 -19.16746
 Alpha  occ. eigenvalues --  -19.14844 -14.37736 -14.35691 -14.35321 -14.35006
 Alpha  occ. eigenvalues --  -10.34137 -10.34077 -10.31342 -10.28309 -10.27690
 Alpha  occ. eigenvalues --  -10.25677 -10.25617 -10.25438 -10.24956 -10.24802
 Alpha  occ. eigenvalues --  -10.24598 -10.24557 -10.24355 -10.24177 -10.23853
 Alpha  occ. eigenvalues --  -10.23834 -10.23821 -10.23704 -10.23366 -10.23163
 Alpha  occ. eigenvalues --  -10.23135 -10.23109 -10.23087 -10.23064 -10.23028
 Alpha  occ. eigenvalues --  -10.22955 -10.22862 -10.22850 -10.22825 -10.22818
 Alpha  occ. eigenvalues --  -10.22678 -10.22660 -10.22326 -10.22014 -10.22001
 Alpha  occ. eigenvalues --  -10.21782 -10.21622 -10.21596 -10.21495 -10.21399
 Alpha  occ. eigenvalues --  -10.21386 -10.21187 -10.21023 -10.20851 -10.20822
 Alpha  occ. eigenvalues --  -10.20792 -10.20769 -10.20767 -10.20348 -10.20314
 Alpha  occ. eigenvalues --  -10.20306 -10.20048 -10.20037 -10.19995 -10.19157
 Alpha  occ. eigenvalues --   -3.10157  -1.85124  -1.84607  -1.84551  -1.13895
 Alpha  occ. eigenvalues --   -1.12138  -1.08929  -1.04297  -1.01481  -1.01016
 Alpha  occ. eigenvalues --   -1.00239  -0.99736  -0.98792  -0.87905  -0.86598
 Alpha  occ. eigenvalues --   -0.85411  -0.84847  -0.84622  -0.84308  -0.83494
 Alpha  occ. eigenvalues --   -0.83188  -0.82740  -0.82108  -0.81687  -0.80857
 Alpha  occ. eigenvalues --   -0.80294  -0.79513  -0.78793  -0.78381  -0.77376
 Alpha  occ. eigenvalues --   -0.76536  -0.76263  -0.76125  -0.74835  -0.73657
 Alpha  occ. eigenvalues --   -0.72893  -0.72279  -0.72057  -0.71805  -0.71574
 Alpha  occ. eigenvalues --   -0.70683  -0.70176  -0.69474  -0.69033  -0.68000
 Alpha  occ. eigenvalues --   -0.67662  -0.66170  -0.65364  -0.65077  -0.64512
 Alpha  occ. eigenvalues --   -0.63752  -0.63590  -0.62334  -0.61524  -0.60496
 Alpha  occ. eigenvalues --   -0.60175  -0.60161  -0.58426  -0.58343  -0.58003
 Alpha  occ. eigenvalues --   -0.57079  -0.56360  -0.55776  -0.55575  -0.55102
 Alpha  occ. eigenvalues --   -0.54959  -0.54518  -0.54054  -0.53613  -0.52504
 Alpha  occ. eigenvalues --   -0.52216  -0.51706  -0.51534  -0.51151  -0.50743
 Alpha  occ. eigenvalues --   -0.50635  -0.50375  -0.50296  -0.49961  -0.49410
 Alpha  occ. eigenvalues --   -0.48916  -0.48663  -0.48246  -0.47941  -0.47811
 Alpha  occ. eigenvalues --   -0.47752  -0.47701  -0.47375  -0.47240  -0.47061
 Alpha  occ. eigenvalues --   -0.46752  -0.46676  -0.46366  -0.46148  -0.45927
 Alpha  occ. eigenvalues --   -0.45474  -0.45333  -0.45235  -0.45060  -0.44850
 Alpha  occ. eigenvalues --   -0.44746  -0.44261  -0.44152  -0.43941  -0.43561
 Alpha  occ. eigenvalues --   -0.43510  -0.43316  -0.43023  -0.43004  -0.42690
 Alpha  occ. eigenvalues --   -0.42370  -0.42236  -0.42137  -0.42084  -0.42025
 Alpha  occ. eigenvalues --   -0.41770  -0.41587  -0.41485  -0.41138  -0.41018
 Alpha  occ. eigenvalues --   -0.40950  -0.40888  -0.40371  -0.40240  -0.39694
 Alpha  occ. eigenvalues --   -0.39627  -0.39409  -0.39158  -0.39087  -0.39000
 Alpha  occ. eigenvalues --   -0.38798  -0.38561  -0.38490  -0.38390  -0.38244
 Alpha  occ. eigenvalues --   -0.38172  -0.37765  -0.37651  -0.37353  -0.37338
 Alpha  occ. eigenvalues --   -0.37058  -0.36923  -0.36610  -0.36463  -0.36143
 Alpha  occ. eigenvalues --   -0.35984  -0.35798  -0.35564  -0.35329  -0.35290
 Alpha  occ. eigenvalues --   -0.34773  -0.34418  -0.33728  -0.33689  -0.33312
 Alpha  occ. eigenvalues --   -0.33098  -0.32943  -0.32740  -0.32257  -0.31894
 Alpha  occ. eigenvalues --   -0.31882  -0.31360  -0.30991  -0.30159  -0.29999
 Alpha  occ. eigenvalues --   -0.29876  -0.29594  -0.28722  -0.28601  -0.27452
 Alpha  occ. eigenvalues --   -0.27302  -0.26702  -0.25720  -0.24697  -0.21685
 Alpha  occ. eigenvalues --   -0.19311
 Alpha virt. eigenvalues --   -0.06649  -0.03806  -0.00207   0.01862   0.03396
 Alpha virt. eigenvalues --    0.04014   0.04270   0.04359   0.05113   0.05630
 Alpha virt. eigenvalues --    0.07015   0.08924   0.09538   0.09921   0.10215

 Mulliken charges:
               1
     1  Mg   0.834797
     2  C    0.064669
     3  C   -0.196461
     4  C   -0.169243
     5  C   -0.184812
     6  N   -0.600255
     7  C    0.306659
     8  C   -0.149957
     9  C   -0.136492
    10  C    0.290101
    11  C   -0.303837
    12  C   -0.177239
    13  C   -0.254013
    14  C    0.579695
    15  O   -0.463977
    16  O   -0.483494
    17  N   -0.690092
    18  C    0.291069
    19  C    0.022574
    20  C    0.047711
    21  C    0.329302
    22  C   -0.378110
    23  C   -0.105514
    24  C   -0.255097
    25  N   -0.701210
    26  C    0.266087
    27  C    0.065198
    28  C   -0.014993
    29  C    0.329781
    30  C   -0.414365
    31  C   -0.235812
    32  C   -0.298355
    33  N   -0.717660
    34  C    0.317481
    35  C   -0.000895
    36  C    0.028993
    37  C    0.274530
    38  C   -0.379281
    39  C    0.344330
    40  O   -0.419592
    41  C   -0.316128
    42  C    0.616455
    43  O   -0.509667
    44  O   -0.413077
    45  C   -0.066489
    46  C    0.004211
    47  C   -0.120378
    48  C    0.105232
    49  C   -0.367073
    50  C   -0.196789
    51  C   -0.168892
    52  C   -0.174156
    53  C   -0.059458
    54  C   -0.285367
    55  C   -0.211042
    56  C   -0.175991
    57  C   -0.157404
    58  C   -0.047755
    59  C   -0.295519
    60  C   -0.177262
    61  C   -0.185283
    62  C   -0.155556
    63  C   -0.043499
    64  C   -0.289678
    65  C   -0.307072
    66  H    0.079356
    67  H    0.083769
    68  H    0.079831
    69  H    0.126585
    70  H    0.101773
    71  H    0.121802
    72  H    0.083134
    73  H    0.147791
    74  H    0.131280
    75  H    0.103714
    76  H    0.140570
    77  H    0.125934
    78  H    0.128193
    79  H    0.111195
    80  H    0.102329
    81  H    0.086171
    82  H    0.103454
    83  H    0.100700
    84  H    0.124216
    85  H    0.104211
    86  H    0.097086
    87  H    0.083201
    88  H    0.108828
    89  H    0.121008
    90  H    0.121352
    91  H    0.100284
    92  H    0.125821
    93  H    0.136552
    94  H    0.145153
    95  H    0.156493
    96  H    0.093255
    97  H    0.110151
    98  H    0.119417
    99  H    0.146609
   100  H    0.109879
   101  H    0.080781
   102  H    0.110405
   103  H    0.101238
   104  H    0.126219
   105  H    0.105908
   106  H    0.091425
   107  H    0.083797
   108  H    0.098657
   109  H    0.063191
   110  H    0.092785
   111  H    0.087798
   112  H    0.112852
   113  H    0.075193
   114  H    0.119856
   115  H    0.098554
   116  H    0.088310
   117  H    0.079663
   118  H    0.100506
   119  H    0.052457
   120  H    0.096963
   121  H    0.084031
   122  H    0.065112
   123  H    0.111156
   124  H    0.100300
   125  H    0.081920
   126  H    0.070074
   127  H    0.101646
   128  H    0.084624
   129  H    0.056785
   130  H    0.090022
   131  H    0.059219
   132  H    0.083517
   133  H    0.086240
   134  H    0.114736
   135  H    0.110079
   136  H    0.107589
   137  H    0.100713
 Sum of Mulliken charges =  -0.00000

 Dipole moment (field-independent basis, Debye):
    X=              2.6775    Y=              4.0109    Z=             -0.6334  Tot=              4.8639
 Quadrupole moment (field-independent basis, Debye-Ang):
   XX=           -343.3820   YY=           -401.2228   ZZ=           -399.2761
   XY=            -12.9130   XZ=             11.8627   YZ=              0.5542

 Normal termination of Gaussian 16 at Wed Oct 23 04:27:28 2019.
