 Gaussian 16, Revision A.03,
 Gaussian 16:  ES64L-G16RevA.03 25-Dec-2016

 ----------------------------------------------------------------------
 # td=(NStates=10) iop(3/107=0140000000,3/108=0140000000) CAM-B3LYP/6-3
 1G(d,p)
 ----------------------------------------------------------------------

 --
 TD
 --
 Symbolic Z-matrix:
 Charge =  0 Multiplicity = 1

                         Standard orientation:
 ---------------------------------------------------------------------
 Center     Atomic      Atomic             Coordinates (Angstroms)
 Number     Number       Type             X           Y           Z
 ---------------------------------------------------------------------
      1         12           0       -7.063132    0.558746    0.161362
      2          6           0       -4.873968   -1.959712    0.509186
      3          6           0       -4.788005    2.955736    1.080955
      4          6           0       -9.503624    3.098493   -0.347337
      5          6           0       -9.559731   -1.699051   -0.941850
      6          7           0       -5.161987    0.497094    0.742490
      7          6           0       -4.380931   -0.687961    0.935155
      8          6           0       -2.837841   -0.339988    1.171485
      9          6           0       -3.018609    1.108399    1.575521
     10          6           0       -4.443132    1.593440    1.130711
     11          6           0       -2.962018    1.177837    3.073234
     12          6           0       -1.965591   -0.622290    0.050966
     13          6           0       -0.504143   -0.230147    0.321912
     14          6           0        0.464968   -0.627342   -0.728690
     15          8           0        0.353650   -1.004766   -1.850156
     16          8           0        1.679729   -0.271928   -0.263667
     17          7           0       -7.173931    2.574733    0.361627
     18          6           0       -6.073248    3.363819    0.734532
     19          6           0       -6.412781    4.718704    0.760703
     20          6           0       -7.701582    4.812324    0.362538
     21          6           0       -8.223115    3.407196    0.162871
     22          6           0       -5.601370    5.939671    1.369581
     23          6           0       -8.658471    5.943168    0.223844
     24          6           0       -8.108721    7.256473    0.044723
     25          7           0       -9.128130    0.735818   -0.439069
     26          6           0       -9.956539    1.804600   -0.578258
     27          6           0      -11.241566    1.446936   -1.032804
     28          6           0      -11.264927    0.123667   -1.102356
     29          6           0       -9.929912   -0.412092   -0.828718
     30          6           0      -12.331782    2.366234   -1.296469
     31          6           0      -12.408989   -0.817032   -1.655593
     32          6           0      -12.320162   -1.251981   -3.146768
     33          7           0       -7.325739   -1.426825   -0.105490
     34          6           0       -8.298862   -2.239808   -0.474555
     35          6           0       -7.847016   -3.603719   -0.501318
     36          6           0       -6.571538   -3.577814    0.063720
     37          6           0       -6.295570   -2.242383    0.184710
     38          6           0       -8.585893   -4.876926   -1.004816
     39          6           0       -5.301640   -4.377996    0.227852
     40          8           0       -5.100598   -5.609933    0.283938
     41          6           0       -4.203009   -3.304895    0.515528
     42          6           0       -3.636348   -3.666987    1.922167
     43          8           0       -3.910470   -3.135278    2.941813
     44          8           0       -2.814887   -4.738302    1.797112
     45          6           0       -2.001681   -5.036937    3.001673
     46          6           0        2.761483   -0.606945   -1.219038
     47          6           0        4.120801   -0.361943   -0.533847
     48          6           0        5.172442    0.323789   -1.055107
     49          6           0        5.093987    1.292223   -2.147074
     50          6           0        6.541544    0.378921   -0.260630
     51          6           0        7.683873   -0.099540   -1.050937
     52          6           0        8.877279   -0.125147   -0.153787
     53          6           0       10.200555   -0.538618   -0.912492
     54          6           0       10.063715   -1.985783   -1.569104
     55          6           0       11.391480   -0.365616    0.066132
     56          6           0       12.817934   -0.651126   -0.700818
     57          6           0       13.987346   -0.246794    0.132666
     58          6           0       15.395715   -0.218109   -0.461547
     59          6           0       15.824187   -1.581527   -0.920533
     60          6           0       16.493068    0.378621    0.406522
     61          6           0       17.967851    0.469183   -0.140169
     62          6           0       18.709927    1.169334    0.815499
     63          6           0       20.328757    1.322275    0.365420
     64          6           0       20.389259    2.144423   -0.882883
     65          6           0       21.229620    1.979426    1.393896
     66          1           0       -4.051682    3.736307    1.039771
     67          1           0      -10.190251    3.974197   -0.469501
     68          1           0      -10.213382   -2.684651   -1.238829
     69          1           0       -2.591218   -0.832255    2.078268
     70          1           0       -2.178662    1.835053    1.303637
     71          1           0       -2.110627    0.810407    3.456773
     72          1           0       -2.931737    2.306737    3.600536
     73          1           0       -3.837948    0.573236    3.498716
     74          1           0       -1.927213   -1.725065   -0.222151
     75          1           0       -2.271009    0.102710   -0.898837
     76          1           0       -0.376891    0.945619    0.415245
     77          1           0       -0.131028   -0.818698    1.211732
     78          1           0       -5.062268    6.473432    0.431936
     79          1           0       -6.223398    6.505203    1.810714
     80          1           0       -5.085250    5.532174    2.036951
     81          1           0       -9.819573    5.873999    0.443098
     82          1           0       -8.757153    8.288702   -0.020849
     83          1           0       -7.162077    7.407617    0.037322
     84          1           0      -12.121728    2.927970   -1.968256
     85          1           0      -13.148774    1.781989   -1.473011
     86          1           0      -12.539900    3.207768   -0.435264
     87          1           0      -12.418134   -1.712023   -1.171422
     88          1           0      -13.473006   -0.413924   -1.445279
     89          1           0      -13.139435   -1.750723   -3.409295
     90          1           0      -12.023752   -0.329677   -3.794684
     91          1           0      -11.518606   -1.912370   -3.089954
     92          1           0       -8.768671   -4.774434   -2.002899
     93          1           0       -8.124049   -5.943395   -0.866660
     94          1           0       -9.435585   -5.031955   -0.378906
     95          1           0       -3.237787   -3.401518   -0.269418
     96          1           0       -1.547324   -4.159175    3.466995
     97          1           0       -2.713789   -5.463760    3.484515
     98          1           0       -1.271076   -5.704966    2.691919
     99          1           0        2.555090   -1.888842   -1.549944
    100          1           0        2.495427   -0.111944   -2.241350
    101          1           0        4.242546   -1.067413    0.242018
    102          1           0        4.090775    1.550293   -2.338686
    103          1           0        5.719284    2.239586   -1.863136
    104          1           0        5.551782    0.601679   -3.007737
    105          1           0        6.714513    1.403659    0.011303
    106          1           0        6.479812   -0.465462    0.485319
    107          1           0        7.302390   -1.078295   -1.541639
    108          1           0        8.085816    0.411603   -1.888111
    109          1           0        8.822517    0.870901    0.396444
    110          1           0        8.778172   -0.919047    0.772331
    111          1           0       10.352933    0.300367   -1.579690
    112          1           0        9.243115   -2.111092   -2.247735
    113          1           0       10.963183   -2.027597   -2.349851
    114          1           0       10.026653   -2.725309   -0.808536
    115          1           0       11.429233    0.570220    0.653305
    116          1           0       11.325697   -1.159126    0.771040
    117          1           0       12.701515   -1.608905   -1.116641
    118          1           0       12.804232    0.215609   -1.504245
    119          1           0       13.759579    0.807252    0.316439
    120          1           0       14.078396   -0.812190    1.103448
    121          1           0       15.246380    0.297734   -1.433373
    122          1           0       15.698681   -2.380045   -0.203555
    123          1           0       14.961685   -1.874750   -1.559226
    124          1           0       16.787165   -1.809204   -1.337395
    125          1           0       16.138441    1.449974    0.874812
    126          1           0       16.665456   -0.267761    1.306397
    127          1           0       18.329642   -0.523095   -0.360467
    128          1           0       17.933865    1.101113   -1.185605
    129          1           0       18.560704    2.135276    1.240421
    130          1           0       18.837443    0.476740    1.734674
    131          1           0       20.782279    0.404776    0.139218
    132          1           0       19.862088    3.084392   -0.644597
    133          1           0       21.337806    2.466210   -1.321355
    134          1           0       19.993157    1.711626   -1.759476
    135          1           0       21.069991    1.468956    2.211620
    136          1           0       22.241163    2.050526    1.100635
    137          1           0       20.840247    2.985915    1.767232
 ---------------------------------------------------------------------

 SCF Done:  E(RCAM-B3LYP) =  -2933.41717215     A.U. after   16 cycles

 Excitation energies and oscillator strengths:

 Excited State   1:      Singlet-A      2.0473 eV  605.60 nm  f=0.2865  <S**2>=0.000
     240 -> 243        0.20429
     241 -> 242        0.67216
 This state for optimization and/or second-order correction.
 Total Energy, E(TD-HF/TD-DFT) =  -2933.34193565
 Copying the excited state density for this state as the 1-particle RhoCI density.

 Excited State   2:      Singlet-A      2.3090 eV  536.97 nm  f=0.0596  <S**2>=0.000
     240 -> 242        0.60426
     241 -> 243       -0.34298

 Excited State   3:      Singlet-A      3.0223 eV  410.23 nm  f=0.0521  <S**2>=0.000
     239 -> 242        0.67386
     240 -> 243       -0.10659

 Excited State   4:      Singlet-A      3.2652 eV  379.71 nm  f=0.6179  <S**2>=0.000
     238 -> 242       -0.16345
     240 -> 242        0.32930
     241 -> 243        0.58438

 Excited State   5:      Singlet-A      3.3307 eV  372.25 nm  f=0.0665  <S**2>=0.000
     237 -> 242       -0.11195
     238 -> 242        0.65375
     241 -> 243        0.14098

 Excited State   6:      Singlet-A      3.4291 eV  361.56 nm  f=0.0180  <S**2>=0.000
     235 -> 242        0.17209
     235 -> 244        0.16171
     237 -> 242        0.56187
     237 -> 244        0.28892

 Excited State   7:      Singlet-A      3.4923 eV  355.03 nm  f=0.4001  <S**2>=0.000
     235 -> 242       -0.26023
     237 -> 242        0.13090
     238 -> 242        0.15342
     238 -> 243       -0.12699
     239 -> 242        0.13059
     240 -> 243        0.55562
     241 -> 242       -0.17209

 Excited State   8:      Singlet-A      3.5907 eV  345.30 nm  f=0.2253  <S**2>=0.000
     235 -> 242        0.55456
     237 -> 242       -0.15578
     240 -> 243        0.24107
     241 -> 244       -0.22533

 Excited State   9:      Singlet-A      3.6889 eV  336.10 nm  f=0.1191  <S**2>=0.000
     235 -> 242        0.13375
     237 -> 242       -0.11345
     240 -> 242       -0.10896
     240 -> 243        0.16709
     241 -> 244        0.61917
     241 -> 245        0.12351

 Excited State  10:      Singlet-A      3.9854 eV  311.10 nm  f=0.0162  <S**2>=0.000
     229 -> 242        0.16889
     231 -> 242        0.57456
     233 -> 242        0.22139
     234 -> 242        0.22816

 The electronic state is 1-A.
 Alpha  occ. eigenvalues --  -46.79460 -19.21030 -19.20750 -19.16671 -19.16585
 Alpha  occ. eigenvalues --  -19.15821 -14.38455 -14.35285 -14.34989 -14.34811
 Alpha  occ. eigenvalues --  -10.33988 -10.33603 -10.30808 -10.29519 -10.27467
 Alpha  occ. eigenvalues --  -10.26904 -10.25447 -10.25447 -10.25257 -10.25135
 Alpha  occ. eigenvalues --  -10.25030 -10.24439 -10.24396 -10.24265 -10.24046
 Alpha  occ. eigenvalues --  -10.24016 -10.23950 -10.23680 -10.23633 -10.23617
 Alpha  occ. eigenvalues --  -10.23212 -10.23085 -10.22965 -10.22932 -10.22916
 Alpha  occ. eigenvalues --  -10.22682 -10.22566 -10.22485 -10.22291 -10.22194
 Alpha  occ. eigenvalues --  -10.22132 -10.21923 -10.21894 -10.21868 -10.21834
 Alpha  occ. eigenvalues --  -10.21834 -10.21832 -10.21599 -10.21560 -10.21555
 Alpha  occ. eigenvalues --  -10.21151 -10.21068 -10.21026 -10.20952 -10.20843
 Alpha  occ. eigenvalues --  -10.20755 -10.20750 -10.20642 -10.20633 -10.20199
 Alpha  occ. eigenvalues --  -10.19835 -10.19595 -10.19039 -10.18372 -10.18364
 Alpha  occ. eigenvalues --   -3.08181  -1.83115  -1.82639  -1.82615  -1.13459
 Alpha  occ. eigenvalues --   -1.12597  -1.04572  -1.04059  -1.03718  -1.00211
 Alpha  occ. eigenvalues --   -0.98494  -0.97328  -0.96637  -0.86909  -0.86557
 Alpha  occ. eigenvalues --   -0.86306  -0.85619  -0.84294  -0.84126  -0.83569
 Alpha  occ. eigenvalues --   -0.83292  -0.83263  -0.82488  -0.81688  -0.81012
 Alpha  occ. eigenvalues --   -0.80518  -0.79299  -0.79123  -0.78848  -0.77789
 Alpha  occ. eigenvalues --   -0.76839  -0.76683  -0.76027  -0.74960  -0.74127
 Alpha  occ. eigenvalues --   -0.73571  -0.73247  -0.71933  -0.71520  -0.71074
 Alpha  occ. eigenvalues --   -0.70970  -0.70413  -0.69557  -0.68543  -0.67717
 Alpha  occ. eigenvalues --   -0.66803  -0.65483  -0.64937  -0.64129  -0.63721
 Alpha  occ. eigenvalues --   -0.62852  -0.61735  -0.60556  -0.60358  -0.60092
 Alpha  occ. eigenvalues --   -0.59508  -0.59242  -0.59157  -0.57831  -0.57157
 Alpha  occ. eigenvalues --   -0.56853  -0.56394  -0.56252  -0.55552  -0.55027
 Alpha  occ. eigenvalues --   -0.54699  -0.54229  -0.53397  -0.52913  -0.52620
 Alpha  occ. eigenvalues --   -0.52173  -0.52138  -0.51870  -0.51372  -0.50971
 Alpha  occ. eigenvalues --   -0.50507  -0.50488  -0.49947  -0.49856  -0.49417
 Alpha  occ. eigenvalues --   -0.49256  -0.49146  -0.48732  -0.48458  -0.48006
 Alpha  occ. eigenvalues --   -0.47836  -0.47548  -0.47464  -0.47286  -0.47054
 Alpha  occ. eigenvalues --   -0.46975  -0.46803  -0.46513  -0.45923  -0.45860
 Alpha  occ. eigenvalues --   -0.45662  -0.45547  -0.45426  -0.45117  -0.44987
 Alpha  occ. eigenvalues --   -0.44832  -0.44676  -0.44548  -0.44249  -0.44049
 Alpha  occ. eigenvalues --   -0.43947  -0.43716  -0.43597  -0.43241  -0.42880
 Alpha  occ. eigenvalues --   -0.42683  -0.42276  -0.42202  -0.41917  -0.41829
 Alpha  occ. eigenvalues --   -0.41571  -0.41354  -0.41034  -0.40745  -0.40356
 Alpha  occ. eigenvalues --   -0.40249  -0.40162  -0.39860  -0.39658  -0.39583
 Alpha  occ. eigenvalues --   -0.39449  -0.39190  -0.39142  -0.39104  -0.38861
 Alpha  occ. eigenvalues --   -0.38624  -0.38477  -0.38226  -0.38049  -0.37844
 Alpha  occ. eigenvalues --   -0.37721  -0.37514  -0.37407  -0.37315  -0.37172
 Alpha  occ. eigenvalues --   -0.37121  -0.36717  -0.36411  -0.36098  -0.35915
 Alpha  occ. eigenvalues --   -0.35882  -0.35554  -0.35309  -0.35195  -0.34913
 Alpha  occ. eigenvalues --   -0.34688  -0.34196  -0.33925  -0.33413  -0.33334
 Alpha  occ. eigenvalues --   -0.33252  -0.32772  -0.32676  -0.32411  -0.32258
 Alpha  occ. eigenvalues --   -0.32208  -0.32079  -0.31044  -0.30456  -0.30368
 Alpha  occ. eigenvalues --   -0.30096  -0.29895  -0.29809  -0.28486  -0.26894
 Alpha  occ. eigenvalues --   -0.26691  -0.26557  -0.25929  -0.25118  -0.21761
 Alpha  occ. eigenvalues --   -0.20130
 Alpha virt. eigenvalues --   -0.07284  -0.03388  -0.00512   0.01183   0.03364
 Alpha virt. eigenvalues --    0.03730   0.04263   0.04898   0.05790   0.05801
 Alpha virt. eigenvalues --    0.06196   0.08997   0.09074   0.09847   0.09964

 Mulliken charges:
               1
     1  Mg   0.816012
     2  C    0.069257
     3  C   -0.194573
     4  C   -0.177301
     5  C   -0.171066
     6  N   -0.644538
     7  C    0.235837
     8  C   -0.102663
     9  C   -0.165797
    10  C    0.370887
    11  C   -0.307563
    12  C   -0.148962
    13  C   -0.258948
    14  C    0.597641
    15  O   -0.463623
    16  O   -0.469149
    17  N   -0.714297
    18  C    0.319726
    19  C   -0.016756
    20  C    0.005429
    21  C    0.309410
    22  C   -0.316382
    23  C   -0.110565
    24  C   -0.224396
    25  N   -0.675199
    26  C    0.326198
    27  C    0.046397
    28  C    0.012951
    29  C    0.288491
    30  C   -0.330151
    31  C   -0.256221
    32  C   -0.297451
    33  N   -0.686511
    34  C    0.251735
    35  C   -0.029529
    36  C    0.015569
    37  C    0.268559
    38  C   -0.383904
    39  C    0.381687
    40  O   -0.470319
    41  C   -0.327382
    42  C    0.615996
    43  O   -0.449290
    44  O   -0.465975
    45  C   -0.084343
    46  C    0.007054
    47  C   -0.123829
    48  C    0.098740
    49  C   -0.334337
    50  C   -0.215201
    51  C   -0.162750
    52  C   -0.161869
    53  C   -0.066888
    54  C   -0.318247
    55  C   -0.188240
    56  C   -0.186598
    57  C   -0.160305
    58  C   -0.050508
    59  C   -0.323302
    60  C   -0.160515
    61  C   -0.156249
    62  C   -0.161545
    63  C   -0.083562
    64  C   -0.299762
    65  C   -0.304326
    66  H    0.100458
    67  H    0.079101
    68  H    0.094966
    69  H    0.122808
    70  H    0.086121
    71  H    0.124089
    72  H    0.072633
    73  H    0.121955
    74  H    0.109729
    75  H    0.097609
    76  H    0.135386
    77  H    0.129712
    78  H    0.105627
    79  H    0.133257
    80  H    0.115408
    81  H    0.107231
    82  H    0.086948
    83  H    0.102498
    84  H    0.134398
    85  H    0.113655
    86  H    0.080672
    87  H    0.113563
    88  H    0.083389
    89  H    0.117690
    90  H    0.098189
    91  H    0.114343
    92  H    0.132011
    93  H    0.130041
    94  H    0.128240
    95  H    0.140937
    96  H    0.123935
    97  H    0.152603
    98  H    0.130605
    99  H    0.077082
   100  H    0.121300
   101  H    0.088873
   102  H    0.126121
   103  H    0.103623
   104  H    0.114741
   105  H    0.104998
   106  H    0.105002
   107  H    0.081623
   108  H    0.098259
   109  H    0.084742
   110  H    0.052766
   111  H    0.089221
   112  H    0.116745
   113  H    0.094110
   114  H    0.119784
   115  H    0.091225
   116  H    0.095837
   117  H    0.106368
   118  H    0.071151
   119  H    0.091704
   120  H    0.079159
   121  H    0.078913
   122  H    0.093325
   123  H    0.091137
   124  H    0.105920
   125  H    0.057128
   126  H    0.084503
   127  H    0.107378
   128  H    0.073892
   129  H    0.107019
   130  H    0.075771
   131  H    0.085810
   132  H    0.089322
   133  H    0.087647
   134  H    0.097348
   135  H    0.106510
   136  H    0.109372
   137  H    0.078078
 Sum of Mulliken charges =  -0.00000

 Dipole moment (field-independent basis, Debye):
    X=              2.0302    Y=              4.6082    Z=              0.4597  Tot=              5.0565
 Quadrupole moment (field-independent basis, Debye-Ang):
   XX=           -360.6463   YY=           -391.3239   ZZ=           -400.2179
   XY=            -31.0195   XZ=             11.3270   YZ=              0.0371

 Normal termination of Gaussian 16 at Tue Oct 22 17:05:11 2019.
