 Gaussian 16, Revision A.03,
 Gaussian 16:  ES64L-G16RevA.03 25-Dec-2016

 ----------------------------------------------------------------------
 # td=(NStates=10) iop(3/107=0140000000,3/108=0140000000) CAM-B3LYP/6-3
 1G(d,p)
 ----------------------------------------------------------------------

 --
 TD
 --
 Symbolic Z-matrix:
 Charge =  0 Multiplicity = 1

                         Standard orientation:
 ---------------------------------------------------------------------
 Center     Atomic      Atomic             Coordinates (Angstroms)
 Number     Number       Type             X           Y           Z
 ---------------------------------------------------------------------
      1         12           0       -7.245261    0.572918    0.141015
      2          6           0       -4.782525   -1.914474    0.541717
      3          6           0       -4.854987    2.783523    1.191487
      4          6           0       -9.488557    3.014272   -0.291178
      5          6           0       -9.555060   -1.816615   -0.870821
      6          7           0       -5.150342    0.431568    0.700649
      7          6           0       -4.325821   -0.737193    0.831245
      8          6           0       -2.850395   -0.409348    1.342418
      9          6           0       -3.116264    1.043503    1.769252
     10          6           0       -4.499257    1.511656    1.247948
     11          6           0       -2.993203    1.315870    3.296021
     12          6           0       -1.960810   -0.539189    0.134880
     13          6           0       -0.498236   -0.267517    0.415213
     14          6           0        0.493784   -0.609819   -0.620885
     15          8           0        0.275624   -1.058344   -1.769208
     16          8           0        1.785125   -0.212212   -0.295579
     17          7           0       -7.178303    2.591351    0.473753
     18          6           0       -6.210274    3.339618    0.884003
     19          6           0       -6.539337    4.721589    0.981420
     20          6           0       -7.821514    4.872151    0.521858
     21          6           0       -8.267915    3.448875    0.168722
     22          6           0       -5.689536    5.861930    1.424578
     23          6           0       -8.588212    6.004445    0.327499
     24          6           0       -8.180012    7.262705   -0.075288
     25          7           0       -9.174123    0.600913   -0.670498
     26          6           0       -9.965270    1.712411   -0.668895
     27          6           0      -11.280247    1.385143   -1.118645
     28          6           0      -11.344607    0.010211   -1.273217
     29          6           0      -10.021151   -0.473707   -1.015806
     30          6           0      -12.332081    2.349245   -1.465175
     31          6           0      -12.379633   -0.926057   -1.799932
     32          6           0      -12.305428   -1.135613   -3.284505
     33          7           0       -7.289220   -1.444892   -0.082441
     34          6           0       -8.240286   -2.302116   -0.554548
     35          6           0       -7.800637   -3.636631   -0.453617
     36          6           0       -6.423505   -3.573685   -0.046287
     37          6           0       -6.163714   -2.202626    0.283271
     38          6           0       -8.555330   -4.860385   -0.757692
     39          6           0       -5.336991   -4.314874    0.181680
     40          8           0       -5.128092   -5.554109    0.212982
     41          6           0       -4.111182   -3.266861    0.631792
     42          6           0       -3.527594   -3.671080    1.895010
     43          8           0       -3.653117   -3.133423    2.944682
     44          8           0       -2.578350   -4.692561    1.710861
     45          6           0       -2.009426   -5.137327    2.980731
     46          6           0        2.788403   -0.488365   -1.337612
     47          6           0        4.103617   -0.368484   -0.684368
     48          6           0        5.160906    0.459516   -1.049240
     49          6           0        5.054024    1.301111   -2.242653
     50          6           0        6.377667    0.540259   -0.222419
     51          6           0        7.613359   -0.045604   -1.100119
     52          6           0        8.907480   -0.087022   -0.254918
     53          6           0       10.151501   -0.578213   -0.899482
     54          6           0       10.061141   -2.032193   -1.272587
     55          6           0       11.454742   -0.277348   -0.080626
     56          6           0       12.823660   -0.570473   -0.756037
     57          6           0       14.040408    0.036565    0.134705
     58          6           0       15.394250   -0.204606   -0.579041
     59          6           0       15.688321   -1.646062   -0.914577
     60          6           0       16.490335    0.400354    0.416401
     61          6           0       17.900728    0.516679   -0.193342
     62          6           0       18.909650    1.136195    0.824608
     63          6           0       20.344865    1.233908    0.301653
     64          6           0       20.495905    2.099637   -0.886143
     65          6           0       21.219371    1.822324    1.402080
     66          1           0       -4.146557    3.594142    1.747991
     67          1           0      -10.291547    3.856525   -0.370550
     68          1           0      -10.251853   -2.542504   -0.935171
     69          1           0       -2.607874   -1.150689    1.924070
     70          1           0       -2.293608    1.635033    1.243135
     71          1           0       -2.068421    0.762738    3.704869
     72          1           0       -2.989050    2.535820    3.601048
     73          1           0       -3.862004    0.979584    3.801550
     74          1           0       -2.111656   -1.585277   -0.244917
     75          1           0       -2.386129    0.044273   -0.693579
     76          1           0       -0.284164    0.806843    0.647920
     77          1           0       -0.106909   -0.829533    1.416340
     78          1           0       -5.260901    6.365040    0.613201
     79          1           0       -6.109959    6.680863    1.867099
     80          1           0       -4.762129    5.620960    2.187241
     81          1           0       -9.823561    6.017808    0.345265
     82          1           0       -8.879822    8.015977   -0.216914
     83          1           0       -7.189182    7.501419   -0.394153
     84          1           0      -12.166635    2.901783   -2.411863
     85          1           0      -13.162231    1.974853   -1.874511
     86          1           0      -12.235594    3.099618   -0.465901
     87          1           0      -12.629796   -1.742287   -1.237594
     88          1           0      -13.344448   -0.478227   -1.686721
     89          1           0      -13.126490   -1.758348   -3.574696
     90          1           0      -12.173880   -0.222928   -3.802785
     91          1           0      -11.299432   -1.601455   -3.787760
     92          1           0       -9.120133   -4.755577   -1.656754
     93          1           0       -8.008131   -5.899423   -0.592765
     94          1           0       -9.427944   -4.918755   -0.066135
     95          1           0       -3.548207   -3.357872   -0.215078
     96          1           0       -1.802809   -4.294358    3.777131
     97          1           0       -2.778666   -5.693028    3.520024
     98          1           0       -1.216765   -5.672872    2.605952
     99          1           0        2.738323   -1.373001   -1.949954
    100          1           0        2.641194    0.272753   -1.978882
    101          1           0        4.300190   -1.065112    0.225092
    102          1           0        4.073904    1.265327   -2.626367
    103          1           0        5.388362    2.491732   -2.072496
    104          1           0        5.716424    0.834879   -3.029423
    105          1           0        6.627254    1.521034   -0.018847
    106          1           0        6.273351   -0.255430    0.642746
    107          1           0        7.323463   -1.016640   -1.458927
    108          1           0        7.736387    0.605688   -1.916709
    109          1           0        8.825831    0.889252    0.261325
    110          1           0        8.971976   -0.877879    0.619428
    111          1           0       10.221076   -0.235797   -1.847940
    112          1           0        9.303129   -2.284486   -2.021158
    113          1           0       11.255287   -2.206156   -1.761974
    114          1           0       10.132018   -2.866528   -0.470795
    115          1           0       11.522958    0.884704    0.142303
    116          1           0       11.365712   -0.863651    0.865659
    117          1           0       12.992980   -1.594608   -1.087431
    118          1           0       12.853236    0.072444   -1.819302
    119          1           0       13.857674    1.062768    0.319073
    120          1           0       14.065869   -0.618235    0.979661
    121          1           0       15.515387    0.409516   -1.605952
    122          1           0       15.631379   -2.403264    0.084856
    123          1           0       15.096464   -2.039542   -1.668575
    124          1           0       16.697152   -1.849570   -1.312037
    125          1           0       16.139564    1.443988    0.649790
    126          1           0       16.410461   -0.097283    1.410536
    127          1           0       18.143660   -0.604979   -0.436185
    128          1           0       17.798943    0.968864   -1.224674
    129          1           0       18.618944    2.112696    1.029017
    130          1           0       18.895418    0.491565    1.699052
    131          1           0       20.680609    0.364407   -0.042736
    132          1           0       20.107828    3.106367   -0.698035
    133          1           0       21.409096    2.202797   -1.207809
    134          1           0       19.938384    1.638138   -1.878879
    135          1           0       21.106699    1.467715    2.339471
    136          1           0       22.235589    1.806845    1.205742
    137          1           0       21.001143    2.984900    1.650815
 ---------------------------------------------------------------------

 SCF Done:  E(RCAM-B3LYP) =  -2933.51459047     A.U. after   15 cycles

 Excitation energies and oscillator strengths:

 Excited State   1:      Singlet-A      2.0906 eV  593.06 nm  f=0.2791  <S**2>=0.000
     240 -> 242       -0.19938
     240 -> 243        0.21369
     241 -> 242        0.63151
 This state for optimization and/or second-order correction.
 Total Energy, E(TD-HF/TD-DFT) =  -2933.43776327
 Copying the excited state density for this state as the 1-particle RhoCI density.

 Excited State   2:      Singlet-A      2.2595 eV  548.73 nm  f=0.0746  <S**2>=0.000
     240 -> 242        0.60329
     241 -> 242        0.21927
     241 -> 243       -0.26380

 Excited State   3:      Singlet-A      2.8758 eV  431.13 nm  f=0.0004  <S**2>=0.000
     238 -> 242        0.65121
     238 -> 243        0.14182
     238 -> 244        0.18492

 Excited State   4:      Singlet-A      3.0356 eV  408.44 nm  f=0.0053  <S**2>=0.000
     236 -> 242        0.24861
     237 -> 242        0.61461
     237 -> 243        0.11030
     241 -> 243       -0.10922

 Excited State   5:      Singlet-A      3.0962 eV  400.44 nm  f=0.4203  <S**2>=0.000
     236 -> 242        0.25273
     240 -> 242        0.25140
     241 -> 243        0.58543

 Excited State   6:      Singlet-A      3.1593 eV  392.44 nm  f=0.0584  <S**2>=0.000
     235 -> 242        0.23762
     236 -> 242        0.52168
     237 -> 242       -0.28201
     240 -> 242       -0.10137
     241 -> 243       -0.19213

 Excited State   7:      Singlet-A      3.2534 eV  381.09 nm  f=0.0386  <S**2>=0.000
     235 -> 242        0.60324
     236 -> 242       -0.24019
     240 -> 243        0.20942

 Excited State   8:      Singlet-A      3.3346 eV  371.81 nm  f=0.7341  <S**2>=0.000
     235 -> 242       -0.22561
     235 -> 243       -0.10470
     240 -> 243        0.60226
     241 -> 242       -0.21689

 Excited State   9:      Singlet-A      3.8618 eV  321.05 nm  f=0.0375  <S**2>=0.000
     235 -> 243       -0.39078
     237 -> 243        0.46934
     238 -> 243       -0.22696
     240 -> 243       -0.10167
     240 -> 244       -0.10784
     241 -> 244       -0.12735

 Excited State  10:      Singlet-A      3.8903 eV  318.70 nm  f=0.0442  <S**2>=0.000
     229 -> 242       -0.11183
     239 -> 242        0.61371
     241 -> 244        0.28056

 The electronic state is 1-A.
 Alpha  occ. eigenvalues --  -46.80742 -19.21031 -19.19794 -19.16150 -19.15820
 Alpha  occ. eigenvalues --  -19.14436 -14.36709 -14.36655 -14.35949 -14.35305
 Alpha  occ. eigenvalues --  -10.34192 -10.33106 -10.28868 -10.26854 -10.26761
 Alpha  occ. eigenvalues --  -10.25788 -10.25724 -10.25588 -10.25171 -10.25135
 Alpha  occ. eigenvalues --  -10.25072 -10.25065 -10.24930 -10.24922 -10.24677
 Alpha  occ. eigenvalues --  -10.24606 -10.24133 -10.24046 -10.24045 -10.23647
 Alpha  occ. eigenvalues --  -10.23605 -10.22748 -10.22692 -10.22630 -10.22614
 Alpha  occ. eigenvalues --  -10.22602 -10.22459 -10.22429 -10.22258 -10.22256
 Alpha  occ. eigenvalues --  -10.22185 -10.22167 -10.22164 -10.22132 -10.22055
 Alpha  occ. eigenvalues --  -10.21999 -10.21955 -10.21838 -10.21774 -10.21729
 Alpha  occ. eigenvalues --  -10.21673 -10.21494 -10.21395 -10.21302 -10.20956
 Alpha  occ. eigenvalues --  -10.20844 -10.20822 -10.20744 -10.20660 -10.20428
 Alpha  occ. eigenvalues --  -10.20241 -10.19956 -10.19830 -10.19188 -10.19142
 Alpha  occ. eigenvalues --   -3.09173  -1.84123  -1.83644  -1.83571  -1.11398
 Alpha  occ. eigenvalues --   -1.10386  -1.03067  -1.02456  -1.01392  -1.00448
 Alpha  occ. eigenvalues --   -0.98341  -0.97600  -0.96076  -0.87758  -0.86022
 Alpha  occ. eigenvalues --   -0.85960  -0.85308  -0.85034  -0.84952  -0.84580
 Alpha  occ. eigenvalues --   -0.83568  -0.83151  -0.82696  -0.81992  -0.80723
 Alpha  occ. eigenvalues --   -0.80410  -0.79506  -0.79064  -0.78673  -0.77802
 Alpha  occ. eigenvalues --   -0.76988  -0.76159  -0.75604  -0.74781  -0.74291
 Alpha  occ. eigenvalues --   -0.73574  -0.73467  -0.71475  -0.71253  -0.70959
 Alpha  occ. eigenvalues --   -0.70818  -0.70432  -0.69228  -0.68988  -0.67646
 Alpha  occ. eigenvalues --   -0.67439  -0.66384  -0.66109  -0.65443  -0.64349
 Alpha  occ. eigenvalues --   -0.64019  -0.62172  -0.61520  -0.61296  -0.60174
 Alpha  occ. eigenvalues --   -0.59661  -0.59411  -0.58654  -0.58435  -0.58293
 Alpha  occ. eigenvalues --   -0.57318  -0.56890  -0.56208  -0.55519  -0.55061
 Alpha  occ. eigenvalues --   -0.54913  -0.54372  -0.54127  -0.53362  -0.53078
 Alpha  occ. eigenvalues --   -0.52003  -0.51878  -0.51285  -0.51037  -0.50901
 Alpha  occ. eigenvalues --   -0.50605  -0.50371  -0.50114  -0.49561  -0.49019
 Alpha  occ. eigenvalues --   -0.48777  -0.48639  -0.48305  -0.48184  -0.48050
 Alpha  occ. eigenvalues --   -0.47668  -0.47144  -0.47049  -0.46999  -0.46830
 Alpha  occ. eigenvalues --   -0.46547  -0.46427  -0.46191  -0.45900  -0.45671
 Alpha  occ. eigenvalues --   -0.45304  -0.45259  -0.44977  -0.44623  -0.44543
 Alpha  occ. eigenvalues --   -0.44403  -0.44277  -0.44002  -0.43605  -0.43490
 Alpha  occ. eigenvalues --   -0.43325  -0.43020  -0.42898  -0.42807  -0.42400
 Alpha  occ. eigenvalues --   -0.42141  -0.42073  -0.41973  -0.41745  -0.41445
 Alpha  occ. eigenvalues --   -0.41057  -0.40985  -0.40859  -0.40578  -0.40490
 Alpha  occ. eigenvalues --   -0.40091  -0.40015  -0.39798  -0.39726  -0.39610
 Alpha  occ. eigenvalues --   -0.39306  -0.39225  -0.39097  -0.39061  -0.38770
 Alpha  occ. eigenvalues --   -0.38648  -0.38534  -0.38293  -0.38135  -0.38049
 Alpha  occ. eigenvalues --   -0.38017  -0.37780  -0.37626  -0.37317  -0.37161
 Alpha  occ. eigenvalues --   -0.36932  -0.36742  -0.36609  -0.36146  -0.35957
 Alpha  occ. eigenvalues --   -0.35803  -0.35543  -0.35315  -0.35225  -0.34900
 Alpha  occ. eigenvalues --   -0.34509  -0.34231  -0.33802  -0.33741  -0.33663
 Alpha  occ. eigenvalues --   -0.33376  -0.33086  -0.33056  -0.32632  -0.32484
 Alpha  occ. eigenvalues --   -0.32026  -0.31612  -0.30890  -0.30563  -0.30327
 Alpha  occ. eigenvalues --   -0.29938  -0.29716  -0.29290  -0.28933  -0.26481
 Alpha  occ. eigenvalues --   -0.26025  -0.25885  -0.25384  -0.25179  -0.22092
 Alpha  occ. eigenvalues --   -0.21107
 Alpha virt. eigenvalues --   -0.08032  -0.04640  -0.00389   0.01316   0.03381
 Alpha virt. eigenvalues --    0.04126   0.04265   0.04538   0.05008   0.05572
 Alpha virt. eigenvalues --    0.06725   0.08064   0.08669   0.09207   0.09798

 Mulliken charges:
               1
     1  Mg   0.819943
     2  C    0.046304
     3  C   -0.201870
     4  C   -0.189769
     5  C   -0.134317
     6  N   -0.656941
     7  C    0.239892
     8  C   -0.072257
     9  C   -0.149146
    10  C    0.390851
    11  C   -0.297090
    12  C   -0.184186
    13  C   -0.263020
    14  C    0.611866
    15  O   -0.492062
    16  O   -0.494702
    17  N   -0.697918
    18  C    0.325094
    19  C    0.038266
    20  C    0.087581
    21  C    0.271230
    22  C   -0.389684
    23  C   -0.141340
    24  C   -0.224302
    25  N   -0.684521
    26  C    0.334360
    27  C    0.020676
    28  C    0.021253
    29  C    0.267178
    30  C   -0.348646
    31  C   -0.245834
    32  C   -0.296413
    33  N   -0.705651
    34  C    0.288166
    35  C    0.057984
    36  C    0.114286
    37  C    0.259895
    38  C   -0.404757
    39  C    0.234131
    40  O   -0.497968
    41  C   -0.312757
    42  C    0.649811
    43  O   -0.463585
    44  O   -0.479308
    45  C   -0.086233
    46  C    0.029216
    47  C   -0.148091
    48  C    0.149587
    49  C   -0.359640
    50  C   -0.225602
    51  C   -0.208219
    52  C   -0.137590
    53  C   -0.054504
    54  C   -0.304230
    55  C   -0.154165
    56  C   -0.192335
    57  C   -0.160091
    58  C   -0.051885
    59  C   -0.298257
    60  C   -0.170183
    61  C   -0.186513
    62  C   -0.151054
    63  C   -0.048170
    64  C   -0.290188
    65  C   -0.313403
    66  H    0.069702
    67  H    0.080447
    68  H    0.076392
    69  H    0.106549
    70  H    0.096903
    71  H    0.104010
    72  H    0.072581
    73  H    0.133391
    74  H    0.119899
    75  H    0.122025
    76  H    0.145058
    77  H    0.123446
    78  H    0.137470
    79  H    0.135629
    80  H    0.091488
    81  H    0.083660
    82  H    0.108062
    83  H    0.104253
    84  H    0.118518
    85  H    0.118395
    86  H    0.097423
    87  H    0.115331
    88  H    0.107428
    89  H    0.110485
    90  H    0.116862
    91  H    0.079900
    92  H    0.131235
    93  H    0.148269
    94  H    0.122735
    95  H    0.169642
    96  H    0.116657
    97  H    0.129473
    98  H    0.126393
    99  H    0.144272
   100  H    0.116760
   101  H    0.074894
   102  H    0.116401
   103  H    0.082622
   104  H    0.121439
   105  H    0.109401
   106  H    0.096275
   107  H    0.101745
   108  H    0.105664
   109  H    0.081046
   110  H    0.066127
   111  H    0.093459
   112  H    0.110830
   113  H    0.052567
   114  H    0.091441
   115  H    0.075630
   116  H    0.087869
   117  H    0.105668
   118  H    0.053915
   119  H    0.101800
   120  H    0.102574
   121  H    0.061715
   122  H    0.061740
   123  H    0.114463
   124  H    0.102611
   125  H    0.075999
   126  H    0.083715
   127  H    0.073950
   128  H    0.091917
   129  H    0.098131
   130  H    0.093791
   131  H    0.095672
   132  H    0.093633
   133  H    0.112458
   134  H    0.060168
   135  H    0.107274
   136  H    0.105030
   137  H    0.066453
 Sum of Mulliken charges =  -0.00000

 Dipole moment (field-independent basis, Debye):
    X=             -2.2267    Y=              6.5592    Z=             -0.2753  Tot=              6.9323
 Quadrupole moment (field-independent basis, Debye-Ang):
   XX=           -290.1741   YY=           -393.0543   ZZ=           -397.3843
   XY=            -30.4381   XZ=             15.7913   YZ=             -2.2467

 Normal termination of Gaussian 16 at Tue Oct 22 19:57:10 2019.
