 Gaussian 16, Revision A.03,
 Gaussian 16:  ES64L-G16RevA.03 25-Dec-2016

 ----------------------------------------------------------------------
 # td=(NStates=10) iop(3/107=0140000000,3/108=0140000000) CAM-B3LYP/6-3
 1G(d,p)
 ----------------------------------------------------------------------

 --
 TD
 --
 Symbolic Z-matrix:
 Charge =  0 Multiplicity = 1

                         Standard orientation:
 ---------------------------------------------------------------------
 Center     Atomic      Atomic             Coordinates (Angstroms)
 Number     Number       Type             X           Y           Z
 ---------------------------------------------------------------------
      1         12           0       -7.185358    0.597418    0.055015
      2          6           0       -4.916997   -1.933127    0.480661
      3          6           0       -4.775042    2.857212    1.111502
      4          6           0       -9.376734    3.082319   -0.427644
      5          6           0       -9.552298   -1.701108   -0.835751
      6          7           0       -5.111162    0.454922    0.712880
      7          6           0       -4.443051   -0.759440    0.692361
      8          6           0       -2.948691   -0.482211    1.185669
      9          6           0       -3.040748    0.982459    1.785995
     10          6           0       -4.397822    1.479365    1.194468
     11          6           0       -2.782208    1.165006    3.300625
     12          6           0       -1.940086   -0.500737    0.032496
     13          6           0       -0.496792   -0.509557    0.497804
     14          6           0        0.478394   -0.688018   -0.609839
     15          8           0        0.308616   -1.120967   -1.748661
     16          8           0        1.731894   -0.444173   -0.140243
     17          7           0       -7.070970    2.624743    0.371237
     18          6           0       -6.085150    3.424156    0.815031
     19          6           0       -6.450469    4.758636    0.952346
     20          6           0       -7.755572    4.769157    0.395804
     21          6           0       -8.167459    3.427139    0.133175
     22          6           0       -5.744050    5.899215    1.425455
     23          6           0       -8.668682    6.036603    0.387139
     24          6           0       -8.283811    7.264899    0.156312
     25          7           0       -9.148400    0.660251   -0.467606
     26          6           0       -9.883956    1.800586   -0.713232
     27          6           0      -11.174847    1.537835   -1.232970
     28          6           0      -11.207095    0.121354   -1.323417
     29          6           0       -9.948514   -0.295801   -0.877275
     30          6           0      -12.294895    2.331105   -1.496784
     31          6           0      -12.397947   -0.716339   -1.727491
     32          6           0      -12.432836   -1.049187   -3.265685
     33          7           0       -7.253757   -1.383682   -0.231915
     34          6           0       -8.314122   -2.164098   -0.452066
     35          6           0       -7.792187   -3.597353   -0.519731
     36          6           0       -6.552325   -3.576990   -0.090919
     37          6           0       -6.216056   -2.140418    0.069786
     38          6           0       -8.710901   -4.866198   -0.708979
     39          6           0       -5.374319   -4.234568    0.064119
     40          8           0       -5.116571   -5.474478    0.085522
     41          6           0       -4.207100   -3.223697    0.488637
     42          6           0       -3.710121   -3.708856    1.822698
     43          8           0       -3.995992   -3.313465    2.924053
     44          8           0       -2.677031   -4.615223    1.708833
     45          6           0       -2.235112   -5.056817    2.962152
     46          6           0        2.896728   -0.649283   -1.041981
     47          6           0        4.193212   -0.461454   -0.416064
     48          6           0        5.173723    0.186549   -0.928866
     49          6           0        5.116241    1.029526   -2.148942
     50          6           0        6.413166    0.368873   -0.123003
     51          6           0        7.669037   -0.078923   -0.959392
     52          6           0        8.851737   -0.105805    0.011766
     53          6           0       10.172427   -0.522357   -0.794672
     54          6           0       10.136852   -1.960746   -1.334566
     55          6           0       11.491223   -0.193776    0.046028
     56          6           0       12.765464   -0.454714   -0.736147
     57          6           0       14.025066   -0.087670    0.165867
     58          6           0       15.398360   -0.163176   -0.535894
     59          6           0       15.865254   -1.608342   -0.952475
     60          6           0       16.523451    0.443743    0.431913
     61          6           0       17.830779    0.575980   -0.231375
     62          6           0       18.877434    1.303628    0.698889
     63          6           0       20.267430    1.282915    0.228866
     64          6           0       20.508612    2.031151   -1.151550
     65          6           0       21.197517    1.957103    1.223720
     66          1           0       -3.981590    3.497963    1.582023
     67          1           0      -10.201755    3.773504   -0.627362
     68          1           0      -10.360935   -2.545372   -0.985185
     69          1           0       -2.785341   -1.111893    2.000691
     70          1           0       -2.324840    1.593016    1.259672
     71          1           0       -1.897346    0.891324    3.701952
     72          1           0       -3.140774    2.114777    3.513215
     73          1           0       -3.405062    0.680568    3.783713
     74          1           0       -2.159212   -1.336049   -0.485278
     75          1           0       -2.067946    0.246465   -0.579096
     76          1           0       -0.242998    0.417260    0.859670
     77          1           0       -0.457317   -1.212324    1.293393
     78          1           0       -5.107501    6.146609    0.466527
     79          1           0       -6.439492    6.585140    1.650277
     80          1           0       -4.972036    5.456283    2.296164
     81          1           0       -9.686444    5.781072    0.439042
     82          1           0       -8.719994    8.345668    0.358666
     83          1           0       -7.114727    7.503365   -0.142562
     84          1           0      -11.919796    2.999085   -2.223344
     85          1           0      -13.231225    1.904335   -1.867411
     86          1           0      -12.639563    2.841750   -0.565963
     87          1           0      -12.500027   -1.638822   -1.145598
     88          1           0      -13.300501   -0.101024   -1.494720
     89          1           0      -13.234583   -1.424014   -3.617642
     90          1           0      -12.238616   -0.215844   -3.895434
     91          1           0      -11.748550   -1.760808   -3.665876
     92          1           0       -9.225276   -4.833953   -1.600800
     93          1           0       -8.257083   -5.831289   -0.719132
     94          1           0       -9.491595   -5.025029    0.224564
     95          1           0       -3.441326   -3.475698   -0.101866
     96          1           0       -1.683954   -4.378763    3.503223
     97          1           0       -3.111646   -5.354215    3.452355
     98          1           0       -1.699273   -6.155447    2.797132
     99          1           0        2.971265   -1.820383   -1.431520
    100          1           0        2.897962    0.080292   -1.928307
    101          1           0        4.274691   -1.037313    0.467988
    102          1           0        4.107744    1.172206   -2.573148
    103          1           0        5.485518    2.109182   -2.227629
    104          1           0        5.589545    0.620122   -3.138652
    105          1           0        6.465868    1.243976    0.329341
    106          1           0        6.267165   -0.377570    0.873733
    107          1           0        7.608299   -1.245308   -1.369309
    108          1           0        7.593177    0.489445   -1.876167
    109          1           0        9.094788    0.881605    0.560564
    110          1           0        8.846051   -0.849554    0.887668
    111          1           0       10.060022    0.134811   -1.552725
    112          1           0        9.325834   -2.212250   -2.243590
    113          1           0       11.253465   -2.173030   -1.770080
    114          1           0       10.324216   -2.736127   -0.469691
    115          1           0       11.540218    0.952940    0.359739
    116          1           0       11.634812   -0.717045    1.023979
    117          1           0       12.946534   -1.354567   -1.091907
    118          1           0       12.926062    0.002115   -1.570460
    119          1           0       13.992782    0.821190    0.651880
    120          1           0       14.053110   -0.771447    1.161181
    121          1           0       15.411710    0.482072   -1.457355
    122          1           0       16.082074   -2.113992    0.111648
    123          1           0       15.194547   -1.954421   -1.718601
    124          1           0       16.834127   -1.664046   -1.290127
    125          1           0       16.333290    1.292222    0.822903
    126          1           0       16.781740   -0.276467    1.160552
    127          1           0       18.193578   -0.372360   -0.473592
    128          1           0       17.601963    1.050934   -1.227630
    129          1           0       18.459571    2.324038    0.807637
    130          1           0       18.644104    0.683540    1.613605
    131          1           0       20.654406    0.107038    0.030225
    132          1           0       20.128742    3.057098   -0.982090
    133          1           0       21.657065    2.073797   -1.290619
    134          1           0       19.907761    1.750188   -1.870243
    135          1           0       21.302248    1.296024    2.308014
    136          1           0       22.289757    2.091532    0.716002
    137          1           0       20.914870    2.911160    1.465971
 ---------------------------------------------------------------------

 SCF Done:  E(RCAM-B3LYP) =  -2933.38056609     A.U. after   16 cycles

 Excitation energies and oscillator strengths:

 Excited State   1:      Singlet-A      2.1165 eV  585.79 nm  f=0.2166  <S**2>=0.000
     240 -> 242       -0.10597
     240 -> 243       -0.22748
     241 -> 242        0.64755
     241 -> 243       -0.10174
 This state for optimization and/or second-order correction.
 Total Energy, E(TD-HF/TD-DFT) =  -2933.30278450
 Copying the excited state density for this state as the 1-particle RhoCI density.

 Excited State   2:      Singlet-A      2.3704 eV  523.05 nm  f=0.0052  <S**2>=0.000
     240 -> 242        0.54878
     241 -> 242        0.13793
     241 -> 243        0.40773

 Excited State   3:      Singlet-A      2.9968 eV  413.72 nm  f=0.0024  <S**2>=0.000
     237 -> 242        0.61414
     237 -> 243        0.13020
     237 -> 244       -0.30251

 Excited State   4:      Singlet-A      3.0238 eV  410.03 nm  f=0.0198  <S**2>=0.000
     239 -> 242        0.64169
     239 -> 243       -0.20545
     241 -> 243        0.15466

 Excited State   5:      Singlet-A      3.1687 eV  391.28 nm  f=0.8079  <S**2>=0.000
     239 -> 242       -0.13719
     240 -> 242       -0.40914
     240 -> 244        0.16051
     241 -> 243        0.52096

 Excited State   6:      Singlet-A      3.3145 eV  374.06 nm  f=0.1315  <S**2>=0.000
     238 -> 242        0.57155
     240 -> 243       -0.34715
     241 -> 242       -0.11932
     241 -> 244        0.12709

 Excited State   7:      Singlet-A      3.3811 eV  366.70 nm  f=0.3626  <S**2>=0.000
     238 -> 242        0.38136
     240 -> 243        0.49513
     241 -> 242        0.18198
     241 -> 244       -0.24367

 Excited State   8:      Singlet-A      3.7292 eV  332.47 nm  f=0.0060  <S**2>=0.000
     238 -> 242        0.11393
     238 -> 243       -0.34433
     239 -> 242        0.15048
     239 -> 243        0.55743
     241 -> 244       -0.13411

 Excited State   9:      Singlet-A      3.7524 eV  330.42 nm  f=0.2043  <S**2>=0.000
     238 -> 243       -0.17873
     240 -> 243        0.24759
     241 -> 244        0.61686

 Excited State  10:      Singlet-A      3.8906 eV  318.68 nm  f=0.1210  <S**2>=0.000
     238 -> 243        0.57070
     239 -> 242        0.15224
     239 -> 243        0.34404

 The electronic state is 1-A.
 Alpha  occ. eigenvalues --  -46.80387 -19.21499 -19.20900 -19.16334 -19.16000
 Alpha  occ. eigenvalues --  -19.15606 -14.36992 -14.36409 -14.34945 -14.34820
 Alpha  occ. eigenvalues --  -10.34112 -10.33983 -10.30159 -10.28192 -10.26535
 Alpha  occ. eigenvalues --  -10.25716 -10.25603 -10.25514 -10.25505 -10.25388
 Alpha  occ. eigenvalues --  -10.25044 -10.24417 -10.24274 -10.24166 -10.24083
 Alpha  occ. eigenvalues --  -10.23593 -10.23454 -10.23274 -10.23019 -10.22969
 Alpha  occ. eigenvalues --  -10.22953 -10.22948 -10.22822 -10.22806 -10.22747
 Alpha  occ. eigenvalues --  -10.22680 -10.22518 -10.22318 -10.22285 -10.22251
 Alpha  occ. eigenvalues --  -10.22158 -10.22102 -10.22047 -10.21969 -10.21889
 Alpha  occ. eigenvalues --  -10.21812 -10.21756 -10.21538 -10.21459 -10.21424
 Alpha  occ. eigenvalues --  -10.21321 -10.21269 -10.21144 -10.21107 -10.21087
 Alpha  occ. eigenvalues --  -10.20827 -10.20379 -10.20279 -10.19882 -10.19755
 Alpha  occ. eigenvalues --  -10.19384 -10.18835 -10.18427 -10.18222 -10.18139
 Alpha  occ. eigenvalues --   -3.08988  -1.83934  -1.83483  -1.83372  -1.13103
 Alpha  occ. eigenvalues --   -1.11295  -1.03916  -1.03583  -1.02386  -1.01452
 Alpha  occ. eigenvalues --   -0.99730  -0.98776  -0.97632  -0.89696  -0.87247
 Alpha  occ. eigenvalues --   -0.85617  -0.85551  -0.84846  -0.84283  -0.84118
 Alpha  occ. eigenvalues --   -0.84038  -0.83471  -0.82669  -0.81824  -0.81419
 Alpha  occ. eigenvalues --   -0.80597  -0.79909  -0.79672  -0.78671  -0.78508
 Alpha  occ. eigenvalues --   -0.76801  -0.76321  -0.76220  -0.75328  -0.74271
 Alpha  occ. eigenvalues --   -0.74154  -0.72940  -0.72008  -0.71522  -0.71358
 Alpha  occ. eigenvalues --   -0.70909  -0.70303  -0.69694  -0.69190  -0.69003
 Alpha  occ. eigenvalues --   -0.68124  -0.67168  -0.66588  -0.65515  -0.65274
 Alpha  occ. eigenvalues --   -0.62365  -0.62088  -0.61648  -0.61560  -0.60894
 Alpha  occ. eigenvalues --   -0.60548  -0.59456  -0.58877  -0.58432  -0.58122
 Alpha  occ. eigenvalues --   -0.57429  -0.57370  -0.56727  -0.56289  -0.55891
 Alpha  occ. eigenvalues --   -0.54750  -0.54470  -0.54020  -0.53698  -0.52822
 Alpha  occ. eigenvalues --   -0.52469  -0.52026  -0.51541  -0.51457  -0.51024
 Alpha  occ. eigenvalues --   -0.50785  -0.50397  -0.50016  -0.49617  -0.49448
 Alpha  occ. eigenvalues --   -0.48932  -0.48900  -0.48472  -0.48116  -0.47928
 Alpha  occ. eigenvalues --   -0.47843  -0.47650  -0.47585  -0.47471  -0.47354
 Alpha  occ. eigenvalues --   -0.47233  -0.47006  -0.46562  -0.46330  -0.46006
 Alpha  occ. eigenvalues --   -0.45749  -0.45534  -0.45421  -0.45147  -0.44988
 Alpha  occ. eigenvalues --   -0.44769  -0.44403  -0.44178  -0.43975  -0.43914
 Alpha  occ. eigenvalues --   -0.43747  -0.43368  -0.43115  -0.42904  -0.42805
 Alpha  occ. eigenvalues --   -0.42337  -0.42183  -0.42152  -0.41873  -0.41683
 Alpha  occ. eigenvalues --   -0.41325  -0.41300  -0.40975  -0.40947  -0.40928
 Alpha  occ. eigenvalues --   -0.40687  -0.40677  -0.40445  -0.40172  -0.40161
 Alpha  occ. eigenvalues --   -0.39862  -0.39660  -0.39464  -0.39237  -0.39197
 Alpha  occ. eigenvalues --   -0.38997  -0.38768  -0.38494  -0.38285  -0.38181
 Alpha  occ. eigenvalues --   -0.38025  -0.37803  -0.37372  -0.36846  -0.36680
 Alpha  occ. eigenvalues --   -0.36579  -0.36405  -0.36148  -0.35840  -0.35808
 Alpha  occ. eigenvalues --   -0.35618  -0.35120  -0.35034  -0.34933  -0.34589
 Alpha  occ. eigenvalues --   -0.34461  -0.34072  -0.33958  -0.33791  -0.33666
 Alpha  occ. eigenvalues --   -0.33233  -0.33158  -0.33101  -0.32645  -0.32429
 Alpha  occ. eigenvalues --   -0.32276  -0.31960  -0.31417  -0.30771  -0.30292
 Alpha  occ. eigenvalues --   -0.30167  -0.29822  -0.29430  -0.29343  -0.28409
 Alpha  occ. eigenvalues --   -0.27002  -0.26764  -0.25720  -0.24593  -0.22147
 Alpha  occ. eigenvalues --   -0.20318
 Alpha virt. eigenvalues --   -0.07086  -0.04388  -0.00981   0.02802   0.03836
 Alpha virt. eigenvalues --    0.04013   0.04585   0.04805   0.05017   0.05186
 Alpha virt. eigenvalues --    0.06909   0.09178   0.09195   0.09735   0.09902

 Mulliken charges:
               1
     1  Mg   0.816320
     2  C    0.204283
     3  C   -0.216576
     4  C   -0.157977
     5  C   -0.184050
     6  N   -0.628392
     7  C    0.241353
     8  C   -0.173286
     9  C   -0.158067
    10  C    0.316422
    11  C   -0.306977
    12  C   -0.152225
    13  C   -0.261439
    14  C    0.600773
    15  O   -0.478457
    16  O   -0.485972
    17  N   -0.708313
    18  C    0.328772
    19  C    0.040849
    20  C   -0.042370
    21  C    0.321706
    22  C   -0.348356
    23  C   -0.050057
    24  C   -0.258447
    25  N   -0.691496
    26  C    0.263309
    27  C    0.053488
    28  C    0.036495
    29  C    0.297776
    30  C   -0.399866
    31  C   -0.245844
    32  C   -0.323000
    33  N   -0.727942
    34  C    0.283618
    35  C   -0.036923
    36  C    0.185183
    37  C    0.253470
    38  C   -0.370779
    39  C    0.272555
    40  O   -0.490373
    41  C   -0.313677
    42  C    0.623703
    43  O   -0.475745
    44  O   -0.451359
    45  C   -0.069883
    46  C    0.031522
    47  C   -0.132719
    48  C    0.186376
    49  C   -0.404255
    50  C   -0.220356
    51  C   -0.179563
    52  C   -0.174568
    53  C   -0.036219
    54  C   -0.309048
    55  C   -0.187558
    56  C   -0.165472
    57  C   -0.173370
    58  C   -0.077542
    59  C   -0.309204
    60  C   -0.165256
    61  C   -0.198642
    62  C   -0.158438
    63  C   -0.037867
    64  C   -0.301431
    65  C   -0.277251
    66  H    0.068256
    67  H    0.080105
    68  H    0.094095
    69  H    0.112126
    70  H    0.102818
    71  H    0.116639
    72  H    0.106484
    73  H    0.132127
    74  H    0.122718
    75  H    0.116259
    76  H    0.138476
    77  H    0.145440
    78  H    0.119961
    79  H    0.131645
    80  H    0.087507
    81  H    0.091930
    82  H    0.110236
    83  H    0.080653
    84  H    0.130735
    85  H    0.122007
    86  H    0.121293
    87  H    0.105955
    88  H    0.098148
    89  H    0.113467
    90  H    0.108339
    91  H    0.107108
    92  H    0.130154
    93  H    0.148953
    94  H    0.106873
    95  H    0.157268
    96  H    0.124578
    97  H    0.135819
    98  H    0.090298
    99  H    0.105664
   100  H    0.102917
   101  H    0.092083
   102  H    0.114996
   103  H    0.118123
   104  H    0.111141
   105  H    0.125832
   106  H    0.059746
   107  H    0.080342
   108  H    0.110401
   109  H    0.077955
   110  H    0.092410
   111  H    0.100120
   112  H    0.094887
   113  H    0.078197
   114  H    0.099299
   115  H    0.076606
   116  H    0.093960
   117  H    0.104340
   118  H    0.099524
   119  H    0.097246
   120  H    0.054419
   121  H    0.073823
   122  H    0.083994
   123  H    0.103707
   124  H    0.116529
   125  H    0.089932
   126  H    0.089048
   127  H    0.096674
   128  H    0.071701
   129  H    0.088108
   130  H    0.087604
   131  H    0.053182
   132  H    0.090066
   133  H    0.097080
   134  H    0.115247
   135  H    0.063699
   136  H    0.071689
   137  H    0.117874
 Sum of Mulliken charges =  -0.00000

 Dipole moment (field-independent basis, Debye):
    X=             -0.8401    Y=              4.7564    Z=             -0.2604  Tot=              4.8370
 Quadrupole moment (field-independent basis, Debye-Ang):
   XX=           -331.5132   YY=           -399.5737   ZZ=           -394.9578
   XY=             -7.6425   XZ=              7.0715   YZ=             -1.2604

 Normal termination of Gaussian 16 at Wed Oct 23 19:00:47 2019.
