 Gaussian 16, Revision A.03,
 Gaussian 16:  ES64L-G16RevA.03 25-Dec-2016

 ----------------------------------------------------------------------
 # td=(NStates=10) iop(3/107=0140000000,3/108=0140000000) CAM-B3LYP/6-3
 1G(d,p)
 ----------------------------------------------------------------------

 --
 TD
 --
 Symbolic Z-matrix:
 Charge =  0 Multiplicity = 1

                         Standard orientation:
 ---------------------------------------------------------------------
 Center     Atomic      Atomic             Coordinates (Angstroms)
 Number     Number       Type             X           Y           Z
 ---------------------------------------------------------------------
      1         12           0       -7.238758    0.547997    0.108764
      2          6           0       -4.723287   -1.921675    0.546250
      3          6           0       -4.932570    2.837648    1.182094
      4          6           0       -9.488175    3.018716   -0.436506
      5          6           0       -9.565883   -1.850138   -0.784706
      6          7           0       -5.163002    0.442056    0.723709
      7          6           0       -4.369027   -0.596811    0.692289
      8          6           0       -2.867427   -0.276424    1.271338
      9          6           0       -3.130257    1.239632    1.662968
     10          6           0       -4.570689    1.430185    1.133073
     11          6           0       -3.106343    1.349959    3.277421
     12          6           0       -1.879237   -0.485770    0.160144
     13          6           0       -0.507192   -0.524366    0.591082
     14          6           0        0.506456   -0.433561   -0.600599
     15          8           0        0.149771   -0.755872   -1.757695
     16          8           0        1.758338   -0.301543   -0.139603
     17          7           0       -7.192612    2.467746    0.334796
     18          6           0       -6.164685    3.230543    0.742236
     19          6           0       -6.583435    4.716984    0.800866
     20          6           0       -7.827229    4.836973    0.343237
     21          6           0       -8.303476    3.454750    0.018807
     22          6           0       -5.738425    5.834883    1.380316
     23          6           0       -8.661166    6.001484    0.274451
     24          6           0       -8.315661    7.305441    0.044049
     25          7           0       -9.182942    0.607080   -0.520014
     26          6           0       -9.919838    1.679480   -0.722969
     27          6           0      -11.236740    1.363882   -1.160598
     28          6           0      -11.267640   -0.029886   -1.250584
     29          6           0      -10.013292   -0.543356   -0.826144
     30          6           0      -12.322979    2.415521   -1.394874
     31          6           0      -12.431862   -0.871794   -1.624506
     32          6           0      -12.151777   -1.306187   -3.130803
     33          7           0       -7.258511   -1.496148   -0.131316
     34          6           0       -8.264923   -2.300504   -0.469853
     35          6           0       -7.815280   -3.652054   -0.559561
     36          6           0       -6.471355   -3.570122   -0.059195
     37          6           0       -6.187145   -2.255754    0.110947
     38          6           0       -8.636910   -4.937074   -0.992964
     39          6           0       -5.240076   -4.347628    0.198574
     40          8           0       -5.016774   -5.551339    0.371823
     41          6           0       -4.000753   -3.273631    0.538127
     42          6           0       -3.493780   -3.494587    1.852584
     43          8           0       -3.671753   -2.943255    2.888626
     44          8           0       -2.540636   -4.600690    1.733113
     45          6           0       -1.893713   -4.983584    3.021330
     46          6           0        2.809984   -0.587826   -1.159126
     47          6           0        4.091130   -0.416342   -0.546559
     48          6           0        5.132419    0.374886   -0.955020
     49          6           0        5.046323    1.273832   -2.159405
     50          6           0        6.461525    0.433075   -0.264123
     51          6           0        7.503905   -0.228293   -0.988156
     52          6           0        8.928771   -0.174331   -0.169431
     53          6           0       10.171724   -0.629170   -0.910909
     54          6           0       10.151506   -2.104336   -1.299929
     55          6           0       11.361901   -0.407370   -0.051192
     56          6           0       12.763303   -0.565717   -0.669375
     57          6           0       13.929703   -0.115811    0.098107
     58          6           0       15.368123   -0.189724   -0.609303
     59          6           0       15.879385   -1.573814   -0.965985
     60          6           0       16.474765    0.387520    0.340396
     61          6           0       17.854855    0.538320   -0.152116
     62          6           0       18.821852    1.344193    0.800231
     63          6           0       20.276950    1.351883    0.193308
     64          6           0       20.608282    2.205551   -1.004583
     65          6           0       21.159758    1.812627    1.400301
     66          1           0       -4.205775    3.393837    1.569880
     67          1           0      -10.174400    3.855660   -0.617993
     68          1           0      -10.358820   -2.494968   -0.982013
     69          1           0       -2.885109   -0.910827    2.227868
     70          1           0       -2.419311    2.093141    1.056061
     71          1           0       -2.116085    1.196495    3.798120
     72          1           0       -3.435378    2.377430    3.423877
     73          1           0       -3.635190    0.615908    3.794738
     74          1           0       -1.984183   -1.541567   -0.246752
     75          1           0       -1.956660    0.306790   -0.745630
     76          1           0       -0.075313    0.311106    1.154784
     77          1           0       -0.399497   -1.451908    1.130501
     78          1           0       -4.933948    6.200416    0.649687
     79          1           0       -6.168508    6.883506    1.609614
     80          1           0       -4.986837    5.459799    2.121436
     81          1           0       -9.818193    5.646984    0.451392
     82          1           0       -9.054678    8.007068    0.180290
     83          1           0       -7.345658    7.527131   -0.223761
     84          1           0      -12.024612    3.199828   -2.104503
     85          1           0      -13.313937    1.877529   -1.693219
     86          1           0      -12.477425    3.264215   -0.593253
     87          1           0      -12.568307   -1.898246   -1.118666
     88          1           0      -13.402477   -0.257504   -1.558938
     89          1           0      -12.688298   -2.166226   -3.476688
     90          1           0      -12.359012   -0.489671   -3.942264
     91          1           0      -11.123042   -1.535099   -3.166420
     92          1           0       -9.277601   -4.914831   -1.902245
     93          1           0       -7.884068   -5.682344   -1.075399
     94          1           0       -9.438805   -5.074154   -0.261971
     95          1           0       -3.288247   -3.550446   -0.283990
     96          1           0       -1.377419   -4.068633    3.480049
     97          1           0       -2.766989   -5.374045    3.667623
     98          1           0       -1.120219   -5.852346    2.689349
     99          1           0        2.880331   -1.633563   -1.479195
    100          1           0        2.797936    0.088445   -1.986385
    101          1           0        4.308630   -0.890688    0.368399
    102          1           0        4.088746    1.596988   -2.506141
    103          1           0        5.337549    2.313243   -2.109052
    104          1           0        5.619636    0.897827   -2.969025
    105          1           0        6.679635    1.383587   -0.239411
    106          1           0        6.354105    0.138355    0.837701
    107          1           0        7.330096   -1.152217   -1.264634
    108          1           0        7.750642    0.359613   -1.756916
    109          1           0        9.316773    0.936044    0.100054
    110          1           0        8.769949   -0.708511    0.671069
    111          1           0       10.401352   -0.042109   -1.709742
    112          1           0        9.314860   -2.598697   -1.758780
    113          1           0       11.035900   -2.577723   -1.800917
    114          1           0       10.108916   -2.751865   -0.329150
    115          1           0       11.369275    0.819975    0.174515
    116          1           0       11.507179   -1.027667    0.963548
    117          1           0       13.035589   -1.487769   -0.956302
    118          1           0       12.494200    0.038547   -1.703456
    119          1           0       13.892098    0.939216    0.459523
    120          1           0       13.898972   -0.815098    0.904351
    121          1           0       15.198444    0.460519   -1.625803
    122          1           0       16.027123   -2.302019   -0.190381
    123          1           0       15.347082   -1.950466   -1.793909
    124          1           0       16.907111   -1.499214   -1.426933
    125          1           0       16.130776    1.361470    0.903313
    126          1           0       16.384274   -0.213307    1.210602
    127          1           0       18.402905   -0.413894   -0.265033
    128          1           0       17.837556    0.971679   -1.145214
    129          1           0       18.476663    2.385613    0.989494
    130          1           0       18.806903    0.902630    1.829511
    131          1           0       20.514741    0.343650   -0.147440
    132          1           0       20.341543    3.209288   -0.976695
    133          1           0       21.589692    2.200787   -1.260207
    134          1           0       19.978990    1.873896   -1.695510
    135          1           0       21.247624    1.008622    2.343282
    136          1           0       22.313044    1.867282    1.097632
    137          1           0       20.957812    2.772029    1.773445
 ---------------------------------------------------------------------

 SCF Done:  E(RCAM-B3LYP) =  -2933.49879606     A.U. after   15 cycles

 Excitation energies and oscillator strengths:

 Excited State   1:      Singlet-A      2.3946 eV  517.76 nm  f=0.1914  <S**2>=0.000
     240 -> 242       -0.16659
     240 -> 243        0.26446
     241 -> 242        0.62077
 This state for optimization and/or second-order correction.
 Total Energy, E(TD-HF/TD-DFT) =  -2933.41079558
 Copying the excited state density for this state as the 1-particle RhoCI density.

 Excited State   2:      Singlet-A      2.5927 eV  478.21 nm  f=0.0706  <S**2>=0.000
     240 -> 242        0.59150
     241 -> 242        0.19054
     241 -> 243       -0.31646

 Excited State   3:      Singlet-A      3.2807 eV  377.93 nm  f=0.0071  <S**2>=0.000
     238 -> 242        0.11774
     239 -> 242        0.66231
     239 -> 243        0.14921

 Excited State   4:      Singlet-A      3.2935 eV  376.45 nm  f=0.4958  <S**2>=0.000
     239 -> 242        0.10254
     240 -> 242        0.31003
     241 -> 243        0.60445

 Excited State   5:      Singlet-A      3.4692 eV  357.39 nm  f=0.7866  <S**2>=0.000
     236 -> 242        0.13358
     240 -> 243        0.61561
     241 -> 242       -0.25696

 Excited State   6:      Singlet-A      3.5354 eV  350.69 nm  f=0.0130  <S**2>=0.000
     237 -> 242        0.61212
     237 -> 244        0.27463
     237 -> 245        0.12226

 Excited State   7:      Singlet-A      3.5716 eV  347.14 nm  f=0.0074  <S**2>=0.000
     234 -> 242        0.11542
     236 -> 242       -0.27704
     236 -> 243       -0.11786
     238 -> 242        0.60531

 Excited State   8:      Singlet-A      3.7236 eV  332.97 nm  f=0.1888  <S**2>=0.000
     236 -> 242        0.57405
     238 -> 242        0.23252
     238 -> 243       -0.15658
     239 -> 243        0.12966
     240 -> 242        0.11213
     241 -> 244        0.10162

 Excited State   9:      Singlet-A      4.0314 eV  307.55 nm  f=0.0734  <S**2>=0.000
     239 -> 243       -0.21217
     240 -> 244        0.18042
     241 -> 244        0.58366
     241 -> 245        0.18743

 Excited State  10:      Singlet-A      4.0918 eV  303.00 nm  f=0.0200  <S**2>=0.000
     236 -> 242       -0.13686
     238 -> 242       -0.10144
     239 -> 242       -0.10896
     239 -> 243        0.61968
     240 -> 244        0.14449
     241 -> 244        0.14322

 The electronic state is 1-A.
 Alpha  occ. eigenvalues --  -46.79714 -19.23033 -19.18829 -19.17327 -19.16022
 Alpha  occ. eigenvalues --  -19.15994 -14.37685 -14.35666 -14.35026 -14.34793
 Alpha  occ. eigenvalues --  -10.34155 -10.33568 -10.31019 -10.27468 -10.27094
 Alpha  occ. eigenvalues --  -10.26403 -10.26367 -10.26316 -10.25388 -10.25003
 Alpha  occ. eigenvalues --  -10.24852 -10.24730 -10.24272 -10.24163 -10.24050
 Alpha  occ. eigenvalues --  -10.24015 -10.23891 -10.23744 -10.23670 -10.23644
 Alpha  occ. eigenvalues --  -10.23586 -10.23560 -10.23457 -10.23240 -10.23144
 Alpha  occ. eigenvalues --  -10.23140 -10.23025 -10.22807 -10.22518 -10.22176
 Alpha  occ. eigenvalues --  -10.22114 -10.22106 -10.21869 -10.21858 -10.21800
 Alpha  occ. eigenvalues --  -10.21655 -10.21603 -10.21416 -10.21408 -10.21393
 Alpha  occ. eigenvalues --  -10.21367 -10.20954 -10.20784 -10.20716 -10.20709
 Alpha  occ. eigenvalues --  -10.20695 -10.20686 -10.20621 -10.20589 -10.20506
 Alpha  occ. eigenvalues --  -10.20089 -10.20088 -10.19696 -10.19249 -10.17530
 Alpha  occ. eigenvalues --   -3.08477  -1.83402  -1.82951  -1.82899  -1.12007
 Alpha  occ. eigenvalues --   -1.10758  -1.04571  -1.03769  -1.02348  -1.01560
 Alpha  occ. eigenvalues --   -0.99877  -0.98037  -0.96274  -0.87448  -0.86467
 Alpha  occ. eigenvalues --   -0.85989  -0.85301  -0.84839  -0.84593  -0.84312
 Alpha  occ. eigenvalues --   -0.83177  -0.82781  -0.82367  -0.82188  -0.80946
 Alpha  occ. eigenvalues --   -0.80178  -0.79751  -0.78832  -0.78668  -0.77909
 Alpha  occ. eigenvalues --   -0.77162  -0.76119  -0.75971  -0.75613  -0.73563
 Alpha  occ. eigenvalues --   -0.72655  -0.72270  -0.71970  -0.71892  -0.70740
 Alpha  occ. eigenvalues --   -0.70420  -0.69617  -0.69506  -0.68871  -0.67791
 Alpha  occ. eigenvalues --   -0.66919  -0.66046  -0.65412  -0.65072  -0.64366
 Alpha  occ. eigenvalues --   -0.63817  -0.63297  -0.61824  -0.61019  -0.59948
 Alpha  occ. eigenvalues --   -0.59692  -0.59616  -0.58758  -0.58493  -0.57850
 Alpha  occ. eigenvalues --   -0.57175  -0.56757  -0.56110  -0.55418  -0.55040
 Alpha  occ. eigenvalues --   -0.54684  -0.53664  -0.53656  -0.53096  -0.52582
 Alpha  occ. eigenvalues --   -0.52494  -0.52179  -0.51593  -0.51183  -0.50904
 Alpha  occ. eigenvalues --   -0.50528  -0.50234  -0.49470  -0.49335  -0.49122
 Alpha  occ. eigenvalues --   -0.48871  -0.48793  -0.48482  -0.48194  -0.47982
 Alpha  occ. eigenvalues --   -0.47847  -0.47483  -0.47477  -0.47310  -0.47185
 Alpha  occ. eigenvalues --   -0.46713  -0.46421  -0.46033  -0.45998  -0.45857
 Alpha  occ. eigenvalues --   -0.45600  -0.45510  -0.45302  -0.44928  -0.44700
 Alpha  occ. eigenvalues --   -0.44407  -0.44314  -0.44259  -0.43973  -0.43640
 Alpha  occ. eigenvalues --   -0.43578  -0.43495  -0.43314  -0.42894  -0.42759
 Alpha  occ. eigenvalues --   -0.42438  -0.42372  -0.42140  -0.41852  -0.41569
 Alpha  occ. eigenvalues --   -0.41383  -0.41126  -0.40968  -0.40930  -0.40589
 Alpha  occ. eigenvalues --   -0.40522  -0.40466  -0.40260  -0.39758  -0.39678
 Alpha  occ. eigenvalues --   -0.39475  -0.39221  -0.39111  -0.39029  -0.38914
 Alpha  occ. eigenvalues --   -0.38872  -0.38686  -0.38632  -0.38414  -0.38391
 Alpha  occ. eigenvalues --   -0.38041  -0.37648  -0.37481  -0.37372  -0.37084
 Alpha  occ. eigenvalues --   -0.36900  -0.36849  -0.36771  -0.36603  -0.36229
 Alpha  occ. eigenvalues --   -0.35713  -0.35553  -0.35323  -0.35084  -0.34818
 Alpha  occ. eigenvalues --   -0.34355  -0.34289  -0.34059  -0.34023  -0.33453
 Alpha  occ. eigenvalues --   -0.33327  -0.33018  -0.32864  -0.32798  -0.32384
 Alpha  occ. eigenvalues --   -0.32079  -0.31744  -0.30624  -0.30512  -0.30196
 Alpha  occ. eigenvalues --   -0.29973  -0.29913  -0.28837  -0.28322  -0.26702
 Alpha  occ. eigenvalues --   -0.26574  -0.26347  -0.26069  -0.25350  -0.21926
 Alpha  occ. eigenvalues --   -0.20961
 Alpha virt. eigenvalues --   -0.06319  -0.03769   0.00156   0.01611   0.02978
 Alpha virt. eigenvalues --    0.03287   0.04030   0.04484   0.05048   0.05308
 Alpha virt. eigenvalues --    0.07150   0.08910   0.09352   0.09472   0.09589

 Mulliken charges:
               1
     1  Mg   0.817873
     2  C    0.069570
     3  C   -0.159561
     4  C   -0.204771
     5  C   -0.134115
     6  N   -0.562767
     7  C    0.219270
     8  C   -0.159684
     9  C   -0.159192
    10  C    0.359809
    11  C   -0.317958
    12  C   -0.149642
    13  C   -0.245342
    14  C    0.587137
    15  O   -0.482906
    16  O   -0.460812
    17  N   -0.741553
    18  C    0.377764
    19  C    0.029625
    20  C    0.078852
    21  C    0.268181
    22  C   -0.403174
    23  C   -0.089714
    24  C   -0.231485
    25  N   -0.711617
    26  C    0.347570
    27  C    0.049917
    28  C    0.035428
    29  C    0.274985
    30  C   -0.382349
    31  C   -0.258497
    32  C   -0.322216
    33  N   -0.715218
    34  C    0.284938
    35  C   -0.009146
    36  C    0.010709
    37  C    0.277887
    38  C   -0.368221
    39  C    0.324770
    40  O   -0.451873
    41  C   -0.334127
    42  C    0.668308
    43  O   -0.452914
    44  O   -0.509498
    45  C   -0.072613
    46  C    0.022218
    47  C   -0.140245
    48  C    0.109378
    49  C   -0.400021
    50  C   -0.204991
    51  C   -0.167883
    52  C   -0.175668
    53  C   -0.033171
    54  C   -0.329005
    55  C   -0.154238
    56  C   -0.158680
    57  C   -0.166706
    58  C   -0.055076
    59  C   -0.321590
    60  C   -0.166569
    61  C   -0.178595
    62  C   -0.178920
    63  C   -0.054949
    64  C   -0.307896
    65  C   -0.302326
    66  H    0.057491
    67  H    0.067666
    68  H    0.080112
    69  H    0.137945
    70  H    0.081823
    71  H    0.107012
    72  H    0.104903
    73  H    0.138852
    74  H    0.111306
    75  H    0.100747
    76  H    0.113180
    77  H    0.137903
    78  H    0.116281
    79  H    0.125486
    80  H    0.118495
    81  H    0.077477
    82  H    0.110225
    83  H    0.107846
    84  H    0.127444
    85  H    0.105199
    86  H    0.106739
    87  H    0.108761
    88  H    0.099055
    89  H    0.103982
    90  H    0.098668
    91  H    0.122920
    92  H    0.115835
    93  H    0.146692
    94  H    0.128898
    95  H    0.175701
    96  H    0.116451
    97  H    0.128791
    98  H    0.112049
    99  H    0.137834
   100  H    0.126367
   101  H    0.082097
   102  H    0.116324
   103  H    0.113213
   104  H    0.130627
   105  H    0.111018
   106  H    0.082331
   107  H    0.106362
   108  H    0.108868
   109  H    0.064306
   110  H    0.106091
   111  H    0.095298
   112  H    0.104214
   113  H    0.104886
   114  H    0.080916
   115  H    0.053325
   116  H    0.066301
   117  H    0.105367
   118  H    0.039699
   119  H    0.087085
   120  H    0.091543
   121  H    0.060004
   122  H    0.108501
   123  H    0.105545
   124  H    0.098286
   125  H    0.062417
   126  H    0.096700
   127  H    0.094188
   128  H    0.097815
   129  H    0.088287
   130  H    0.094327
   131  H    0.088623
   132  H    0.101756
   133  H    0.114120
   134  H    0.105843
   135  H    0.066835
   136  H    0.066672
   137  H    0.117384
 Sum of Mulliken charges =  -0.00000

 Dipole moment (field-independent basis, Debye):
    X=              1.2799    Y=              5.6845    Z=             -0.3573  Tot=              5.8378
 Quadrupole moment (field-independent basis, Debye-Ang):
   XX=           -334.1478   YY=           -389.6760   ZZ=           -399.8509
   XY=            -29.6584   XZ=              3.6779   YZ=              1.2251

 Normal termination of Gaussian 16 at Wed Oct 23 08:28:12 2019.
