 Gaussian 16, Revision A.03,
 Gaussian 16:  ES64L-G16RevA.03 25-Dec-2016

 ----------------------------------------------------------------------
 # td=(NStates=10) iop(3/107=0140000000,3/108=0140000000) CAM-B3LYP/6-3
 1G(d,p)
 ----------------------------------------------------------------------

 --
 TD
 --
 Symbolic Z-matrix:
 Charge =  0 Multiplicity = 1

                         Standard orientation:
 ---------------------------------------------------------------------
 Center     Atomic      Atomic             Coordinates (Angstroms)
 Number     Number       Type             X           Y           Z
 ---------------------------------------------------------------------
      1         12           0       -7.082147    0.630804   -0.036197
      2          6           0       -4.921527   -2.051150    0.514594
      3          6           0       -4.766796    2.833819    1.259854
      4          6           0       -9.425789    3.170559   -0.421604
      5          6           0       -9.547667   -1.648848   -0.985981
      6          7           0       -5.103612    0.399691    0.745420
      7          6           0       -4.416872   -0.711669    0.781862
      8          6           0       -2.911111   -0.520719    1.217959
      9          6           0       -3.027797    1.004606    1.756593
     10          6           0       -4.485386    1.486019    1.168583
     11          6           0       -2.930169    1.024906    3.298607
     12          6           0       -1.864258   -0.567755    0.009375
     13          6           0       -0.435785   -0.406847    0.621814
     14          6           0        0.540395   -0.594680   -0.531803
     15          8           0        0.188069   -0.895374   -1.657857
     16          8           0        1.791286   -0.312073   -0.084542
     17          7           0       -7.085445    2.648950    0.439830
     18          6           0       -6.059270    3.403851    0.915830
     19          6           0       -6.407687    4.751134    0.863488
     20          6           0       -7.675873    4.862601    0.389089
     21          6           0       -8.168976    3.508853    0.197922
     22          6           0       -5.406537    5.824839    1.441990
     23          6           0       -8.498288    6.003079    0.521659
     24          6           0       -8.171445    7.221711    0.120142
     25          7           0       -9.111486    0.694340   -0.561786
     26          6           0       -9.830807    1.816150   -0.637254
     27          6           0      -11.233957    1.564434   -1.077658
     28          6           0      -11.297583    0.240596   -1.341042
     29          6           0       -9.952845   -0.347858   -0.868103
     30          6           0      -12.262563    2.640823   -1.299692
     31          6           0      -12.394086   -0.647749   -1.760998
     32          6           0      -12.298463   -0.916523   -3.237629
     33          7           0       -7.225743   -1.376864   -0.128450
     34          6           0       -8.349089   -2.163481   -0.663245
     35          6           0       -7.857655   -3.555888   -0.671082
     36          6           0       -6.552441   -3.536584   -0.213751
     37          6           0       -6.191360   -2.188141    0.240642
     38          6           0       -8.623715   -4.844552   -1.045648
     39          6           0       -5.331664   -4.388335   -0.004410
     40          8           0       -5.361669   -5.609217   -0.102658
     41          6           0       -4.236445   -3.385282    0.543784
     42          6           0       -3.554827   -3.749114    1.834005
     43          8           0       -3.731582   -3.198898    2.921619
     44          8           0       -2.862359   -5.017542    1.673384
     45          6           0       -2.224408   -5.589177    2.817731
     46          6           0        2.813973   -0.603172   -1.041111
     47          6           0        4.152659   -0.391584   -0.377188
     48          6           0        5.101351    0.382376   -0.823746
     49          6           0        5.092410    1.194383   -2.167765
     50          6           0        6.499118    0.472164   -0.115352
     51          6           0        7.652117   -0.151731   -0.860025
     52          6           0        8.946855   -0.104348   -0.075212
     53          6           0       10.207707   -0.625354   -0.760741
     54          6           0       10.052523   -2.023681   -1.200545
     55          6           0       11.409675   -0.298419    0.084437
     56          6           0       12.733643   -0.539825   -0.605600
     57          6           0       13.957562   -0.094245    0.197614
     58          6           0       15.371164   -0.251145   -0.447506
     59          6           0       15.769904   -1.690883   -0.717490
     60          6           0       16.403958    0.499914    0.495790
     61          6           0       17.801047    0.487580   -0.211282
     62          6           0       18.854560    1.230722    0.574310
     63          6           0       20.285161    1.396905    0.030653
     64          6           0       20.311869    2.209058   -1.292246
     65          6           0       21.223695    1.871972    1.007340
     66          1           0       -3.915964    3.495616    1.611643
     67          1           0      -10.254139    3.836767   -0.764039
     68          1           0      -10.267272   -2.563556   -1.167070
     69          1           0       -2.682722   -1.188555    1.923605
     70          1           0       -2.223859    1.531097    1.221588
     71          1           0       -1.833970    0.727189    3.583806
     72          1           0       -3.169966    1.956697    3.659795
     73          1           0       -3.816030    0.278142    3.690549
     74          1           0       -2.108293   -1.525625   -0.605548
     75          1           0       -2.036532    0.189306   -0.672944
     76          1           0       -0.039604    0.506002    1.073526
     77          1           0       -0.165101   -1.068164    1.440773
     78          1           0       -4.818703    5.879417    0.648526
     79          1           0       -5.734723    6.980162    1.467947
     80          1           0       -4.931950    5.328226    2.302711
     81          1           0       -9.590690    5.774620    0.798483
     82          1           0       -8.879001    8.155022    0.200235
     83          1           0       -7.164726    7.500314   -0.018639
     84          1           0      -12.224411    3.173469   -2.142972
     85          1           0      -13.183896    2.183629   -1.601010
     86          1           0      -12.351778    3.026736   -0.215907
     87          1           0      -12.471387   -1.520023   -1.062485
     88          1           0      -13.281801   -0.265321   -1.687177
     89          1           0      -13.221186   -1.558907   -3.659153
     90          1           0      -12.198888    0.084454   -3.851615
     91          1           0      -11.445396   -1.488724   -3.398531
     92          1           0       -8.801819   -4.724728   -2.113929
     93          1           0       -8.127395   -5.761098   -0.802041
     94          1           0       -9.515080   -4.750085   -0.462136
     95          1           0       -3.267563   -3.320153   -0.174750
     96          1           0       -1.674373   -4.925498    3.227698
     97          1           0       -3.093980   -5.790522    3.476062
     98          1           0       -1.791962   -6.480809    2.552623
     99          1           0        2.789437   -1.483747   -1.628966
    100          1           0        2.576441    0.013699   -1.691696
    101          1           0        4.460459   -1.027497    0.360996
    102          1           0        4.139667    1.097745   -2.682550
    103          1           0        5.267109    2.159935   -1.854900
    104          1           0        5.810534    0.727130   -2.821690
    105          1           0        6.749870    1.431642    0.247645
    106          1           0        6.270038    0.089035    0.878717
    107          1           0        7.267053   -1.083395   -1.188717
    108          1           0        7.903908    0.737268   -1.702130
    109          1           0        8.859664    0.992116    0.118791
    110          1           0        8.815859   -0.873279    0.881718
    111          1           0       10.224802   -0.094431   -1.743998
    112          1           0        9.210226   -2.228502   -1.879890
    113          1           0       10.955355   -2.222964   -1.787374
    114          1           0       10.059160   -2.907193   -0.471253
    115          1           0       11.310048    0.861727    0.433483
    116          1           0       11.133427   -0.943454    1.049456
    117          1           0       12.682559   -1.449446   -0.986488
    118          1           0       12.839614    0.070902   -1.575155
    119          1           0       13.840624    1.018157    0.628167
    120          1           0       13.738756   -0.697886    1.134141
    121          1           0       15.448252    0.386646   -1.142746
    122          1           0       15.688084   -2.236264    0.142984
    123          1           0       15.009617   -2.081517   -1.534010
    124          1           0       16.793504   -1.711660   -1.274271
    125          1           0       15.983182    1.498082    0.558674
    126          1           0       16.476790   -0.052438    1.481314
    127          1           0       18.164609   -0.384157   -0.401116
    128          1           0       17.586035    0.838831   -1.195927
    129          1           0       18.496320    2.142902    0.859418
    130          1           0       18.746098    0.799262    1.586594
    131          1           0       20.463893    0.378360   -0.433463
    132          1           0       19.987358    3.224972   -1.126513
    133          1           0       21.370856    2.304484   -1.411977
    134          1           0       19.949876    1.692069   -2.225980
    135          1           0       21.255610    1.474568    2.062896
    136          1           0       22.286684    1.851358    0.952009
    137          1           0       20.943381    3.058324    1.174139
 ---------------------------------------------------------------------

 SCF Done:  E(RCAM-B3LYP) =  -2933.44611051     A.U. after   16 cycles

 Excitation energies and oscillator strengths:

 Excited State   1:      Singlet-A      2.0694 eV  599.12 nm  f=0.2674  <S**2>=0.000
     240 -> 243       -0.25772
     241 -> 242        0.65724
 This state for optimization and/or second-order correction.
 Total Energy, E(TD-HF/TD-DFT) =  -2933.37005967
 Copying the excited state density for this state as the 1-particle RhoCI density.

 Excited State   2:      Singlet-A      2.3545 eV  526.59 nm  f=0.0004  <S**2>=0.000
     240 -> 242        0.53079
     241 -> 243        0.45354

 Excited State   3:      Singlet-A      3.0646 eV  404.56 nm  f=0.0658  <S**2>=0.000
     239 -> 242        0.65909
     241 -> 243        0.16688

 Excited State   4:      Singlet-A      3.1307 eV  396.03 nm  f=0.2810  <S**2>=0.000
     237 -> 242        0.10805
     238 -> 242        0.47074
     239 -> 242       -0.12668
     240 -> 242       -0.27426
     241 -> 243        0.37008

 Excited State   5:      Singlet-A      3.1898 eV  388.70 nm  f=0.2453  <S**2>=0.000
     236 -> 242       -0.30489
     236 -> 244       -0.17022
     237 -> 242        0.16336
     238 -> 242        0.36199
     239 -> 242        0.11358
     240 -> 242        0.26350
     241 -> 243       -0.28662

 Excited State   6:      Singlet-A      3.4841 eV  355.86 nm  f=0.5065  <S**2>=0.000
     236 -> 242        0.27892
     237 -> 242       -0.19619
     238 -> 242        0.20946
     240 -> 243        0.40321
     241 -> 242        0.18224
     241 -> 244        0.29095

 Excited State   7:      Singlet-A      3.5204 eV  352.19 nm  f=0.3624  <S**2>=0.000
     236 -> 242       -0.29213
     237 -> 242        0.23439
     238 -> 242       -0.26203
     240 -> 242       -0.14348
     240 -> 243        0.41273
     241 -> 242        0.15520
     241 -> 243        0.10475
     241 -> 244        0.13508

 Excited State   8:      Singlet-A      3.6732 eV  337.54 nm  f=0.2617  <S**2>=0.000
     237 -> 242        0.16810
     240 -> 242       -0.12982
     240 -> 243       -0.27809
     241 -> 244        0.57617

 Excited State   9:      Singlet-A      3.7226 eV  333.06 nm  f=0.2059  <S**2>=0.000
     236 -> 242        0.35499
     237 -> 242        0.54473
     240 -> 242        0.11675
     241 -> 244       -0.15176

 Excited State  10:      Singlet-A      3.9620 eV  312.93 nm  f=0.0308  <S**2>=0.000
     239 -> 243        0.66798

 The electronic state is 1-A.
 Alpha  occ. eigenvalues --  -46.80096 -19.22370 -19.20633 -19.18139 -19.17099
 Alpha  occ. eigenvalues --  -19.16654 -14.38016 -14.35554 -14.35305 -14.34535
 Alpha  occ. eigenvalues --  -10.35697 -10.34440 -10.31355 -10.26992 -10.26371
 Alpha  occ. eigenvalues --  -10.26145 -10.25306 -10.25199 -10.25039 -10.24910
 Alpha  occ. eigenvalues --  -10.24568 -10.24409 -10.24298 -10.24060 -10.23541
 Alpha  occ. eigenvalues --  -10.23421 -10.23259 -10.22974 -10.22866 -10.22861
 Alpha  occ. eigenvalues --  -10.22855 -10.22806 -10.22608 -10.22413 -10.22361
 Alpha  occ. eigenvalues --  -10.22220 -10.22134 -10.22006 -10.21865 -10.21842
 Alpha  occ. eigenvalues --  -10.21817 -10.21755 -10.21695 -10.21669 -10.21649
 Alpha  occ. eigenvalues --  -10.21600 -10.21427 -10.21424 -10.21227 -10.21167
 Alpha  occ. eigenvalues --  -10.21104 -10.21010 -10.20964 -10.20920 -10.20823
 Alpha  occ. eigenvalues --  -10.20812 -10.20702 -10.20606 -10.20445 -10.20408
 Alpha  occ. eigenvalues --  -10.20280 -10.20185 -10.19905 -10.18925 -10.18685
 Alpha  occ. eigenvalues --   -3.08609  -1.83552  -1.83098  -1.82982  -1.13261
 Alpha  occ. eigenvalues --   -1.10092  -1.05764  -1.05048  -1.03597  -1.00327
 Alpha  occ. eigenvalues --   -0.98297  -0.97558  -0.95901  -0.87907  -0.86741
 Alpha  occ. eigenvalues --   -0.85691  -0.85204  -0.84360  -0.83979  -0.83877
 Alpha  occ. eigenvalues --   -0.83614  -0.83200  -0.82000  -0.81540  -0.81429
 Alpha  occ. eigenvalues --   -0.79879  -0.79479  -0.79293  -0.78613  -0.77573
 Alpha  occ. eigenvalues --   -0.77015  -0.76615  -0.76002  -0.75164  -0.73272
 Alpha  occ. eigenvalues --   -0.73011  -0.72632  -0.72138  -0.72014  -0.71296
 Alpha  occ. eigenvalues --   -0.70858  -0.70640  -0.70306  -0.69142  -0.67913
 Alpha  occ. eigenvalues --   -0.67272  -0.66166  -0.65697  -0.65334  -0.63869
 Alpha  occ. eigenvalues --   -0.62951  -0.62436  -0.61546  -0.60792  -0.60523
 Alpha  occ. eigenvalues --   -0.60173  -0.60153  -0.59855  -0.59017  -0.57893
 Alpha  occ. eigenvalues --   -0.57697  -0.56441  -0.56306  -0.55594  -0.54705
 Alpha  occ. eigenvalues --   -0.54242  -0.54048  -0.53338  -0.52989  -0.52696
 Alpha  occ. eigenvalues --   -0.52208  -0.51927  -0.51461  -0.51113  -0.50985
 Alpha  occ. eigenvalues --   -0.50395  -0.50300  -0.49886  -0.49809  -0.49599
 Alpha  occ. eigenvalues --   -0.49213  -0.48985  -0.48961  -0.48352  -0.47918
 Alpha  occ. eigenvalues --   -0.47762  -0.47498  -0.47448  -0.47115  -0.46880
 Alpha  occ. eigenvalues --   -0.46726  -0.46480  -0.46434  -0.46349  -0.46150
 Alpha  occ. eigenvalues --   -0.46021  -0.45760  -0.45481  -0.45348  -0.45216
 Alpha  occ. eigenvalues --   -0.44771  -0.44452  -0.44250  -0.43977  -0.43880
 Alpha  occ. eigenvalues --   -0.43774  -0.43588  -0.43227  -0.43011  -0.42880
 Alpha  occ. eigenvalues --   -0.42770  -0.42547  -0.42227  -0.42103  -0.41688
 Alpha  occ. eigenvalues --   -0.41427  -0.41387  -0.41206  -0.41044  -0.40822
 Alpha  occ. eigenvalues --   -0.40749  -0.40524  -0.40298  -0.40198  -0.40047
 Alpha  occ. eigenvalues --   -0.39784  -0.39437  -0.39223  -0.38735  -0.38641
 Alpha  occ. eigenvalues --   -0.38495  -0.38326  -0.38092  -0.37955  -0.37755
 Alpha  occ. eigenvalues --   -0.37636  -0.37595  -0.37465  -0.37143  -0.37084
 Alpha  occ. eigenvalues --   -0.36908  -0.36677  -0.36676  -0.36408  -0.35936
 Alpha  occ. eigenvalues --   -0.35551  -0.35538  -0.35135  -0.35039  -0.34694
 Alpha  occ. eigenvalues --   -0.34321  -0.34115  -0.33522  -0.33423  -0.33162
 Alpha  occ. eigenvalues --   -0.32921  -0.32722  -0.32519  -0.32082  -0.32035
 Alpha  occ. eigenvalues --   -0.31826  -0.31714  -0.31565  -0.30790  -0.30694
 Alpha  occ. eigenvalues --   -0.30310  -0.29846  -0.29448  -0.28322  -0.28111
 Alpha  occ. eigenvalues --   -0.27039  -0.26533  -0.25579  -0.24467  -0.21986
 Alpha  occ. eigenvalues --   -0.19592
 Alpha virt. eigenvalues --   -0.06590  -0.03838  -0.00481   0.01954   0.03269
 Alpha virt. eigenvalues --    0.03529   0.04297   0.05243   0.05374   0.06472
 Alpha virt. eigenvalues --    0.07200   0.08641   0.09225   0.09317   0.09802

 Mulliken charges:
               1
     1  Mg   0.817242
     2  C    0.089068
     3  C   -0.186165
     4  C   -0.164919
     5  C   -0.183161
     6  N   -0.623285
     7  C    0.286186
     8  C   -0.139412
     9  C   -0.158274
    10  C    0.324649
    11  C   -0.288336
    12  C   -0.173345
    13  C   -0.280342
    14  C    0.617132
    15  O   -0.476550
    16  O   -0.481095
    17  N   -0.696060
    18  C    0.327291
    19  C    0.002375
    20  C   -0.014418
    21  C    0.251761
    22  C   -0.357387
    23  C   -0.060900
    24  C   -0.245408
    25  N   -0.667552
    26  C    0.319620
    27  C   -0.009545
    28  C    0.031983
    29  C    0.264048
    30  C   -0.374785
    31  C   -0.224555
    32  C   -0.306506
    33  N   -0.742501
    34  C    0.288755
    35  C   -0.035395
    36  C   -0.008567
    37  C    0.304297
    38  C   -0.362882
    39  C    0.391022
    40  O   -0.445923
    41  C   -0.313581
    42  C    0.612419
    43  O   -0.454624
    44  O   -0.489314
    45  C   -0.059017
    46  C    0.039998
    47  C   -0.130922
    48  C    0.087169
    49  C   -0.357572
    50  C   -0.235427
    51  C   -0.164620
    52  C   -0.131286
    53  C   -0.050543
    54  C   -0.321718
    55  C   -0.145010
    56  C   -0.168045
    57  C   -0.179054
    58  C   -0.036231
    59  C   -0.300921
    60  C   -0.195100
    61  C   -0.182557
    62  C   -0.161529
    63  C   -0.044469
    64  C   -0.316508
    65  C   -0.309431
    66  H    0.092764
    67  H    0.106539
    68  H    0.089939
    69  H    0.112478
    70  H    0.091320
    71  H    0.095803
    72  H    0.115167
    73  H    0.106998
    74  H    0.108944
    75  H    0.127041
    76  H    0.141314
    77  H    0.138344
    78  H    0.149130
    79  H    0.099513
    80  H    0.121184
    81  H    0.085700
    82  H    0.085895
    83  H    0.090867
    84  H    0.138771
    85  H    0.110350
    86  H    0.128571
    87  H    0.102117
    88  H    0.110529
    89  H    0.078426
    90  H    0.095883
    91  H    0.123642
    92  H    0.129231
    93  H    0.152450
    94  H    0.125764
    95  H    0.149912
    96  H    0.126655
    97  H    0.119789
    98  H    0.130961
    99  H    0.129902
   100  H    0.109827
   101  H    0.081772
   102  H    0.104111
   103  H    0.127298
   104  H    0.129845
   105  H    0.100150
   106  H    0.091036
   107  H    0.100661
   108  H    0.065389
   109  H    0.084677
   110  H    0.054211
   111  H    0.078585
   112  H    0.109479
   113  H    0.103195
   114  H    0.090659
   115  H    0.069920
   116  H    0.073938
   117  H    0.106376
   118  H    0.073552
   119  H    0.067383
   120  H    0.080126
   121  H    0.092833
   122  H    0.120943
   123  H    0.082490
   124  H    0.095827
   125  H    0.094020
   126  H    0.082131
   127  H    0.103849
   128  H    0.082132
   129  H    0.087642
   130  H    0.077407
   131  H    0.074403
   132  H    0.101806
   133  H    0.107475
   134  H    0.101566
   135  H    0.099759
   136  H    0.112299
   137  H    0.069067
 Sum of Mulliken charges =  -0.00000

 Dipole moment (field-independent basis, Debye):
    X=              2.7795    Y=              2.7183    Z=             -0.6913  Tot=              3.9488
 Quadrupole moment (field-independent basis, Debye-Ang):
   XX=           -333.0468   YY=           -398.5228   ZZ=           -399.4255
   XY=            -18.0740   XZ=              9.6581   YZ=             -4.1060

 Normal termination of Gaussian 16 at Wed Oct 23 04:51:48 2019.
