 Gaussian 16, Revision A.03,
 Gaussian 16:  ES64L-G16RevA.03 25-Dec-2016

 ----------------------------------------------------------------------
 # td=(NStates=10) iop(3/107=0140000000,3/108=0140000000) CAM-B3LYP/6-3
 1G(d,p)
 ----------------------------------------------------------------------

 --
 TD
 --
 Symbolic Z-matrix:
 Charge =  0 Multiplicity = 1

                         Standard orientation:
 ---------------------------------------------------------------------
 Center     Atomic      Atomic             Coordinates (Angstroms)
 Number     Number       Type             X           Y           Z
 ---------------------------------------------------------------------
      1         12           0       -7.262217    0.627363    0.103162
      2          6           0       -4.967629   -1.948901    0.526058
      3          6           0       -4.786360    2.826220    1.146610
      4          6           0       -9.420299    3.186269   -0.312313
      5          6           0       -9.630800   -1.676229   -0.871141
      6          7           0       -5.242003    0.468529    0.720709
      7          6           0       -4.407550   -0.758227    0.833320
      8          6           0       -2.923061   -0.426280    1.181938
      9          6           0       -3.081786    1.016299    1.738705
     10          6           0       -4.477692    1.444415    1.211840
     11          6           0       -2.994657    1.061871    3.282112
     12          6           0       -1.833243   -0.620382    0.054523
     13          6           0       -0.450773   -0.413964    0.501970
     14          6           0        0.570318   -0.584752   -0.659650
     15          8           0        0.267930   -0.959716   -1.707114
     16          8           0        1.779626   -0.391100   -0.256944
     17          7           0       -7.206499    2.595960    0.388958
     18          6           0       -6.107636    3.303520    0.863477
     19          6           0       -6.400636    4.776088    0.880764
     20          6           0       -7.723795    4.817811    0.413910
     21          6           0       -8.159396    3.512712    0.098270
     22          6           0       -5.528825    5.801852    1.437310
     23          6           0       -8.603341    5.957200    0.197122
     24          6           0       -8.326226    7.380599    0.182934
     25          7           0       -9.172684    0.663145   -0.619275
     26          6           0       -9.892678    1.788864   -0.654974
     27          6           0      -11.171441    1.552281   -1.093907
     28          6           0      -11.352614    0.203706   -1.218214
     29          6           0       -9.995304   -0.342403   -0.967761
     30          6           0      -12.399627    2.507057   -1.251984
     31          6           0      -12.443412   -0.632957   -1.686160
     32          6           0      -12.328100   -1.237348   -3.143632
     33          7           0       -7.333179   -1.414394   -0.148404
     34          6           0       -8.447528   -2.279036   -0.523444
     35          6           0       -7.884073   -3.635803   -0.441373
     36          6           0       -6.513529   -3.555428   -0.069572
     37          6           0       -6.279533   -2.173751    0.160210
     38          6           0       -8.688228   -4.853558   -0.889605
     39          6           0       -5.340128   -4.442730    0.228511
     40          8           0       -5.149345   -5.539373    0.096081
     41          6           0       -4.255700   -3.300886    0.560324
     42          6           0       -3.462423   -3.672918    1.875038
     43          8           0       -3.587869   -3.108270    2.919388
     44          8           0       -2.634464   -4.747100    1.575349
     45          6           0       -2.045340   -5.223655    2.781110
     46          6           0        2.864676   -0.628206   -1.331507
     47          6           0        4.174667   -0.478685   -0.607109
     48          6           0        5.178309    0.246794   -1.060838
     49          6           0        5.195532    1.073472   -2.392049
     50          6           0        6.480467    0.365229   -0.338575
     51          6           0        7.796447   -0.128898   -0.964409
     52          6           0        8.929630   -0.256426   -0.114043
     53          6           0       10.224464   -0.691085   -0.796766
     54          6           0       10.254822   -2.087931   -1.217813
     55          6           0       11.530423   -0.248635    0.077481
     56          6           0       12.825034   -0.369772   -0.617965
     57          6           0       14.017160   -0.010643    0.253961
     58          6           0       15.334038   -0.172405   -0.364845
     59          6           0       15.768383   -1.722323   -0.707990
     60          6           0       16.466011    0.412457    0.483142
     61          6           0       17.782732    0.601920   -0.211094
     62          6           0       18.817778    1.342771    0.643003
     63          6           0       20.231021    1.351213    0.161410
     64          6           0       20.478928    2.277520   -1.045319
     65          6           0       21.228651    1.871470    1.251954
     66          1           0       -4.131554    3.529741    1.455355
     67          1           0      -10.266202    3.868645   -0.410137
     68          1           0      -10.445478   -2.324893   -1.184185
     69          1           0       -2.750913   -1.228221    2.080367
     70          1           0       -2.317939    1.661468    1.326323
     71          1           0       -1.949711    0.929234    3.482626
     72          1           0       -3.263333    2.047968    3.794411
     73          1           0       -3.619995    0.175530    3.748069
     74          1           0       -2.140236   -1.521242   -0.318535
     75          1           0       -2.163907    0.030320   -0.809860
     76          1           0       -0.478078    0.666063    0.787154
     77          1           0       -0.161275   -1.043711    1.429735
     78          1           0       -5.122818    6.449960    0.698013
     79          1           0       -6.280915    6.481424    2.193812
     80          1           0       -4.802764    5.177026    2.135190
     81          1           0       -9.685496    5.680523    0.230367
     82          1           0       -9.093934    8.096378    0.010806
     83          1           0       -7.239396    7.796454    0.008325
     84          1           0      -12.580602    3.188524   -2.237211
     85          1           0      -13.365502    1.982756   -1.373974
     86          1           0      -12.326355    3.274078   -0.484082
     87          1           0      -12.323979   -1.572107   -0.990837
     88          1           0      -13.503897   -0.082117   -1.559344
     89          1           0      -13.270924   -1.703835   -3.316015
     90          1           0      -12.162865   -0.379335   -3.761197
     91          1           0      -11.571375   -1.807514   -3.315150
     92          1           0       -8.767182   -4.658685   -1.997056
     93          1           0       -8.054359   -5.882805   -0.526687
     94          1           0       -9.697130   -4.976965   -0.320651
     95          1           0       -3.625761   -3.399081   -0.364077
     96          1           0       -1.488291   -4.455375    3.345881
     97          1           0       -2.641208   -5.902300    3.415777
     98          1           0       -1.250162   -5.945656    2.552284
     99          1           0        2.904657   -1.694604   -1.459588
    100          1           0        2.745374   -0.106600   -2.129971
    101          1           0        4.476819   -1.118895    0.378644
    102          1           0        4.392254    1.119884   -2.961370
    103          1           0        5.493579    2.275559   -2.330197
    104          1           0        6.017840    0.797164   -3.182931
    105          1           0        6.628476    1.519385   -0.302626
    106          1           0        6.395506   -0.008065    0.692793
    107          1           0        7.652010   -1.142372   -1.613185
    108          1           0        7.867221    0.725925   -1.830909
    109          1           0        8.928367    0.740381    0.323454
    110          1           0        8.599241   -0.922082    0.707024
    111          1           0       10.167760    0.059726   -1.536377
    112          1           0        9.463251   -2.493956   -1.907511
    113          1           0       11.088086   -2.347359   -1.748415
    114          1           0       10.048450   -2.786782   -0.387970
    115          1           0       11.340140    0.793093    0.325891
    116          1           0       11.425852   -0.948994    0.883208
    117          1           0       12.946714   -1.488030   -0.923762
    118          1           0       12.778600    0.091344   -1.667177
    119          1           0       13.848017    1.000552    0.460952
    120          1           0       13.944669   -0.501930    1.247121
    121          1           0       15.302630    0.456128   -1.408578
    122          1           0       15.915491   -2.121953    0.288079
    123          1           0       15.082312   -2.249519   -1.380665
    124          1           0       16.786263   -1.827377   -1.189390
    125          1           0       16.063158    1.344190    0.736110
    126          1           0       16.616639   -0.000742    1.522950
    127          1           0       18.244341   -0.414927   -0.580150
    128          1           0       17.569255    1.109528   -1.162399
    129          1           0       18.599101    2.496841    0.832240
    130          1           0       18.583219    1.070308    1.559240
    131          1           0       20.431798    0.417803   -0.075729
    132          1           0       20.240253    3.337361   -0.823704
    133          1           0       21.436729    2.150522   -1.592990
    134          1           0       19.668850    1.930163   -1.727132
    135          1           0       20.943313    1.467828    2.187547
    136          1           0       22.441277    1.800148    1.020216
    137          1           0       20.929414    2.929184    1.548081
 ---------------------------------------------------------------------

 SCF Done:  E(RCAM-B3LYP) =  -2933.52904921     A.U. after   15 cycles

 Excitation energies and oscillator strengths:

 Excited State   1:      Singlet-A      2.1532 eV  575.82 nm  f=0.2011  <S**2>=0.000
     240 -> 243        0.24102
     241 -> 242        0.65813
 This state for optimization and/or second-order correction.
 Total Energy, E(TD-HF/TD-DFT) =  -2933.44992191
 Copying the excited state density for this state as the 1-particle RhoCI density.

 Excited State   2:      Singlet-A      2.4176 eV  512.84 nm  f=0.0132  <S**2>=0.000
     240 -> 242        0.56543
     241 -> 243       -0.40561

 Excited State   3:      Singlet-A      3.1181 eV  397.63 nm  f=0.0615  <S**2>=0.000
     239 -> 242        0.65128
     239 -> 243        0.14859
     240 -> 243        0.11219
     241 -> 243       -0.14298

 Excited State   4:      Singlet-A      3.1972 eV  387.78 nm  f=0.7781  <S**2>=0.000
     237 -> 242       -0.17535
     238 -> 242        0.12958
     239 -> 242        0.10945
     240 -> 242        0.37823
     241 -> 243        0.53116

 Excited State   5:      Singlet-A      3.3238 eV  373.01 nm  f=0.4357  <S**2>=0.000
     238 -> 242        0.31072
     238 -> 243       -0.10433
     240 -> 243        0.56892
     241 -> 242       -0.21934

 Excited State   6:      Singlet-A      3.4290 eV  361.58 nm  f=0.2795  <S**2>=0.000
     237 -> 242       -0.23854
     238 -> 242        0.53571
     240 -> 242       -0.11654
     240 -> 243       -0.28930
     241 -> 243       -0.13172

 Excited State   7:      Singlet-A      3.5218 eV  352.05 nm  f=0.1314  <S**2>=0.000
     237 -> 242        0.61030
     237 -> 243       -0.11128
     238 -> 242        0.25537
     240 -> 243       -0.10646

 Excited State   8:      Singlet-A      3.6714 eV  337.70 nm  f=0.0008  <S**2>=0.000
     236 -> 242        0.64101
     236 -> 243       -0.17184
     236 -> 244       -0.16933
     236 -> 245       -0.10157

 Excited State   9:      Singlet-A      3.8653 eV  320.76 nm  f=0.0074  <S**2>=0.000
     238 -> 242        0.15398
     238 -> 243        0.53490
     239 -> 243       -0.40424

 Excited State  10:      Singlet-A      3.9643 eV  312.75 nm  f=0.0299  <S**2>=0.000
     238 -> 243        0.25933
     239 -> 243        0.29713
     241 -> 244        0.54881

 The electronic state is 1-A.
 Alpha  occ. eigenvalues --  -46.79055 -19.22883 -19.21724 -19.18028 -19.17280
 Alpha  occ. eigenvalues --  -19.15620 -14.37382 -14.35021 -14.34557 -14.34403
 Alpha  occ. eigenvalues --  -10.35310 -10.33138 -10.30544 -10.27606 -10.26534
 Alpha  occ. eigenvalues --  -10.26299 -10.26001 -10.25925 -10.24487 -10.24337
 Alpha  occ. eigenvalues --  -10.24244 -10.24086 -10.24017 -10.23973 -10.23907
 Alpha  occ. eigenvalues --  -10.23789 -10.23777 -10.23748 -10.23589 -10.23449
 Alpha  occ. eigenvalues --  -10.23439 -10.23349 -10.23318 -10.23298 -10.23161
 Alpha  occ. eigenvalues --  -10.23050 -10.23016 -10.22935 -10.22858 -10.22720
 Alpha  occ. eigenvalues --  -10.22675 -10.22623 -10.22436 -10.22216 -10.22105
 Alpha  occ. eigenvalues --  -10.21819 -10.21447 -10.21417 -10.21403 -10.21385
 Alpha  occ. eigenvalues --  -10.21152 -10.20946 -10.20931 -10.20662 -10.20635
 Alpha  occ. eigenvalues --  -10.20524 -10.20519 -10.20478 -10.20445 -10.20362
 Alpha  occ. eigenvalues --  -10.20338 -10.20152 -10.20033 -10.19931 -10.19307
 Alpha  occ. eigenvalues --   -3.07736  -1.82676  -1.82222  -1.82134  -1.14829
 Alpha  occ. eigenvalues --   -1.13288  -1.12360  -1.06045  -1.05591  -0.99306
 Alpha  occ. eigenvalues --   -0.98117  -0.97108  -0.95938  -0.87141  -0.86825
 Alpha  occ. eigenvalues --   -0.86120  -0.85400  -0.84409  -0.84028  -0.83487
 Alpha  occ. eigenvalues --   -0.83181  -0.82884  -0.81889  -0.81562  -0.80932
 Alpha  occ. eigenvalues --   -0.80222  -0.79405  -0.78212  -0.77976  -0.77275
 Alpha  occ. eigenvalues --   -0.76699  -0.75884  -0.75636  -0.75029  -0.72758
 Alpha  occ. eigenvalues --   -0.72483  -0.72255  -0.71904  -0.71208  -0.70904
 Alpha  occ. eigenvalues --   -0.70423  -0.69966  -0.69813  -0.69544  -0.67428
 Alpha  occ. eigenvalues --   -0.67030  -0.65944  -0.65620  -0.65058  -0.63155
 Alpha  occ. eigenvalues --   -0.62535  -0.62400  -0.60574  -0.60522  -0.60210
 Alpha  occ. eigenvalues --   -0.59918  -0.59738  -0.59285  -0.59003  -0.58088
 Alpha  occ. eigenvalues --   -0.57905  -0.56487  -0.55966  -0.55282  -0.54770
 Alpha  occ. eigenvalues --   -0.54468  -0.53575  -0.53423  -0.53128  -0.52749
 Alpha  occ. eigenvalues --   -0.52194  -0.51950  -0.51307  -0.50968  -0.50887
 Alpha  occ. eigenvalues --   -0.50650  -0.50473  -0.50274  -0.49994  -0.49668
 Alpha  occ. eigenvalues --   -0.49405  -0.49002  -0.48375  -0.48007  -0.47822
 Alpha  occ. eigenvalues --   -0.47604  -0.47518  -0.47400  -0.47277  -0.47033
 Alpha  occ. eigenvalues --   -0.46892  -0.46718  -0.46366  -0.46181  -0.45908
 Alpha  occ. eigenvalues --   -0.45791  -0.45612  -0.45153  -0.44893  -0.44807
 Alpha  occ. eigenvalues --   -0.44651  -0.44169  -0.44027  -0.43748  -0.43678
 Alpha  occ. eigenvalues --   -0.43251  -0.43079  -0.43032  -0.42876  -0.42633
 Alpha  occ. eigenvalues --   -0.42373  -0.42273  -0.42150  -0.41998  -0.41512
 Alpha  occ. eigenvalues --   -0.41395  -0.41336  -0.41143  -0.40782  -0.40515
 Alpha  occ. eigenvalues --   -0.40273  -0.40172  -0.40160  -0.40070  -0.39862
 Alpha  occ. eigenvalues --   -0.39464  -0.39383  -0.39220  -0.39086  -0.38856
 Alpha  occ. eigenvalues --   -0.38701  -0.38545  -0.38368  -0.38046  -0.37928
 Alpha  occ. eigenvalues --   -0.37787  -0.37687  -0.37563  -0.37507  -0.37362
 Alpha  occ. eigenvalues --   -0.37285  -0.36864  -0.36609  -0.36263  -0.36224
 Alpha  occ. eigenvalues --   -0.35931  -0.35908  -0.35520  -0.35104  -0.35081
 Alpha  occ. eigenvalues --   -0.34715  -0.34013  -0.33926  -0.33851  -0.33696
 Alpha  occ. eigenvalues --   -0.33446  -0.33191  -0.33028  -0.32728  -0.32711
 Alpha  occ. eigenvalues --   -0.32057  -0.31789  -0.31502  -0.31278  -0.30821
 Alpha  occ. eigenvalues --   -0.30183  -0.29934  -0.29396  -0.28132  -0.27794
 Alpha  occ. eigenvalues --   -0.26727  -0.26056  -0.25366  -0.24302  -0.21458
 Alpha  occ. eigenvalues --   -0.20019
 Alpha virt. eigenvalues --   -0.06366  -0.03913   0.00453   0.01945   0.03468
 Alpha virt. eigenvalues --    0.03644   0.05158   0.05297   0.06082   0.06390
 Alpha virt. eigenvalues --    0.06941   0.09247   0.09373   0.09654   0.10202

 Mulliken charges:
               1
     1  Mg   0.805942
     2  C    0.076544
     3  C   -0.179116
     4  C   -0.178760
     5  C   -0.193271
     6  N   -0.612895
     7  C    0.227734
     8  C   -0.158686
     9  C   -0.144100
    10  C    0.368995
    11  C   -0.305063
    12  C   -0.152453
    13  C   -0.269371
    14  C    0.599065
    15  O   -0.442594
    16  O   -0.467218
    17  N   -0.732257
    18  C    0.290319
    19  C    0.026004
    20  C    0.038504
    21  C    0.364761
    22  C   -0.373065
    23  C   -0.097461
    24  C   -0.258179
    25  N   -0.696751
    26  C    0.303309
    27  C    0.027263
    28  C    0.064447
    29  C    0.276505
    30  C   -0.376962
    31  C   -0.266416
    32  C   -0.298099
    33  N   -0.741380
    34  C    0.298158
    35  C   -0.023140
    36  C   -0.028223
    37  C    0.354384
    38  C   -0.370371
    39  C    0.374666
    40  O   -0.364634
    41  C   -0.351609
    42  C    0.619953
    43  O   -0.447208
    44  O   -0.438141
    45  C   -0.102938
    46  C    0.024624
    47  C   -0.165227
    48  C    0.184522
    49  C   -0.372826
    50  C   -0.244496
    51  C   -0.145751
    52  C   -0.165692
    53  C   -0.054634
    54  C   -0.321404
    55  C   -0.170915
    56  C   -0.179990
    57  C   -0.156449
    58  C   -0.053243
    59  C   -0.321497
    60  C   -0.184182
    61  C   -0.170953
    62  C   -0.159476
    63  C   -0.045448
    64  C   -0.302166
    65  C   -0.305384
    66  H    0.058528
    67  H    0.082438
    68  H    0.075032
    69  H    0.113573
    70  H    0.100792
    71  H    0.114810
    72  H    0.099779
    73  H    0.120903
    74  H    0.118440
    75  H    0.107901
    76  H    0.122147
    77  H    0.124141
    78  H    0.139906
    79  H    0.105707
    80  H    0.108627
    81  H    0.089898
    82  H    0.111760
    83  H    0.091721
    84  H    0.087195
    85  H    0.113939
    86  H    0.117400
    87  H    0.093939
    88  H    0.083978
    89  H    0.112137
    90  H    0.113331
    91  H    0.119957
    92  H    0.135518
    93  H    0.112540
    94  H    0.116645
    95  H    0.163177
    96  H    0.126441
    97  H    0.126803
    98  H    0.114254
    99  H    0.143833
   100  H    0.132871
   101  H    0.089334
   102  H    0.121569
   103  H    0.085996
   104  H    0.115574
   105  H    0.095842
   106  H    0.088575
   107  H    0.066319
   108  H    0.061545
   109  H    0.088421
   110  H    0.082453
   111  H    0.089288
   112  H    0.096886
   113  H    0.117602
   114  H    0.101159
   115  H    0.087721
   116  H    0.097136
   117  H    0.079045
   118  H    0.081738
   119  H    0.099840
   120  H    0.088612
   121  H    0.056856
   122  H    0.106542
   123  H    0.102324
   124  H    0.097068
   125  H    0.099444
   126  H    0.081535
   127  H    0.077106
   128  H    0.097673
   129  H    0.057672
   130  H    0.099313
   131  H    0.095211
   132  H    0.101365
   133  H    0.102103
   134  H    0.087975
   135  H    0.098005
   136  H    0.082490
   137  H    0.086991
 Sum of Mulliken charges =  -0.00000

 Dipole moment (field-independent basis, Debye):
    X=              2.8192    Y=              2.5830    Z=              0.3133  Tot=              3.8364
 Quadrupole moment (field-independent basis, Debye-Ang):
   XX=           -370.6371   YY=           -392.2397   ZZ=           -397.2889
   XY=            -16.8199   XZ=              8.8803   YZ=             -4.0745

 Normal termination of Gaussian 16 at Tue Oct 22 04:22:51 2019.
