 Gaussian 16, Revision A.03,
 Gaussian 16:  ES64L-G16RevA.03 25-Dec-2016

 ----------------------------------------------------------------------
 # td=(NStates=10) iop(3/107=0140000000,3/108=0140000000) CAM-B3LYP/6-3
 1G(d,p)
 ----------------------------------------------------------------------

 --
 TD
 --
 Symbolic Z-matrix:
 Charge =  0 Multiplicity = 1

                         Standard orientation:
 ---------------------------------------------------------------------
 Center     Atomic      Atomic             Coordinates (Angstroms)
 Number     Number       Type             X           Y           Z
 ---------------------------------------------------------------------
      1         12           0       -7.168549    0.625317    0.039316
      2          6           0       -4.809480   -1.910265    0.428635
      3          6           0       -4.907361    2.734879    1.331670
      4          6           0       -9.420101    3.109748   -0.290581
      5          6           0       -9.471579   -1.759911   -0.824110
      6          7           0       -5.097288    0.462852    0.753408
      7          6           0       -4.301022   -0.614276    0.779010
      8          6           0       -2.887999   -0.302023    1.197736
      9          6           0       -3.038267    1.164556    1.661780
     10          6           0       -4.452710    1.479510    1.167631
     11          6           0       -2.967468    1.178230    3.234007
     12          6           0       -1.904670   -0.463601    0.135765
     13          6           0       -0.439499   -0.430722    0.558267
     14          6           0        0.500946   -0.761109   -0.525077
     15          8           0        0.177010   -1.270296   -1.659654
     16          8           0        1.740660   -0.569045   -0.146890
     17          7           0       -7.118821    2.631860    0.327028
     18          6           0       -6.116068    3.356228    0.947200
     19          6           0       -6.426654    4.738736    0.925923
     20          6           0       -7.733944    4.822441    0.373434
     21          6           0       -8.228000    3.487827    0.126654
     22          6           0       -5.472463    5.982909    1.106106
     23          6           0       -8.579789    5.991110    0.224131
     24          6           0       -8.240847    7.271199    0.013278
     25          7           0       -9.212972    0.717375   -0.473579
     26          6           0       -9.946504    1.857349   -0.646185
     27          6           0      -11.212962    1.419431   -0.976227
     28          6           0      -11.288620    0.019396   -1.139255
     29          6           0       -9.948379   -0.414799   -0.829723
     30          6           0      -12.357612    2.265796   -1.286863
     31          6           0      -12.422516   -0.769705   -1.704446
     32          6           0      -12.429419   -1.144657   -3.143514
     33          7           0       -7.137176   -1.387650   -0.201605
     34          6           0       -8.283363   -2.188284   -0.503730
     35          6           0       -7.845979   -3.613470   -0.444758
     36          6           0       -6.459408   -3.523047   -0.123587
     37          6           0       -6.151498   -2.143613    0.023160
     38          6           0       -8.516037   -4.854862   -0.584071
     39          6           0       -5.314952   -4.343471    0.115662
     40          8           0       -5.086749   -5.533029    0.208193
     41          6           0       -4.105807   -3.243702    0.556049
     42          6           0       -3.429938   -3.657426    1.839654
     43          8           0       -3.598888   -3.024999    2.864863
     44          8           0       -2.628625   -4.687618    1.686649
     45          6           0       -2.068373   -5.197262    2.868394
     46          6           0        2.777451   -0.651211   -1.150112
     47          6           0        4.100388   -0.433582   -0.471723
     48          6           0        5.138179    0.361565   -1.118221
     49          6           0        5.016147    0.970146   -2.441187
     50          6           0        6.458145    0.438872   -0.424848
     51          6           0        7.703893   -0.229905   -1.070230
     52          6           0        8.846695   -0.043291   -0.201325
     53          6           0       10.221636   -0.496278   -1.004522
     54          6           0       10.099802   -1.907427   -1.484580
     55          6           0       11.378412   -0.247375   -0.062008
     56          6           0       12.794766   -0.601398   -0.700344
     57          6           0       13.962316   -0.106080    0.161414
     58          6           0       15.335013   -0.351229   -0.409362
     59          6           0       15.725491   -1.764013   -0.664787
     60          6           0       16.440950    0.372573    0.464800
     61          6           0       17.834062    0.546305   -0.142636
     62          6           0       18.774514    1.276229    0.737666
     63          6           0       20.259615    1.452821    0.255724
     64          6           0       20.371090    2.149469   -1.002994
     65          6           0       21.018950    2.075941    1.413869
     66          1           0       -4.084838    3.344671    1.625406
     67          1           0      -10.135851    3.818072   -0.466136
     68          1           0      -10.386171   -2.505680   -1.139941
     69          1           0       -2.478756   -0.958944    1.924139
     70          1           0       -2.302852    2.015850    1.312276
     71          1           0       -1.802649    1.271861    3.570050
     72          1           0       -3.455581    2.234181    3.442667
     73          1           0       -3.684591    0.567212    3.648411
     74          1           0       -2.043209   -1.583632   -0.270301
     75          1           0       -1.930512    0.131745   -0.687458
     76          1           0       -0.310763    0.523815    1.262128
     77          1           0       -0.312838   -1.252988    1.338934
     78          1           0       -4.813293    6.072562    0.185158
     79          1           0       -5.927331    6.851848    1.593210
     80          1           0       -4.746176    5.533735    1.608145
     81          1           0       -9.725278    5.764416    0.378748
     82          1           0       -8.833476    8.078468    0.119025
     83          1           0       -7.089727    7.545997   -0.110751
     84          1           0      -12.376931    2.785508   -2.295282
     85          1           0      -13.275499    1.725088   -1.288800
     86          1           0      -12.439565    3.219219   -0.702398
     87          1           0      -12.506572   -1.706235   -1.311207
     88          1           0      -13.422607   -0.313226   -1.423697
     89          1           0      -13.587552   -1.492411   -3.268716
     90          1           0      -12.220677   -0.278795   -4.024491
     91          1           0      -11.785377   -2.009755   -3.228111
     92          1           0       -8.943285   -4.722105   -1.660411
     93          1           0       -7.908665   -5.693678   -0.646819
     94          1           0       -9.226220   -5.009113    0.129873
     95          1           0       -3.427703   -3.416333   -0.288193
     96          1           0       -1.678427   -4.276975    3.380647
     97          1           0       -2.952807   -5.556626    3.591726
     98          1           0       -1.387579   -5.874682    2.602969
     99          1           0        2.672069   -1.682447   -1.581009
    100          1           0        2.396913    0.077500   -1.996165
    101          1           0        4.320090   -1.184557    0.458416
    102          1           0        3.995813    1.198317   -2.733219
    103          1           0        5.622450    1.935345   -2.502833
    104          1           0        5.517928    0.425167   -3.395008
    105          1           0        6.416788    1.692923   -0.162789
    106          1           0        6.185416    0.210907    0.613848
    107          1           0        7.363922   -1.211708   -1.384468
    108          1           0        7.774308    0.336923   -1.879510
    109          1           0        8.903371    0.952213    0.233109
    110          1           0        8.736826   -0.698476    0.607774
    111          1           0       10.430285    0.187880   -1.819189
    112          1           0        9.057336   -2.030929   -2.003065
    113          1           0       10.948134   -2.349503   -2.325732
    114          1           0       10.204475   -2.545531   -0.587279
    115          1           0       11.335480    0.919337    0.384694
    116          1           0       11.390785   -1.042300    0.689695
    117          1           0       12.934474   -1.514619   -1.067426
    118          1           0       13.035096   -0.042939   -1.639752
    119          1           0       13.669181    0.912711    0.547637
    120          1           0       14.124388   -0.614039    1.127628
    121          1           0       15.547022    0.256085   -1.344517
    122          1           0       15.701118   -2.416437    0.449187
    123          1           0       14.827628   -2.127948   -1.175538
    124          1           0       16.705300   -1.849292   -1.108493
    125          1           0       16.188664    1.343391    0.746454
    126          1           0       16.588379   -0.043471    1.384307
    127          1           0       18.065333   -0.517197   -0.636450
    128          1           0       17.535218    1.049232   -1.146131
    129          1           0       18.362292    2.329543    0.901430
    130          1           0       18.718631    0.744516    1.814012
    131          1           0       20.439173    0.390255    0.165443
    132          1           0       20.160069    3.156631   -0.879634
    133          1           0       21.294154    2.114804   -1.329743
    134          1           0       19.800003    1.641023   -1.824056
    135          1           0       20.985249    1.722591    2.331204
    136          1           0       22.001543    2.229302    1.261657
    137          1           0       20.932123    3.285134    1.311200
 ---------------------------------------------------------------------

 SCF Done:  E(RCAM-B3LYP) =  -2933.44665262     A.U. after   15 cycles

 Excitation energies and oscillator strengths:

 Excited State   1:      Singlet-A      2.2261 eV  556.95 nm  f=0.1172  <S**2>=0.000
     240 -> 242       -0.13328
     240 -> 243       -0.32616
     241 -> 242        0.59474
     241 -> 243       -0.11198
 This state for optimization and/or second-order correction.
 Total Energy, E(TD-HF/TD-DFT) =  -2933.36484460
 Copying the excited state density for this state as the 1-particle RhoCI density.

 Excited State   2:      Singlet-A      2.3774 eV  521.51 nm  f=0.0212  <S**2>=0.000
     240 -> 242        0.57979
     241 -> 242        0.17055
     241 -> 243        0.33921

 Excited State   3:      Singlet-A      2.9866 eV  415.13 nm  f=0.0523  <S**2>=0.000
     238 -> 242       -0.21672
     238 -> 243        0.12038
     239 -> 242        0.60762
     239 -> 243       -0.14592
     240 -> 243        0.14443
     241 -> 243       -0.11589

 Excited State   4:      Singlet-A      3.1073 eV  399.02 nm  f=0.2371  <S**2>=0.000
     236 -> 242       -0.25181
     238 -> 242        0.29286
     239 -> 242        0.25809
     239 -> 243        0.12019
     240 -> 242       -0.16108
     240 -> 243       -0.28375
     241 -> 242       -0.12322
     241 -> 243        0.33678

 Excited State   5:      Singlet-A      3.1269 eV  396.50 nm  f=0.0734  <S**2>=0.000
     236 -> 242        0.30556
     236 -> 243        0.10360
     236 -> 244       -0.11436
     238 -> 242        0.52157
     239 -> 242        0.17777
     239 -> 243        0.10160
     240 -> 243        0.13568
     241 -> 243       -0.13228

 Excited State   6:      Singlet-A      3.2207 eV  384.96 nm  f=0.2653  <S**2>=0.000
     236 -> 242       -0.37808
     236 -> 243       -0.11983
     236 -> 244        0.14797
     238 -> 242        0.17005
     238 -> 243       -0.18442
     239 -> 243       -0.18382
     240 -> 243        0.38542
     241 -> 242        0.21872

 Excited State   7:      Singlet-A      3.2383 eV  382.86 nm  f=0.7370  <S**2>=0.000
     236 -> 242        0.27525
     236 -> 244       -0.10224
     239 -> 243       -0.17063
     240 -> 242       -0.30359
     240 -> 243        0.17746
     241 -> 242        0.12549
     241 -> 243        0.44963

 Excited State   8:      Singlet-A      3.3705 eV  367.85 nm  f=0.2924  <S**2>=0.000
     238 -> 243        0.26362
     239 -> 243        0.54667
     240 -> 243        0.27222
     241 -> 242        0.13240

 Excited State   9:      Singlet-A      3.7476 eV  330.84 nm  f=0.0910  <S**2>=0.000
     235 -> 242       -0.14556
     238 -> 242        0.15979
     238 -> 243        0.57717
     239 -> 242       -0.11964
     239 -> 243       -0.28315

 Excited State  10:      Singlet-A      3.8602 eV  321.18 nm  f=0.1459  <S**2>=0.000
     235 -> 242        0.63651
     235 -> 243        0.13791
     238 -> 243        0.13738

 The electronic state is 1-A.
 Alpha  occ. eigenvalues --  -46.80160 -19.22205 -19.22149 -19.16434 -19.15681
 Alpha  occ. eigenvalues --  -19.15585 -14.36997 -14.35610 -14.34634 -14.34018
 Alpha  occ. eigenvalues --  -10.34532 -10.33694 -10.30571 -10.28499 -10.26610
 Alpha  occ. eigenvalues --  -10.26510 -10.25565 -10.25381 -10.25196 -10.24872
 Alpha  occ. eigenvalues --  -10.24675 -10.24480 -10.24245 -10.24234 -10.24060
 Alpha  occ. eigenvalues --  -10.24036 -10.23908 -10.23648 -10.23227 -10.23182
 Alpha  occ. eigenvalues --  -10.23136 -10.23118 -10.22997 -10.22948 -10.22880
 Alpha  occ. eigenvalues --  -10.22830 -10.22638 -10.22549 -10.22457 -10.22331
 Alpha  occ. eigenvalues --  -10.22057 -10.21926 -10.21695 -10.21690 -10.21654
 Alpha  occ. eigenvalues --  -10.21545 -10.21522 -10.21433 -10.21399 -10.21381
 Alpha  occ. eigenvalues --  -10.21338 -10.21192 -10.21049 -10.21041 -10.21023
 Alpha  occ. eigenvalues --  -10.20989 -10.20863 -10.20669 -10.20552 -10.20376
 Alpha  occ. eigenvalues --  -10.20210 -10.20145 -10.19094 -10.18264 -10.18153
 Alpha  occ. eigenvalues --   -3.08634  -1.83591  -1.83084  -1.83043  -1.14407
 Alpha  occ. eigenvalues --   -1.13455  -1.06108  -1.04154  -1.01912  -1.00913
 Alpha  occ. eigenvalues --   -1.00177  -0.97369  -0.96375  -0.86861  -0.86685
 Alpha  occ. eigenvalues --   -0.86010  -0.85675  -0.84914  -0.84731  -0.84186
 Alpha  occ. eigenvalues --   -0.83929  -0.83434  -0.82821  -0.82584  -0.81580
 Alpha  occ. eigenvalues --   -0.80738  -0.80054  -0.79145  -0.78893  -0.78031
 Alpha  occ. eigenvalues --   -0.77681  -0.77269  -0.76043  -0.75636  -0.74402
 Alpha  occ. eigenvalues --   -0.73218  -0.73197  -0.72439  -0.71690  -0.71324
 Alpha  occ. eigenvalues --   -0.70457  -0.70252  -0.69878  -0.68735  -0.68014
 Alpha  occ. eigenvalues --   -0.67256  -0.66320  -0.64763  -0.64316  -0.64025
 Alpha  occ. eigenvalues --   -0.63250  -0.62634  -0.61579  -0.61478  -0.60894
 Alpha  occ. eigenvalues --   -0.59936  -0.59251  -0.58704  -0.58553  -0.58012
 Alpha  occ. eigenvalues --   -0.57524  -0.56834  -0.56733  -0.55685  -0.55092
 Alpha  occ. eigenvalues --   -0.54988  -0.54535  -0.53994  -0.53258  -0.52614
 Alpha  occ. eigenvalues --   -0.52064  -0.51878  -0.51647  -0.51498  -0.51318
 Alpha  occ. eigenvalues --   -0.51036  -0.50549  -0.50435  -0.49794  -0.49669
 Alpha  occ. eigenvalues --   -0.49245  -0.48745  -0.48649  -0.48452  -0.48242
 Alpha  occ. eigenvalues --   -0.47944  -0.47863  -0.47668  -0.47550  -0.47331
 Alpha  occ. eigenvalues --   -0.47190  -0.47127  -0.46960  -0.46403  -0.46360
 Alpha  occ. eigenvalues --   -0.46329  -0.45878  -0.45630  -0.45344  -0.45028
 Alpha  occ. eigenvalues --   -0.44654  -0.44331  -0.44047  -0.43823  -0.43595
 Alpha  occ. eigenvalues --   -0.43447  -0.43339  -0.42998  -0.42807  -0.42635
 Alpha  occ. eigenvalues --   -0.42257  -0.42050  -0.41956  -0.41736  -0.41411
 Alpha  occ. eigenvalues --   -0.41109  -0.41074  -0.40864  -0.40789  -0.40567
 Alpha  occ. eigenvalues --   -0.40440  -0.40252  -0.40132  -0.40062  -0.39676
 Alpha  occ. eigenvalues --   -0.39583  -0.39171  -0.39078  -0.38930  -0.38799
 Alpha  occ. eigenvalues --   -0.38709  -0.38521  -0.38248  -0.38181  -0.38146
 Alpha  occ. eigenvalues --   -0.37788  -0.37583  -0.37537  -0.37407  -0.36995
 Alpha  occ. eigenvalues --   -0.36824  -0.36720  -0.36459  -0.36040  -0.35955
 Alpha  occ. eigenvalues --   -0.35819  -0.35805  -0.35598  -0.35514  -0.34808
 Alpha  occ. eigenvalues --   -0.34788  -0.34229  -0.33959  -0.33538  -0.33235
 Alpha  occ. eigenvalues --   -0.32757  -0.32469  -0.32418  -0.32206  -0.32109
 Alpha  occ. eigenvalues --   -0.31587  -0.31554  -0.31320  -0.30554  -0.30159
 Alpha  occ. eigenvalues --   -0.30019  -0.29578  -0.29345  -0.28151  -0.27446
 Alpha  occ. eigenvalues --   -0.26107  -0.25596  -0.24435  -0.23961  -0.21373
 Alpha  occ. eigenvalues --   -0.20809
 Alpha virt. eigenvalues --   -0.06529  -0.04639  -0.00002   0.01169   0.02765
 Alpha virt. eigenvalues --    0.03150   0.04473   0.04572   0.05459   0.05997
 Alpha virt. eigenvalues --    0.06718   0.08091   0.09215   0.09670   0.09716

 Mulliken charges:
               1
     1  Mg   0.809760
     2  C    0.056094
     3  C   -0.208179
     4  C   -0.159532
     5  C   -0.173260
     6  N   -0.628676
     7  C    0.318417
     8  C   -0.126759
     9  C   -0.171334
    10  C    0.383400
    11  C   -0.289644
    12  C   -0.153294
    13  C   -0.276334
    14  C    0.617847
    15  O   -0.521483
    16  O   -0.442800
    17  N   -0.728196
    18  C    0.329836
    19  C   -0.020142
    20  C    0.027833
    21  C    0.347620
    22  C   -0.356458
    23  C   -0.077547
    24  C   -0.248952
    25  N   -0.721307
    26  C    0.321771
    27  C    0.015056
    28  C    0.049068
    29  C    0.267198
    30  C   -0.396606
    31  C   -0.258208
    32  C   -0.270747
    33  N   -0.758923
    34  C    0.293286
    35  C    0.046227
    36  C    0.028421
    37  C    0.362219
    38  C   -0.380587
    39  C    0.317002
    40  O   -0.456592
    41  C   -0.353285
    42  C    0.629505
    43  O   -0.494074
    44  O   -0.415361
    45  C   -0.077638
    46  C    0.011627
    47  C   -0.135774
    48  C    0.111310
    49  C   -0.362025
    50  C   -0.243722
    51  C   -0.161014
    52  C   -0.178700
    53  C   -0.052705
    54  C   -0.298296
    55  C   -0.165785
    56  C   -0.195677
    57  C   -0.162557
    58  C   -0.069184
    59  C   -0.276426
    60  C   -0.175867
    61  C   -0.178479
    62  C   -0.159055
    63  C   -0.046261
    64  C   -0.307024
    65  C   -0.304524
    66  H    0.062916
    67  H    0.067647
    68  H    0.086848
    69  H    0.121569
    70  H    0.092064
    71  H    0.097561
    72  H    0.082596
    73  H    0.144393
    74  H    0.097327
    75  H    0.115753
    76  H    0.112977
    77  H    0.133628
    78  H    0.122207
    79  H    0.132905
    80  H    0.121581
    81  H    0.083580
    82  H    0.106349
    83  H    0.087976
    84  H    0.108209
    85  H    0.111639
    86  H    0.099727
    87  H    0.111979
    88  H    0.099415
    89  H    0.081511
    90  H    0.087544
    91  H    0.109342
    92  H    0.113101
    93  H    0.157452
    94  H    0.145319
    95  H    0.153350
    96  H    0.123536
    97  H    0.115519
    98  H    0.128887
    99  H    0.135393
   100  H    0.114709
   101  H    0.098634
   102  H    0.120585
   103  H    0.106718
   104  H    0.110723
   105  H    0.058494
   106  H    0.104518
   107  H    0.116935
   108  H    0.118499
   109  H    0.102302
   110  H    0.104229
   111  H    0.090650
   112  H    0.096321
   113  H    0.074760
   114  H    0.106568
   115  H    0.067043
   116  H    0.098079
   117  H    0.105017
   118  H    0.081316
   119  H    0.086349
   120  H    0.083431
   121  H    0.071478
   122  H    0.054848
   123  H    0.102062
   124  H    0.116214
   125  H    0.088082
   126  H    0.087428
   127  H    0.059841
   128  H    0.076575
   129  H    0.083001
   130  H    0.068618
   131  H    0.089742
   132  H    0.104856
   133  H    0.114354
   134  H    0.100489
   135  H    0.112770
   136  H    0.106348
   137  H    0.061108
 Sum of Mulliken charges =  -0.00000

 Dipole moment (field-independent basis, Debye):
    X=              2.8098    Y=              2.8642    Z=             -0.0022  Tot=              4.0123
 Quadrupole moment (field-independent basis, Debye-Ang):
   XX=           -340.9400   YY=           -390.2333   ZZ=           -400.8460
   XY=             -0.8183   XZ=              3.4547   YZ=             -2.1414

 Normal termination of Gaussian 16 at Tue Oct 22 04:08:05 2019.
