 Gaussian 16, Revision A.03,
 Gaussian 16:  ES64L-G16RevA.03 25-Dec-2016

 ----------------------------------------------------------------------
 # td=(NStates=10) iop(3/107=0140000000,3/108=0140000000) CAM-B3LYP/6-3
 1G(d,p)
 ----------------------------------------------------------------------

 --
 TD
 --
 Symbolic Z-matrix:
 Charge =  0 Multiplicity = 1

                         Standard orientation:
 ---------------------------------------------------------------------
 Center     Atomic      Atomic             Coordinates (Angstroms)
 Number     Number       Type             X           Y           Z
 ---------------------------------------------------------------------
      1         12           0       -7.204413    0.615900    0.058180
      2          6           0       -4.812356   -1.900933    0.453098
      3          6           0       -4.830612    2.743372    1.299597
      4          6           0       -9.512372    3.209658   -0.334627
      5          6           0       -9.498765   -1.785139   -0.937751
      6          7           0       -5.083555    0.453015    0.693136
      7          6           0       -4.416005   -0.693299    0.806552
      8          6           0       -2.912634   -0.385482    1.228839
      9          6           0       -3.001266    1.007910    1.788712
     10          6           0       -4.399612    1.530282    1.241010
     11          6           0       -2.923321    1.170968    3.304068
     12          6           0       -1.914212   -0.670253    0.030825
     13          6           0       -0.481810   -0.476329    0.539409
     14          6           0        0.512269   -0.727889   -0.612887
     15          8           0        0.248358   -1.010680   -1.700419
     16          8           0        1.796136   -0.475734   -0.074880
     17          7           0       -7.130417    2.637570    0.396365
     18          6           0       -6.028796    3.320466    0.884798
     19          6           0       -6.517339    4.778258    0.936805
     20          6           0       -7.849812    4.773533    0.492785
     21          6           0       -8.131494    3.449214    0.127629
     22          6           0       -5.584713    5.869740    1.376162
     23          6           0       -8.620946    5.963526    0.427657
     24          6           0       -8.256593    7.232060   -0.044167
     25          7           0       -9.123547    0.736524   -0.452312
     26          6           0       -9.895556    1.826933   -0.686183
     27          6           0      -11.325355    1.492384   -1.236180
     28          6           0      -11.268377    0.095849   -1.385821
     29          6           0       -9.936169   -0.409840   -0.907682
     30          6           0      -12.420170    2.376504   -1.561227
     31          6           0      -12.310399   -0.794622   -1.800596
     32          6           0      -12.272774   -1.122131   -3.355943
     33          7           0       -7.239408   -1.397488   -0.225397
     34          6           0       -8.234610   -2.294465   -0.612573
     35          6           0       -7.817386   -3.621456   -0.641418
     36          6           0       -6.513712   -3.507849   -0.120845
     37          6           0       -6.169515   -2.136869    0.018122
     38          6           0       -8.679512   -4.845747   -0.922523
     39          6           0       -5.345622   -4.324267    0.182490
     40          8           0       -5.105461   -5.572869    0.212187
     41          6           0       -4.184703   -3.346730    0.544504
     42          6           0       -3.615849   -3.645953    1.871019
     43          8           0       -3.723880   -3.073635    2.993396
     44          8           0       -2.733977   -4.652552    1.744941
     45          6           0       -2.113022   -5.065763    2.945533
     46          6           0        2.904459   -0.694022   -1.175151
     47          6           0        4.123920   -0.468666   -0.427968
     48          6           0        5.200004    0.347188   -0.867090
     49          6           0        5.218056    1.089706   -2.054021
     50          6           0        6.460934    0.418239   -0.007544
     51          6           0        7.686389   -0.124025   -0.651199
     52          6           0        8.998728   -0.120341    0.154545
     53          6           0       10.175721   -0.409146   -0.756414
     54          6           0       10.134351   -1.924954   -1.286763
     55          6           0       11.483426   -0.198907    0.003381
     56          6           0       12.780750   -0.484188   -0.759886
     57          6           0       14.011844   -0.060539    0.156949
     58          6           0       15.422582   -0.141337   -0.543923
     59          6           0       15.734792   -1.522107   -0.947072
     60          6           0       16.447279    0.445758    0.400350
     61          6           0       17.799632    0.643909   -0.344456
     62          6           0       18.849564    1.159731    0.587693
     63          6           0       20.335800    1.236477    0.105362
     64          6           0       20.256575    2.235910   -1.194352
     65          6           0       21.229848    1.719744    1.194108
     66          1           0       -4.260653    3.482569    1.918294
     67          1           0      -10.368401    3.867393   -0.293032
     68          1           0      -10.371973   -2.593056   -1.072163
     69          1           0       -2.693701   -1.209626    1.915898
     70          1           0       -2.358810    1.699740    1.354057
     71          1           0       -2.044166    0.944289    3.490568
     72          1           0       -3.254229    2.277511    3.607320
     73          1           0       -3.471858    0.254728    3.675450
     74          1           0       -2.214720   -1.519839   -0.435673
     75          1           0       -2.150486    0.167435   -0.836117
     76          1           0       -0.419736    0.529348    1.117995
     77          1           0       -0.109392   -1.017747    1.310423
     78          1           0       -4.995296    6.067763    0.604819
     79          1           0       -6.186418    6.743231    1.574977
     80          1           0       -5.177119    5.599356    2.295573
     81          1           0       -9.619250    5.677347    0.669566
     82          1           0       -9.061478    7.983715   -0.309819
     83          1           0       -7.122295    7.313701   -0.384527
     84          1           0      -12.270777    3.098249   -2.412591
     85          1           0      -13.248141    1.692349   -1.989545
     86          1           0      -12.553228    2.993227   -0.709458
     87          1           0      -12.410703   -1.758205   -1.186386
     88          1           0      -13.304610   -0.347406   -1.557988
     89          1           0      -13.228583   -1.652515   -3.658243
     90          1           0      -12.114946   -0.094179   -3.748596
     91          1           0      -11.438887   -1.790519   -3.480871
     92          1           0       -9.376173   -4.636715   -1.889332
     93          1           0       -7.913521   -5.760480   -1.204665
     94          1           0       -9.331808   -4.935220    0.087588
     95          1           0       -3.339472   -3.355823   -0.196094
     96          1           0       -1.385656   -4.235332    3.377388
     97          1           0       -3.066143   -5.120773    3.723496
     98          1           0       -1.746216   -5.986871    2.754984
     99          1           0        2.635813   -1.843665   -1.338776
    100          1           0        2.608298   -0.077830   -2.053580
    101          1           0        4.269639   -0.881400    0.483875
    102          1           0        4.245847    1.091477   -2.484872
    103          1           0        5.579740    1.940391   -1.761869
    104          1           0        5.928821    0.576651   -2.780764
    105          1           0        6.545764    1.555120    0.189020
    106          1           0        6.101225   -0.101509    1.000599
    107          1           0        7.361004   -1.143654   -0.954458
    108          1           0        7.799719    0.236071   -1.686761
    109          1           0        8.952878    0.898981    0.682474
    110          1           0        8.809894   -0.885935    1.039298
    111          1           0       10.191277    0.375194   -1.582039
    112          1           0        9.135525   -2.108659   -1.969188
    113          1           0       11.112316   -1.895628   -1.967003
    114          1           0       10.121468   -2.637891   -0.512571
    115          1           0       11.406460    0.788269    0.491771
    116          1           0       11.588313   -1.122814    0.673554
    117          1           0       12.927620   -1.472708   -1.123414
    118          1           0       12.775606    0.271570   -1.576205
    119          1           0       13.805236    1.045215    0.394798
    120          1           0       14.022020   -0.679528    1.107712
    121          1           0       15.288423    0.352531   -1.533749
    122          1           0       15.977301   -2.233313   -0.200219
    123          1           0       14.818322   -1.936154   -1.576694
    124          1           0       16.465663   -1.724952   -1.653239
    125          1           0       16.096132    1.374605    0.594787
    126          1           0       16.489144   -0.258457    1.314843
    127          1           0       17.939241   -0.421365   -0.747913
    128          1           0       17.597879    1.270340   -1.244889
    129          1           0       18.627716    2.164703    1.017490
    130          1           0       18.933157    0.404422    1.547361
    131          1           0       20.425485    0.084464   -0.370078
    132          1           0       19.796120    3.269746   -0.708914
    133          1           0       21.197452    2.603558   -1.806944
    134          1           0       19.616402    1.729311   -1.750056
    135          1           0       21.120946    1.000246    1.953855
    136          1           0       22.319551    1.785398    0.858575
    137          1           0       20.788293    2.710745    1.383924
 ---------------------------------------------------------------------

 SCF Done:  E(RCAM-B3LYP) =  -2933.47799426     A.U. after   16 cycles

 Excitation energies and oscillator strengths:

 Excited State   1:      Singlet-A      2.0148 eV  615.36 nm  f=0.2820  <S**2>=0.000
     240 -> 243       -0.20519
     241 -> 242        0.66932
 This state for optimization and/or second-order correction.
 Total Energy, E(TD-HF/TD-DFT) =  -2933.40395070
 Copying the excited state density for this state as the 1-particle RhoCI density.

 Excited State   2:      Singlet-A      2.2626 eV  547.98 nm  f=0.0699  <S**2>=0.000
     240 -> 242        0.61718
     241 -> 243        0.31946

 Excited State   3:      Singlet-A      2.7595 eV  449.29 nm  f=0.0161  <S**2>=0.000
     239 -> 242        0.68199
     239 -> 243       -0.11995

 Excited State   4:      Singlet-A      3.0745 eV  403.27 nm  f=0.0051  <S**2>=0.000
     236 -> 242        0.58799
     236 -> 243        0.17775
     236 -> 244        0.23967
     237 -> 242       -0.20492

 Excited State   5:      Singlet-A      3.1615 eV  392.16 nm  f=0.3693  <S**2>=0.000
     235 -> 242        0.17887
     237 -> 242       -0.37383
     240 -> 242       -0.21044
     240 -> 243       -0.15688
     241 -> 243        0.48562

 Excited State   6:      Singlet-A      3.2528 eV  381.17 nm  f=0.2091  <S**2>=0.000
     236 -> 242        0.19577
     237 -> 242        0.54432
     240 -> 242       -0.19054
     241 -> 243        0.32181

 Excited State   7:      Singlet-A      3.4643 eV  357.90 nm  f=0.7366  <S**2>=0.000
     240 -> 243        0.63018
     241 -> 242        0.20952
     241 -> 243        0.14708
     241 -> 244        0.10263

 Excited State   8:      Singlet-A      3.4965 eV  354.59 nm  f=0.2288  <S**2>=0.000
     235 -> 242        0.65912
     240 -> 242        0.12605
     241 -> 243       -0.13987

 Excited State   9:      Singlet-A      3.8008 eV  326.21 nm  f=0.0023  <S**2>=0.000
     229 -> 242       -0.21613
     231 -> 242        0.23763
     233 -> 242        0.54990
     234 -> 242        0.16366
     238 -> 242       -0.17128

 Excited State  10:      Singlet-A      3.9408 eV  314.62 nm  f=0.0103  <S**2>=0.000
     234 -> 242        0.22371
     236 -> 243        0.10082
     237 -> 243        0.48662
     239 -> 243        0.31283
     240 -> 244        0.12493
     241 -> 244       -0.23110

 The electronic state is 1-A.
 Alpha  occ. eigenvalues --  -46.80149 -19.21517 -19.19437 -19.17433 -19.16012
 Alpha  occ. eigenvalues --  -19.15099 -14.36873 -14.36567 -14.35650 -14.35137
 Alpha  occ. eigenvalues --  -10.34188 -10.33462 -10.30113 -10.28019 -10.26759
 Alpha  occ. eigenvalues --  -10.26461 -10.26313 -10.26149 -10.25794 -10.25632
 Alpha  occ. eigenvalues --  -10.25350 -10.24913 -10.24643 -10.24500 -10.24267
 Alpha  occ. eigenvalues --  -10.24249 -10.24202 -10.23923 -10.23506 -10.23234
 Alpha  occ. eigenvalues --  -10.23109 -10.23061 -10.22935 -10.22903 -10.22846
 Alpha  occ. eigenvalues --  -10.22768 -10.22712 -10.22707 -10.22635 -10.22622
 Alpha  occ. eigenvalues --  -10.22472 -10.22468 -10.22437 -10.22310 -10.22222
 Alpha  occ. eigenvalues --  -10.22019 -10.21971 -10.21793 -10.21781 -10.21534
 Alpha  occ. eigenvalues --  -10.21506 -10.21443 -10.21289 -10.21275 -10.21108
 Alpha  occ. eigenvalues --  -10.21094 -10.20958 -10.20907 -10.20824 -10.20599
 Alpha  occ. eigenvalues --  -10.20314 -10.20202 -10.19944 -10.19906 -10.19531
 Alpha  occ. eigenvalues --   -3.08739  -1.83683  -1.83214  -1.83142  -1.12775
 Alpha  occ. eigenvalues --   -1.12384  -1.02660  -1.02308  -1.01585  -0.99574
 Alpha  occ. eigenvalues --   -0.99175  -0.97816  -0.95483  -0.87123  -0.87096
 Alpha  occ. eigenvalues --   -0.85810  -0.84692  -0.84624  -0.84505  -0.84330
 Alpha  occ. eigenvalues --   -0.83728  -0.83061  -0.82341  -0.81798  -0.80850
 Alpha  occ. eigenvalues --   -0.80316  -0.79434  -0.79114  -0.78034  -0.77553
 Alpha  occ. eigenvalues --   -0.77277  -0.76357  -0.75648  -0.75563  -0.73410
 Alpha  occ. eigenvalues --   -0.73198  -0.72467  -0.71544  -0.71146  -0.71029
 Alpha  occ. eigenvalues --   -0.70465  -0.70291  -0.69052  -0.68523  -0.67624
 Alpha  occ. eigenvalues --   -0.66680  -0.65866  -0.65106  -0.64210  -0.63723
 Alpha  occ. eigenvalues --   -0.63244  -0.61753  -0.60925  -0.60484  -0.60296
 Alpha  occ. eigenvalues --   -0.59545  -0.58818  -0.58108  -0.57472  -0.57250
 Alpha  occ. eigenvalues --   -0.56121  -0.55853  -0.55712  -0.55289  -0.54818
 Alpha  occ. eigenvalues --   -0.54357  -0.53883  -0.53499  -0.53117  -0.52513
 Alpha  occ. eigenvalues --   -0.51823  -0.51756  -0.51326  -0.50943  -0.50574
 Alpha  occ. eigenvalues --   -0.50469  -0.50024  -0.49851  -0.49537  -0.49247
 Alpha  occ. eigenvalues --   -0.48962  -0.48909  -0.48626  -0.48463  -0.48324
 Alpha  occ. eigenvalues --   -0.48069  -0.47536  -0.47343  -0.47084  -0.46971
 Alpha  occ. eigenvalues --   -0.46794  -0.46613  -0.46546  -0.46431  -0.46059
 Alpha  occ. eigenvalues --   -0.45970  -0.45822  -0.45496  -0.45131  -0.44967
 Alpha  occ. eigenvalues --   -0.44787  -0.44597  -0.44244  -0.44022  -0.43819
 Alpha  occ. eigenvalues --   -0.43441  -0.43158  -0.42872  -0.42729  -0.42556
 Alpha  occ. eigenvalues --   -0.42517  -0.42392  -0.42249  -0.41809  -0.41655
 Alpha  occ. eigenvalues --   -0.41424  -0.41380  -0.40983  -0.40757  -0.40665
 Alpha  occ. eigenvalues --   -0.40490  -0.40346  -0.40082  -0.39898  -0.39687
 Alpha  occ. eigenvalues --   -0.39378  -0.39105  -0.38905  -0.38803  -0.38696
 Alpha  occ. eigenvalues --   -0.38642  -0.38434  -0.38240  -0.38155  -0.37981
 Alpha  occ. eigenvalues --   -0.37895  -0.37752  -0.37270  -0.37095  -0.36826
 Alpha  occ. eigenvalues --   -0.36584  -0.36502  -0.36431  -0.36225  -0.36059
 Alpha  occ. eigenvalues --   -0.35800  -0.35736  -0.35166  -0.35035  -0.34655
 Alpha  occ. eigenvalues --   -0.34455  -0.34044  -0.33828  -0.33730  -0.33318
 Alpha  occ. eigenvalues --   -0.33223  -0.32537  -0.32268  -0.32221  -0.31811
 Alpha  occ. eigenvalues --   -0.31745  -0.31696  -0.31472  -0.30745  -0.30168
 Alpha  occ. eigenvalues --   -0.29895  -0.29424  -0.29333  -0.28529  -0.26977
 Alpha  occ. eigenvalues --   -0.26182  -0.25835  -0.25428  -0.24672  -0.21745
 Alpha  occ. eigenvalues --   -0.20343
 Alpha virt. eigenvalues --   -0.07709  -0.03817   0.00136   0.01543   0.02640
 Alpha virt. eigenvalues --    0.03298   0.04592   0.04871   0.05477   0.05652
 Alpha virt. eigenvalues --    0.06597   0.08379   0.09178   0.09278   0.09753

 Mulliken charges:
               1
     1  Mg   0.817002
     2  C    0.060391
     3  C   -0.212685
     4  C   -0.165032
     5  C   -0.196324
     6  N   -0.647641
     7  C    0.317740
     8  C   -0.168872
     9  C   -0.143178
    10  C    0.363876
    11  C   -0.284166
    12  C   -0.154723
    13  C   -0.263974
    14  C    0.608174
    15  O   -0.424701
    16  O   -0.529354
    17  N   -0.721106
    18  C    0.296696
    19  C   -0.039156
    20  C    0.019696
    21  C    0.355082
    22  C   -0.366755
    23  C   -0.081745
    24  C   -0.248176
    25  N   -0.672700
    26  C    0.273940
    27  C    0.034253
    28  C    0.075481
    29  C    0.251427
    30  C   -0.387246
    31  C   -0.296822
    32  C   -0.299498
    33  N   -0.743401
    34  C    0.287988
    35  C    0.055021
    36  C   -0.007313
    37  C    0.323978
    38  C   -0.360800
    39  C    0.345376
    40  O   -0.502556
    41  C   -0.300983
    42  C    0.627683
    43  O   -0.510353
    44  O   -0.418227
    45  C   -0.068075
    46  C   -0.017035
    47  C   -0.082375
    48  C    0.088560
    49  C   -0.331722
    50  C   -0.222754
    51  C   -0.172258
    52  C   -0.153561
    53  C   -0.058807
    54  C   -0.306245
    55  C   -0.153474
    56  C   -0.201192
    57  C   -0.167518
    58  C   -0.063461
    59  C   -0.316850
    60  C   -0.149774
    61  C   -0.186746
    62  C   -0.145761
    63  C   -0.069154
    64  C   -0.290073
    65  C   -0.282849
    66  H    0.077140
    67  H    0.096237
    68  H    0.088781
    69  H    0.115281
    70  H    0.106235
    71  H    0.120806
    72  H    0.092743
    73  H    0.125735
    74  H    0.117673
    75  H    0.083496
    76  H    0.123843
    77  H    0.140129
    78  H    0.140060
    79  H    0.117736
    80  H    0.122553
    81  H    0.083899
    82  H    0.113364
    83  H    0.098318
    84  H    0.125859
    85  H    0.112948
    86  H    0.130155
    87  H    0.097627
    88  H    0.100319
    89  H    0.102809
    90  H    0.111884
    91  H    0.121751
    92  H    0.106514
    93  H    0.138004
    94  H    0.130390
    95  H    0.169466
    96  H    0.109689
    97  H    0.113679
    98  H    0.130787
    99  H    0.120138
   100  H    0.135363
   101  H    0.083005
   102  H    0.105444
   103  H    0.123878
   104  H    0.116590
   105  H    0.081332
   106  H    0.083418
   107  H    0.096683
   108  H    0.091255
   109  H    0.082100
   110  H    0.082390
   111  H    0.079207
   112  H    0.081083
   113  H    0.097814
   114  H    0.122165
   115  H    0.090030
   116  H    0.081126
   117  H    0.110380
   118  H    0.081096
   119  H    0.078212
   120  H    0.081948
   121  H    0.079391
   122  H    0.103018
   123  H    0.070942
   124  H    0.113275
   125  H    0.099949
   126  H    0.083973
   127  H    0.087754
   128  H    0.099111
   129  H    0.085051
   130  H    0.059708
   131  H    0.051641
   132  H    0.060511
   133  H    0.085536
   134  H    0.121940
   135  H    0.110345
   136  H    0.099942
   137  H    0.102152
 Sum of Mulliken charges =  -0.00000

 Dipole moment (field-independent basis, Debye):
    X=              0.8284    Y=              4.9360    Z=             -0.8264  Tot=              5.0727
 Quadrupole moment (field-independent basis, Debye-Ang):
   XX=           -330.7130   YY=           -400.3332   ZZ=           -401.4279
   XY=            -27.1720   XZ=             11.9441   YZ=             -0.3677

 Normal termination of Gaussian 16 at Tue Oct 22 07:08:17 2019.
