 Gaussian 16, Revision A.03,
 Gaussian 16:  ES64L-G16RevA.03 25-Dec-2016

 ----------------------------------------------------------------------
 # td=(NStates=10) iop(3/107=0140000000,3/108=0140000000) CAM-B3LYP/6-3
 1G(d,p)
 ----------------------------------------------------------------------

 --
 TD
 --
 Symbolic Z-matrix:
 Charge =  0 Multiplicity = 1

                         Standard orientation:
 ---------------------------------------------------------------------
 Center     Atomic      Atomic             Coordinates (Angstroms)
 Number     Number       Type             X           Y           Z
 ---------------------------------------------------------------------
      1         12           0       -7.072886    0.522566    0.120129
      2          6           0       -4.716413   -1.935393    0.433089
      3          6           0       -4.819134    2.730188    1.286777
      4          6           0       -9.443339    3.147270   -0.336481
      5          6           0       -9.394201   -1.662253   -0.878176
      6          7           0       -5.094782    0.439574    0.794769
      7          6           0       -4.294515   -0.722897    0.857518
      8          6           0       -2.912022   -0.363609    1.340584
      9          6           0       -3.099325    1.109557    1.806508
     10          6           0       -4.414821    1.426590    1.315926
     11          6           0       -2.962122    1.114947    3.368678
     12          6           0       -1.861623   -0.482744    0.181591
     13          6           0       -0.433106   -0.280272    0.613339
     14          6           0        0.465863   -0.632342   -0.552216
     15          8           0        0.088298   -0.996563   -1.622847
     16          8           0        1.748559   -0.407435   -0.186950
     17          7           0       -7.133483    2.524862    0.341792
     18          6           0       -6.028253    3.253858    0.862226
     19          6           0       -6.536739    4.804425    0.940132
     20          6           0       -7.713434    4.851655    0.494342
     21          6           0       -8.149850    3.489012    0.102561
     22          6           0       -5.657463    5.772600    1.600038
     23          6           0       -8.585751    5.903188    0.379960
     24          6           0       -8.183320    7.104431   -0.019810
     25          7           0       -9.074656    0.686693   -0.632632
     26          6           0       -9.857829    1.791424   -0.729770
     27          6           0      -11.133319    1.472598   -1.126802
     28          6           0      -11.241775    0.159472   -1.307618
     29          6           0       -9.854110   -0.412908   -0.993672
     30          6           0      -12.285589    2.383643   -1.476392
     31          6           0      -12.337460   -0.695641   -1.822909
     32          6           0      -12.386958   -0.827634   -3.387912
     33          7           0       -7.139788   -1.409243   -0.128159
     34          6           0       -8.165642   -2.205315   -0.563946
     35          6           0       -7.842431   -3.694574   -0.512824
     36          6           0       -6.511723   -3.586398   -0.022918
     37          6           0       -6.164297   -2.242450    0.003641
     38          6           0       -8.622931   -4.872624   -0.820781
     39          6           0       -5.292387   -4.372709    0.179510
     40          8           0       -5.081188   -5.612492    0.332550
     41          6           0       -4.195476   -3.356818    0.474424
     42          6           0       -3.375807   -3.678387    1.737429
     43          8           0       -3.567681   -3.259621    2.801270
     44          8           0       -2.461801   -4.795315    1.627505
     45          6           0       -1.936349   -5.272013    2.797261
     46          6           0        2.728313   -0.536338   -1.178495
     47          6           0        4.099259   -0.435113   -0.556835
     48          6           0        5.078176    0.538219   -0.844897
     49          6           0        5.006891    1.527938   -2.008547
     50          6           0        6.320960    0.467233   -0.074585
     51          6           0        7.439588   -0.050230   -0.898323
     52          6           0        8.860188   -0.161171   -0.215103
     53          6           0       10.026924   -0.686430   -0.965942
     54          6           0        9.986986   -2.089280   -1.339384
     55          6           0       11.366080   -0.160612   -0.202705
     56          6           0       12.791315   -0.540848   -0.811596
     57          6           0       13.868286   -0.179554    0.176105
     58          6           0       15.287227   -0.238656   -0.512423
     59          6           0       15.670588   -1.634579   -0.999229
     60          6           0       16.261243    0.465198    0.313908
     61          6           0       17.742002    0.548383   -0.154983
     62          6           0       18.812989    1.263250    0.745050
     63          6           0       20.206685    1.367741    0.180858
     64          6           0       20.320138    2.126736   -1.024658
     65          6           0       21.145571    1.899920    1.313226
     66          1           0       -4.009594    3.538797    1.491607
     67          1           0       -9.971538    3.901979   -0.511164
     68          1           0      -10.219310   -2.322951   -1.250319
     69          1           0       -2.692285   -0.862234    2.179463
     70          1           0       -2.199631    1.619004    1.405221
     71          1           0       -1.930688    0.884098    3.658663
     72          1           0       -3.388480    1.985573    3.865348
     73          1           0       -3.361718    0.141053    3.799191
     74          1           0       -1.988753   -1.349037   -0.248963
     75          1           0       -2.077156    0.098174   -0.646245
     76          1           0       -0.230900    0.732122    0.911632
     77          1           0       -0.142094   -0.729967    1.536287
     78          1           0       -4.548746    6.082725    0.886456
     79          1           0       -6.209400    6.734354    1.507843
     80          1           0       -5.385693    5.433366    2.695121
     81          1           0       -9.553150    5.896246    0.900792
     82          1           0       -8.889358    7.867744   -0.055134
     83          1           0       -7.253121    7.506168   -0.268018
     84          1           0      -12.046305    3.061869   -2.385553
     85          1           0      -13.268372    1.939385   -1.839289
     86          1           0      -12.606935    3.009891   -0.623363
     87          1           0      -12.277190   -1.946071   -1.467125
     88          1           0      -13.270099   -0.422828   -1.400774
     89          1           0      -13.198487   -1.342530   -3.657825
     90          1           0      -12.242039    0.142891   -3.898970
     91          1           0      -11.351312   -1.112335   -3.649703
     92          1           0       -9.132309   -4.906441   -1.749066
     93          1           0       -7.913290   -5.696795   -0.820431
     94          1           0       -9.325354   -5.391105    0.037423
     95          1           0       -3.469827   -3.594112   -0.423165
     96          1           0       -1.650714   -4.439566    3.433670
     97          1           0       -2.838986   -6.160466    3.257319
     98          1           0       -1.019535   -5.901609    2.284234
     99          1           0        2.536345   -1.470954   -1.486677
    100          1           0        2.704506    0.210575   -2.106169
    101          1           0        4.214300   -0.996637    0.282338
    102          1           0        4.069772    1.443261   -2.441594
    103          1           0        5.322438    2.549509   -1.647497
    104          1           0        5.749968    1.244671   -2.714379
    105          1           0        6.481546    1.378176    0.188252
    106          1           0        6.410110   -0.060137    0.940944
    107          1           0        7.389720   -0.965697   -1.266539
    108          1           0        7.620000    0.602108   -1.874496
    109          1           0        9.064244    0.868572    0.092909
    110          1           0        8.628283   -0.811158    0.595369
    111          1           0        9.951086   -0.011618   -1.913387
    112          1           0        9.205002   -2.187358   -2.100567
    113          1           0       10.748063   -2.672632   -1.713463
    114          1           0        9.529707   -2.925774   -0.480072
    115          1           0       11.196702    0.887587    0.006261
    116          1           0       11.253446   -0.671706    0.686892
    117          1           0       12.837040   -1.777038   -0.923702
    118          1           0       13.010176   -0.014543   -1.726187
    119          1           0       13.645145    0.722331    0.661860
    120          1           0       13.956445   -0.847211    1.085812
    121          1           0       15.189637    0.450960   -1.386068
    122          1           0       15.895090   -2.232526   -0.190677
    123          1           0       14.964992   -2.107393   -1.814807
    124          1           0       16.682081   -1.590305   -1.585892
    125          1           0       15.874005    1.354842    0.457077
    126          1           0       16.376966   -0.150686    1.137139
    127          1           0       18.146341   -0.453949   -0.415596
    128          1           0       17.645372    1.208679   -1.274413
    129          1           0       18.336525    2.383209    0.847066
    130          1           0       18.923290    0.734089    1.697296
    131          1           0       20.493315    0.272349   -0.090202
    132          1           0       19.759863    3.207068   -0.966494
    133          1           0       21.151138    2.514278   -1.354559
    134          1           0       19.790914    1.729985   -1.849338
    135          1           0       21.130292    1.416602    2.401154
    136          1           0       22.360148    1.779152    1.014489
    137          1           0       21.127894    2.941238    1.600099
 ---------------------------------------------------------------------

 SCF Done:  E(RCAM-B3LYP) =  -2933.39120441     A.U. after   15 cycles

 Excitation energies and oscillator strengths:

 Excited State   1:      Singlet-A      2.2485 eV  551.41 nm  f=0.2388  <S**2>=0.000
     240 -> 243        0.21878
     241 -> 242        0.65980
 This state for optimization and/or second-order correction.
 Total Energy, E(TD-HF/TD-DFT) =  -2933.30857349
 Copying the excited state density for this state as the 1-particle RhoCI density.

 Excited State   2:      Singlet-A      2.5365 eV  488.80 nm  f=0.0249  <S**2>=0.000
     240 -> 242        0.57077
     241 -> 243       -0.39417

 Excited State   3:      Singlet-A      3.2550 eV  380.91 nm  f=0.6132  <S**2>=0.000
     237 -> 242        0.16839
     237 -> 244       -0.10630
     240 -> 242        0.36272
     240 -> 243       -0.12703
     241 -> 243        0.53697

 Excited State   4:      Singlet-A      3.4058 eV  364.03 nm  f=0.0964  <S**2>=0.000
     237 -> 242        0.53599
     237 -> 243       -0.10637
     237 -> 244       -0.30323
     237 -> 245       -0.10822
     238 -> 242       -0.15136
     240 -> 242       -0.12624
     241 -> 243       -0.17007

 Excited State   5:      Singlet-A      3.4854 eV  355.72 nm  f=0.3971  <S**2>=0.000
     239 -> 242        0.38602
     239 -> 243       -0.10936
     240 -> 243        0.50330
     241 -> 242       -0.18902
     241 -> 244        0.17659

 Excited State   6:      Singlet-A      3.5995 eV  344.45 nm  f=0.2848  <S**2>=0.000
     239 -> 242        0.56602
     240 -> 243       -0.32358
     241 -> 242        0.10882
     241 -> 244       -0.19195

 Excited State   7:      Singlet-A      3.7976 eV  326.48 nm  f=0.0132  <S**2>=0.000
     234 -> 242       -0.10432
     235 -> 242       -0.33759
     236 -> 242        0.48811
     239 -> 243        0.14278
     241 -> 244        0.27092

 Excited State   8:      Singlet-A      3.8510 eV  321.95 nm  f=0.0735  <S**2>=0.000
     235 -> 242        0.31302
     240 -> 243       -0.22913
     241 -> 244        0.53778

 Excited State   9:      Singlet-A      3.9508 eV  313.82 nm  f=0.1056  <S**2>=0.000
     235 -> 242        0.44015
     236 -> 242        0.45762
     239 -> 243       -0.15706
     241 -> 244       -0.17516

 Excited State  10:      Singlet-A      4.1595 eV  298.07 nm  f=0.1472  <S**2>=0.000
     239 -> 243       -0.14950
     240 -> 244        0.54888
     241 -> 244        0.12385
     241 -> 245       -0.35365

 The electronic state is 1-A.
 Alpha  occ. eigenvalues --  -46.79870 -19.21799 -19.18959 -19.17346 -19.17321
 Alpha  occ. eigenvalues --  -19.14954 -14.37563 -14.36001 -14.35697 -14.34729
 Alpha  occ. eigenvalues --  -10.34524 -10.34051 -10.30003 -10.27608 -10.27001
 Alpha  occ. eigenvalues --  -10.26657 -10.26222 -10.25758 -10.25693 -10.25057
 Alpha  occ. eigenvalues --  -10.24911 -10.24754 -10.24637 -10.24407 -10.24321
 Alpha  occ. eigenvalues --  -10.23741 -10.23477 -10.23436 -10.23245 -10.23056
 Alpha  occ. eigenvalues --  -10.22946 -10.22746 -10.22677 -10.22667 -10.22495
 Alpha  occ. eigenvalues --  -10.22479 -10.22388 -10.22268 -10.22258 -10.22194
 Alpha  occ. eigenvalues --  -10.22153 -10.21997 -10.21959 -10.21940 -10.21724
 Alpha  occ. eigenvalues --  -10.21713 -10.21633 -10.21558 -10.21435 -10.21136
 Alpha  occ. eigenvalues --  -10.21105 -10.21026 -10.20927 -10.20918 -10.20890
 Alpha  occ. eigenvalues --  -10.20805 -10.20603 -10.20572 -10.20513 -10.20413
 Alpha  occ. eigenvalues --  -10.20340 -10.20251 -10.20189 -10.18910 -10.18577
 Alpha  occ. eigenvalues --   -3.08598  -1.83529  -1.83073  -1.83018  -1.14123
 Alpha  occ. eigenvalues --   -1.13149  -1.06183  -1.04575  -1.02556  -1.00824
 Alpha  occ. eigenvalues --   -0.99992  -0.97607  -0.95903  -0.87299  -0.86920
 Alpha  occ. eigenvalues --   -0.86865  -0.85939  -0.85759  -0.84647  -0.84170
 Alpha  occ. eigenvalues --   -0.83699  -0.83571  -0.82802  -0.82145  -0.81908
 Alpha  occ. eigenvalues --   -0.80276  -0.79859  -0.78958  -0.78464  -0.78102
 Alpha  occ. eigenvalues --   -0.76853  -0.76180  -0.75280  -0.74936  -0.73857
 Alpha  occ. eigenvalues --   -0.73359  -0.72718  -0.71882  -0.71843  -0.71013
 Alpha  occ. eigenvalues --   -0.70746  -0.70315  -0.69903  -0.69560  -0.68009
 Alpha  occ. eigenvalues --   -0.67456  -0.66691  -0.65494  -0.65183  -0.64640
 Alpha  occ. eigenvalues --   -0.63461  -0.63200  -0.62064  -0.60834  -0.60569
 Alpha  occ. eigenvalues --   -0.59877  -0.59341  -0.58838  -0.58248  -0.57592
 Alpha  occ. eigenvalues --   -0.57280  -0.56690  -0.56380  -0.56191  -0.55562
 Alpha  occ. eigenvalues --   -0.55218  -0.54556  -0.54413  -0.53927  -0.53587
 Alpha  occ. eigenvalues --   -0.53055  -0.52062  -0.51967  -0.51792  -0.51437
 Alpha  occ. eigenvalues --   -0.51060  -0.50441  -0.50285  -0.49579  -0.49422
 Alpha  occ. eigenvalues --   -0.49301  -0.48695  -0.48643  -0.48440  -0.48315
 Alpha  occ. eigenvalues --   -0.47906  -0.47829  -0.47589  -0.47172  -0.47036
 Alpha  occ. eigenvalues --   -0.46906  -0.46478  -0.46317  -0.46171  -0.46081
 Alpha  occ. eigenvalues --   -0.45717  -0.45393  -0.45308  -0.45166  -0.44766
 Alpha  occ. eigenvalues --   -0.44452  -0.44415  -0.44296  -0.44105  -0.43967
 Alpha  occ. eigenvalues --   -0.43853  -0.43353  -0.43248  -0.43004  -0.42947
 Alpha  occ. eigenvalues --   -0.42702  -0.42381  -0.42303  -0.42227  -0.41643
 Alpha  occ. eigenvalues --   -0.41579  -0.41525  -0.41166  -0.40736  -0.40588
 Alpha  occ. eigenvalues --   -0.40560  -0.40389  -0.40297  -0.39921  -0.39822
 Alpha  occ. eigenvalues --   -0.39661  -0.39376  -0.39183  -0.38993  -0.38729
 Alpha  occ. eigenvalues --   -0.38450  -0.38280  -0.38206  -0.38102  -0.38008
 Alpha  occ. eigenvalues --   -0.37885  -0.37705  -0.37433  -0.37344  -0.37285
 Alpha  occ. eigenvalues --   -0.36976  -0.36774  -0.36751  -0.36180  -0.36077
 Alpha  occ. eigenvalues --   -0.35729  -0.35451  -0.34960  -0.34765  -0.34750
 Alpha  occ. eigenvalues --   -0.34394  -0.34265  -0.33860  -0.33742  -0.33508
 Alpha  occ. eigenvalues --   -0.33255  -0.33098  -0.32818  -0.32645  -0.32482
 Alpha  occ. eigenvalues --   -0.32113  -0.31275  -0.31142  -0.30399  -0.30147
 Alpha  occ. eigenvalues --   -0.29940  -0.29744  -0.29195  -0.28077  -0.27219
 Alpha  occ. eigenvalues --   -0.26918  -0.26255  -0.26239  -0.25937  -0.21992
 Alpha  occ. eigenvalues --   -0.20151
 Alpha virt. eigenvalues --   -0.06214  -0.03431  -0.00134   0.01539   0.03279
 Alpha virt. eigenvalues --    0.03685   0.04119   0.04397   0.05005   0.05343
 Alpha virt. eigenvalues --    0.06052   0.08266   0.08726   0.09111   0.09886

 Mulliken charges:
               1
     1  Mg   0.815469
     2  C    0.068930
     3  C   -0.241477
     4  C   -0.123243
     5  C   -0.185044
     6  N   -0.638086
     7  C    0.268476
     8  C   -0.151004
     9  C   -0.164564
    10  C    0.437754
    11  C   -0.334878
    12  C   -0.163087
    13  C   -0.286441
    14  C    0.617193
    15  O   -0.457085
    16  O   -0.468048
    17  N   -0.690983
    18  C    0.301101
    19  C    0.033595
    20  C    0.125172
    21  C    0.264296
    22  C   -0.368777
    23  C   -0.140840
    24  C   -0.220251
    25  N   -0.677052
    26  C    0.299168
    27  C    0.055048
    28  C    0.057446
    29  C    0.263018
    30  C   -0.388563
    31  C   -0.248171
    32  C   -0.301810
    33  N   -0.686428
    34  C    0.237417
    35  C    0.084578
    36  C   -0.003694
    37  C    0.259634
    38  C   -0.411800
    39  C    0.370996
    40  O   -0.497768
    41  C   -0.310993
    42  C    0.598467
    43  O   -0.413180
    44  O   -0.458496
    45  C   -0.048445
    46  C    0.031467
    47  C   -0.123896
    48  C    0.085552
    49  C   -0.357284
    50  C   -0.193875
    51  C   -0.178349
    52  C   -0.181671
    53  C   -0.054116
    54  C   -0.304746
    55  C   -0.185788
    56  C   -0.168043
    57  C   -0.169361
    58  C   -0.062521
    59  C   -0.316363
    60  C   -0.137625
    61  C   -0.179276
    62  C   -0.141984
    63  C   -0.026554
    64  C   -0.290430
    65  C   -0.313289
    66  H    0.082407
    67  H    0.044757
    68  H    0.077333
    69  H    0.115796
    70  H    0.111244
    71  H    0.111264
    72  H    0.116395
    73  H    0.123703
    74  H    0.127157
    75  H    0.119858
    76  H    0.133945
    77  H    0.137013
    78  H    0.071263
    79  H    0.113556
    80  H    0.126336
    81  H    0.116426
    82  H    0.096972
    83  H    0.109262
    84  H    0.111083
    85  H    0.112669
    86  H    0.115027
    87  H    0.059129
    88  H    0.111202
    89  H    0.118846
    90  H    0.104520
    91  H    0.113105
    92  H    0.133075
    93  H    0.154763
    94  H    0.110943
    95  H    0.153934
    96  H    0.122737
    97  H    0.072955
    98  H    0.100852
    99  H    0.121530
   100  H    0.086152
   101  H    0.083095
   102  H    0.116689
   103  H    0.112524
   104  H    0.136528
   105  H    0.106001
   106  H    0.091326
   107  H    0.113218
   108  H    0.058409
   109  H    0.085327
   110  H    0.090371
   111  H    0.069874
   112  H    0.109506
   113  H    0.121892
   114  H    0.050131
   115  H    0.087807
   116  H    0.106267
   117  H    0.075214
   118  H    0.100606
   119  H    0.094248
   120  H    0.079258
   121  H    0.069222
   122  H    0.111825
   123  H    0.097010
   124  H    0.091285
   125  H    0.097739
   126  H    0.088410
   127  H    0.086147
   128  H    0.032760
   129  H    0.066099
   130  H    0.092743
   131  H    0.081202
   132  H    0.056317
   133  H    0.115865
   134  H    0.112903
   135  H    0.085054
   136  H    0.062853
   137  H    0.117669
 Sum of Mulliken charges =  -0.00000

 Dipole moment (field-independent basis, Debye):
    X=              1.1385    Y=              7.3508    Z=              0.0537  Tot=              7.4386
 Quadrupole moment (field-independent basis, Debye-Ang):
   XX=           -340.1497   YY=           -398.5057   ZZ=           -396.5701
   XY=            -32.7314   XZ=             11.0317   YZ=              6.4907

 Normal termination of Gaussian 16 at Wed Oct 23 13:17:13 2019.
