 Gaussian 16, Revision A.03,
 Gaussian 16:  ES64L-G16RevA.03 25-Dec-2016

 ----------------------------------------------------------------------
 # td=(NStates=10) iop(3/107=0140000000,3/108=0140000000) CAM-B3LYP/6-3
 1G(d,p)
 ----------------------------------------------------------------------

 --
 TD
 --
 Symbolic Z-matrix:
 Charge =  0 Multiplicity = 1

                         Standard orientation:
 ---------------------------------------------------------------------
 Center     Atomic      Atomic             Coordinates (Angstroms)
 Number     Number       Type             X           Y           Z
 ---------------------------------------------------------------------
      1         12           0       -7.241064    0.680766    0.064938
      2          6           0       -4.933913   -1.968977    0.483242
      3          6           0       -4.781555    2.869068    1.025055
      4          6           0       -9.346433    3.109822   -0.520349
      5          6           0       -9.571227   -1.748266   -0.911699
      6          7           0       -5.117921    0.475616    0.598205
      7          6           0       -4.455409   -0.675598    0.678319
      8          6           0       -2.876412   -0.414753    1.152595
      9          6           0       -2.942426    1.091214    1.618245
     10          6           0       -4.308810    1.575320    1.135105
     11          6           0       -2.833307    1.359058    3.164056
     12          6           0       -1.953088   -0.679964   -0.011173
     13          6           0       -0.423182   -0.486843    0.507103
     14          6           0        0.530479   -0.794588   -0.628532
     15          8           0        0.228888   -1.161127   -1.769082
     16          8           0        1.715776   -0.645549   -0.144208
     17          7           0       -7.171714    2.616949    0.365855
     18          6           0       -6.133493    3.383572    0.862199
     19          6           0       -6.468174    4.773155    0.839138
     20          6           0       -7.691343    4.786697    0.462943
     21          6           0       -8.161105    3.440941    0.125187
     22          6           0       -5.542710    5.850128    1.314356
     23          6           0       -8.585623    6.008914    0.354750
     24          6           0       -8.307590    7.286834    0.138123
     25          7           0       -9.132317    0.666561   -0.397447
     26          6           0       -9.843902    1.818904   -0.682921
     27          6           0      -11.224086    1.519555   -1.076523
     28          6           0      -11.241290    0.109231   -1.257203
     29          6           0       -9.992409   -0.369285   -0.928642
     30          6           0      -12.266276    2.473913   -1.342676
     31          6           0      -12.450904   -0.705123   -1.621879
     32          6           0      -12.503901   -1.124973   -3.165904
     33          7           0       -7.314017   -1.324503   -0.168390
     34          6           0       -8.295819   -2.218326   -0.629693
     35          6           0       -7.904659   -3.556537   -0.516154
     36          6           0       -6.562196   -3.517912   -0.090158
     37          6           0       -6.309872   -2.158085    0.058989
     38          6           0       -8.829751   -4.741411   -0.723048
     39          6           0       -5.340046   -4.359237    0.171671
     40          8           0       -5.233787   -5.568744    0.154291
     41          6           0       -4.261480   -3.307888    0.544639
     42          6           0       -3.560695   -3.668243    1.811698
     43          8           0       -3.664013   -2.984243    2.887440
     44          8           0       -2.802377   -4.737550    1.642403
     45          6           0       -1.971622   -5.101759    2.733945
     46          6           0        2.857061   -0.763910   -1.109534
     47          6           0        4.171445   -0.570034   -0.374134
     48          6           0        5.169840    0.245461   -0.760599
     49          6           0        5.218151    1.020938   -2.059600
     50          6           0        6.467592    0.166960   -0.022135
     51          6           0        7.692517   -0.301594   -0.708088
     52          6           0        8.979877   -0.228054    0.143108
     53          6           0       10.262184   -0.601717   -0.672732
     54          6           0       10.244140   -2.125122   -1.126566
     55          6           0       11.446897   -0.397623    0.180553
     56          6           0       12.799008   -0.368877   -0.658735
     57          6           0       13.972418   -0.072996    0.270959
     58          6           0       15.408314   -0.206752   -0.405721
     59          6           0       15.749127   -1.730455   -0.719207
     60          6           0       16.422162    0.480663    0.338763
     61          6           0       17.857916    0.711647   -0.359885
     62          6           0       18.792164    1.358913    0.654486
     63          6           0       20.335775    1.522739   -0.091970
     64          6           0       20.164211    2.269140   -1.340721
     65          6           0       21.375830    2.107519    0.929758
     66          1           0       -4.107379    3.770531    1.211134
     67          1           0      -10.183672    3.763268   -0.619576
     68          1           0      -10.174967   -2.480090   -1.171442
     69          1           0       -2.769029   -1.000477    2.102110
     70          1           0       -2.236288    1.775505    0.955065
     71          1           0       -1.875190    1.047426    3.617267
     72          1           0       -3.049419    2.365596    3.581212
     73          1           0       -3.719273    0.638837    3.476638
     74          1           0       -2.052650   -1.579484   -0.495011
     75          1           0       -2.146009    0.186762   -0.951291
     76          1           0       -0.281808    0.423626    0.905994
     77          1           0       -0.248264   -1.267922    1.126434
     78          1           0       -4.977899    6.206989    0.446135
     79          1           0       -6.201217    6.687968    1.691769
     80          1           0       -4.938303    5.590482    2.321858
     81          1           0       -9.742250    5.740910    0.578481
     82          1           0       -8.975851    8.245559    0.072901
     83          1           0       -7.330235    7.606364   -0.150967
     84          1           0      -11.759871    3.010401   -2.229126
     85          1           0      -13.274630    2.128751   -1.731902
     86          1           0      -12.344979    3.082558   -0.537193
     87          1           0      -12.520407   -1.620330   -0.980179
     88          1           0      -13.386375   -0.251439   -1.493432
     89          1           0      -13.177781   -1.894793   -3.516207
     90          1           0      -13.003562   -0.166768   -3.748688
     91          1           0      -11.514646   -1.369723   -3.763614
     92          1           0       -9.221208   -4.849570   -1.686871
     93          1           0       -8.261407   -5.763486   -0.822042
     94          1           0       -9.533906   -4.656059    0.111073
     95          1           0       -3.245417   -3.352968   -0.170569
     96          1           0       -1.175063   -4.215638    2.969347
     97          1           0       -2.671002   -5.150639    3.777081
     98          1           0       -1.460699   -6.010041    2.315066
     99          1           0        2.722735   -1.751992   -1.545768
    100          1           0        2.515873   -0.157419   -1.945361
    101          1           0        4.167783   -1.120498    0.663806
    102          1           0        4.233019    1.377116   -2.200229
    103          1           0        5.494877    1.957380   -1.927536
    104          1           0        5.726556    0.585451   -2.748232
    105          1           0        6.498771    1.176364    0.365705
    106          1           0        6.277464   -0.385381    0.909037
    107          1           0        7.336302   -1.414542   -1.214627
    108          1           0        8.115010    0.148461   -1.653240
    109          1           0        9.223567    0.848281    0.362262
    110          1           0        8.843117   -0.993200    1.007911
    111          1           0       10.366340   -0.027829   -1.472409
    112          1           0        9.320773   -2.418648   -1.690412
    113          1           0       11.254927   -2.684536   -1.573148
    114          1           0       10.113692   -2.817808   -0.145560
    115          1           0       11.197699    0.467987    0.852874
    116          1           0       11.678244   -1.148271    1.074896
    117          1           0       12.834669   -1.341052   -1.143687
    118          1           0       12.590795    0.418557   -1.389837
    119          1           0       13.820440    0.758255    0.805830
    120          1           0       14.018184   -0.643029    1.235049
    121          1           0       15.370370    0.500823   -1.362568
    122          1           0       15.828689   -2.093099    0.519432
    123          1           0       14.908918   -2.150871   -1.288082
    124          1           0       16.750313   -2.035491   -1.051604
    125          1           0       16.103615    1.478447    0.568934
    126          1           0       16.754933   -0.126745    1.171031
    127          1           0       18.305591   -0.228203   -0.648062
    128          1           0       17.815043    1.108478   -1.299481
    129          1           0       18.477177    2.323314    0.748437
    130          1           0       18.987166    0.869133    1.389906
    131          1           0       20.634624    0.527673   -0.182232
    132          1           0       19.932074    3.335015   -1.041544
    133          1           0       21.167111    2.192357   -1.815475
    134          1           0       19.349711    1.840143   -2.093101
    135          1           0       21.262553    1.426209    1.829353
    136          1           0       22.325870    1.919616    0.379867
    137          1           0       21.070333    2.951166    1.525995
 ---------------------------------------------------------------------

 SCF Done:  E(RCAM-B3LYP) =  -2933.41551922     A.U. after   16 cycles

 Excitation energies and oscillator strengths:

 Excited State   1:      Singlet-A      2.0193 eV  613.98 nm  f=0.1890  <S**2>=0.000
     240 -> 242       -0.10380
     240 -> 243        0.25872
     241 -> 242        0.64216
 This state for optimization and/or second-order correction.
 Total Energy, E(TD-HF/TD-DFT) =  -2933.34130967
 Copying the excited state density for this state as the 1-particle RhoCI density.

 Excited State   2:      Singlet-A      2.2242 eV  557.42 nm  f=0.0480  <S**2>=0.000
     240 -> 242        0.59270
     241 -> 242        0.11757
     241 -> 243       -0.35072

 Excited State   3:      Singlet-A      3.0416 eV  407.63 nm  f=0.3594  <S**2>=0.000
     237 -> 242       -0.12128
     239 -> 242        0.39205
     240 -> 242        0.22984
     240 -> 243        0.24975
     241 -> 242       -0.10214
     241 -> 243        0.43283

 Excited State   4:      Singlet-A      3.1437 eV  394.39 nm  f=0.2844  <S**2>=0.000
     239 -> 242        0.54817
     240 -> 242       -0.23019
     240 -> 244       -0.10007
     241 -> 243       -0.35788

 Excited State   5:      Singlet-A      3.2677 eV  379.42 nm  f=0.7581  <S**2>=0.000
     238 -> 242       -0.13298
     239 -> 242       -0.18256
     240 -> 242       -0.10060
     240 -> 243        0.57767
     241 -> 242       -0.23998
     241 -> 243       -0.17821

 Excited State   6:      Singlet-A      3.4454 eV  359.85 nm  f=0.0216  <S**2>=0.000
     236 -> 242        0.54364
     236 -> 243        0.21043
     236 -> 244        0.22585
     238 -> 242       -0.24617

 Excited State   7:      Singlet-A      3.5230 eV  351.92 nm  f=0.0884  <S**2>=0.000
     236 -> 242        0.26279
     237 -> 242       -0.30808
     238 -> 242        0.46867
     239 -> 243        0.22091
     240 -> 243        0.11756

 Excited State   8:      Singlet-A      3.5855 eV  345.79 nm  f=0.0248  <S**2>=0.000
     237 -> 242       -0.27536
     238 -> 242       -0.37701
     239 -> 243        0.50813

 Excited State   9:      Singlet-A      3.6513 eV  339.56 nm  f=0.0496  <S**2>=0.000
     237 -> 242        0.52251
     238 -> 242        0.12284
     239 -> 243        0.39737
     240 -> 243        0.10173
     240 -> 244        0.10761

 Excited State  10:      Singlet-A      3.9273 eV  315.70 nm  f=0.0975  <S**2>=0.000
     234 -> 242        0.28164
     240 -> 244        0.23955
     241 -> 244        0.56093

 The electronic state is 1-A.
 Alpha  occ. eigenvalues --  -46.78325 -19.23401 -19.22020 -19.16349 -19.16096
 Alpha  occ. eigenvalues --  -19.15396 -14.37095 -14.35112 -14.34283 -14.34250
 Alpha  occ. eigenvalues --  -10.34719 -10.33320 -10.30905 -10.29712 -10.27654
 Alpha  occ. eigenvalues --  -10.26543 -10.25671 -10.25308 -10.25093 -10.24468
 Alpha  occ. eigenvalues --  -10.24386 -10.24265 -10.23960 -10.23845 -10.23631
 Alpha  occ. eigenvalues --  -10.23578 -10.23567 -10.23475 -10.23282 -10.23264
 Alpha  occ. eigenvalues --  -10.23197 -10.22977 -10.22963 -10.22932 -10.22832
 Alpha  occ. eigenvalues --  -10.22637 -10.22530 -10.22512 -10.22424 -10.22297
 Alpha  occ. eigenvalues --  -10.22160 -10.22051 -10.21966 -10.21934 -10.21897
 Alpha  occ. eigenvalues --  -10.21762 -10.21713 -10.21680 -10.21592 -10.21523
 Alpha  occ. eigenvalues --  -10.21503 -10.21369 -10.21357 -10.21303 -10.21264
 Alpha  occ. eigenvalues --  -10.20926 -10.20922 -10.20873 -10.20781 -10.20510
 Alpha  occ. eigenvalues --  -10.20174 -10.19492 -10.19240 -10.19148 -10.17933
 Alpha  occ. eigenvalues --   -3.07260  -1.82173  -1.81767  -1.81665  -1.14110
 Alpha  occ. eigenvalues --   -1.13602  -1.06140  -1.02669  -1.01758  -1.00301
 Alpha  occ. eigenvalues --   -0.98946  -0.95894  -0.95596  -0.87037  -0.86860
 Alpha  occ. eigenvalues --   -0.85568  -0.84977  -0.84557  -0.83552  -0.83370
 Alpha  occ. eigenvalues --   -0.82963  -0.82759  -0.82117  -0.81928  -0.80896
 Alpha  occ. eigenvalues --   -0.79972  -0.79223  -0.78892  -0.77959  -0.77612
 Alpha  occ. eigenvalues --   -0.77100  -0.76458  -0.75569  -0.74967  -0.73535
 Alpha  occ. eigenvalues --   -0.73159  -0.72692  -0.72180  -0.71139  -0.71028
 Alpha  occ. eigenvalues --   -0.70286  -0.69954  -0.69263  -0.68847  -0.67997
 Alpha  occ. eigenvalues --   -0.66706  -0.65644  -0.65149  -0.64728  -0.63440
 Alpha  occ. eigenvalues --   -0.63059  -0.61995  -0.60830  -0.60102  -0.59986
 Alpha  occ. eigenvalues --   -0.59679  -0.59272  -0.58848  -0.58738  -0.57599
 Alpha  occ. eigenvalues --   -0.57595  -0.56722  -0.56648  -0.55752  -0.54618
 Alpha  occ. eigenvalues --   -0.54468  -0.53831  -0.53303  -0.52608  -0.52191
 Alpha  occ. eigenvalues --   -0.51643  -0.51464  -0.51291  -0.51213  -0.50863
 Alpha  occ. eigenvalues --   -0.50705  -0.50193  -0.49816  -0.49639  -0.49327
 Alpha  occ. eigenvalues --   -0.49111  -0.48791  -0.48481  -0.48303  -0.48120
 Alpha  occ. eigenvalues --   -0.47914  -0.47748  -0.47580  -0.47330  -0.47193
 Alpha  occ. eigenvalues --   -0.46923  -0.46656  -0.46526  -0.46267  -0.45968
 Alpha  occ. eigenvalues --   -0.45691  -0.45552  -0.45464  -0.44880  -0.44778
 Alpha  occ. eigenvalues --   -0.44619  -0.44289  -0.44019  -0.43780  -0.43657
 Alpha  occ. eigenvalues --   -0.43310  -0.43098  -0.42884  -0.42573  -0.42509
 Alpha  occ. eigenvalues --   -0.42116  -0.41876  -0.41648  -0.41582  -0.41495
 Alpha  occ. eigenvalues --   -0.41034  -0.40943  -0.40549  -0.40366  -0.40280
 Alpha  occ. eigenvalues --   -0.40141  -0.39781  -0.39739  -0.39689  -0.39512
 Alpha  occ. eigenvalues --   -0.39466  -0.39250  -0.39135  -0.38993  -0.38742
 Alpha  occ. eigenvalues --   -0.38533  -0.38153  -0.37966  -0.37806  -0.37626
 Alpha  occ. eigenvalues --   -0.37474  -0.37322  -0.37275  -0.37134  -0.36897
 Alpha  occ. eigenvalues --   -0.36807  -0.36185  -0.35911  -0.35299  -0.35173
 Alpha  occ. eigenvalues --   -0.35147  -0.34995  -0.34927  -0.34790  -0.34445
 Alpha  occ. eigenvalues --   -0.34283  -0.34202  -0.33987  -0.33809  -0.33419
 Alpha  occ. eigenvalues --   -0.33157  -0.32936  -0.32627  -0.32545  -0.32321
 Alpha  occ. eigenvalues --   -0.31958  -0.31917  -0.31327  -0.29848  -0.29608
 Alpha  occ. eigenvalues --   -0.29220  -0.29174  -0.28461  -0.28045  -0.27563
 Alpha  occ. eigenvalues --   -0.26974  -0.26824  -0.26493  -0.24636  -0.20895
 Alpha  occ. eigenvalues --   -0.19779
 Alpha virt. eigenvalues --   -0.06759  -0.03904   0.00611   0.02615   0.03518
 Alpha virt. eigenvalues --    0.03769   0.04825   0.05591   0.05832   0.06122
 Alpha virt. eigenvalues --    0.06947   0.09111   0.09538   0.09564   0.09665

 Mulliken charges:
               1
     1  Mg   0.815099
     2  C    0.115242
     3  C   -0.191180
     4  C   -0.164037
     5  C   -0.158239
     6  N   -0.604360
     7  C    0.277790
     8  C   -0.145532
     9  C   -0.146099
    10  C    0.292262
    11  C   -0.307678
    12  C   -0.161098
    13  C   -0.251554
    14  C    0.587363
    15  O   -0.509257
    16  O   -0.449895
    17  N   -0.693758
    18  C    0.235023
    19  C    0.073573
    20  C   -0.013342
    21  C    0.349240
    22  C   -0.384891
    23  C   -0.062182
    24  C   -0.262919
    25  N   -0.696411
    26  C    0.300438
    27  C    0.010685
    28  C    0.066469
    29  C    0.254240
    30  C   -0.381484
    31  C   -0.245123
    32  C   -0.316647
    33  N   -0.706259
    34  C    0.266555
    35  C   -0.005910
    36  C    0.009159
    37  C    0.312718
    38  C   -0.381690
    39  C    0.394270
    40  O   -0.451279
    41  C   -0.340264
    42  C    0.624440
    43  O   -0.508749
    44  O   -0.401692
    45  C   -0.080017
    46  C   -0.009541
    47  C   -0.126474
    48  C    0.078280
    49  C   -0.341970
    50  C   -0.206647
    51  C   -0.158872
    52  C   -0.176789
    53  C   -0.045911
    54  C   -0.306995
    55  C   -0.176865
    56  C   -0.175862
    57  C   -0.169033
    58  C   -0.046706
    59  C   -0.294186
    60  C   -0.161543
    61  C   -0.208495
    62  C   -0.145885
    63  C   -0.082658
    64  C   -0.282680
    65  C   -0.320250
    66  H    0.076022
    67  H    0.072792
    68  H    0.063045
    69  H    0.136252
    70  H    0.091473
    71  H    0.111401
    72  H    0.115142
    73  H    0.115529
    74  H    0.122326
    75  H    0.076692
    76  H    0.135617
    77  H    0.141075
    78  H    0.134602
    79  H    0.121719
    80  H    0.110637
    81  H    0.073175
    82  H    0.103740
    83  H    0.098601
    84  H    0.127464
    85  H    0.115924
    86  H    0.136045
    87  H    0.105331
    88  H    0.114854
    89  H    0.113197
    90  H    0.072126
    91  H    0.103312
    92  H    0.133324
    93  H    0.126281
    94  H    0.136470
    95  H    0.144104
    96  H    0.106509
    97  H    0.127399
    98  H    0.134644
    99  H    0.137842
   100  H    0.133560
   101  H    0.094551
   102  H    0.110163
   103  H    0.120980
   104  H    0.138220
   105  H    0.100331
   106  H    0.096771
   107  H    0.061982
   108  H    0.090315
   109  H    0.101636
   110  H    0.095519
   111  H    0.097106
   112  H    0.100558
   113  H    0.083874
   114  H    0.080174
   115  H    0.071823
   116  H    0.073038
   117  H    0.103994
   118  H    0.095857
   119  H    0.098554
   120  H    0.076005
   121  H    0.054578
   122  H    0.055319
   123  H    0.108971
   124  H    0.116067
   125  H    0.090607
   126  H    0.080089
   127  H    0.080113
   128  H    0.092685
   129  H    0.095186
   130  H    0.082542
   131  H    0.093208
   132  H    0.099503
   133  H    0.089532
   134  H    0.090828
   135  H    0.088343
   136  H    0.107767
   137  H    0.111045
 Sum of Mulliken charges =  -0.00000

 Dipole moment (field-independent basis, Debye):
    X=              2.8593    Y=              4.6268    Z=              0.3575  Tot=              5.4508
 Quadrupole moment (field-independent basis, Debye-Ang):
   XX=           -337.5373   YY=           -391.3155   ZZ=           -399.8230
   XY=            -17.5051   XZ=             12.6422   YZ=              0.0618

 Normal termination of Gaussian 16 at Wed Oct 23 00:35:27 2019.
