 Gaussian 16, Revision A.03,
 Gaussian 16:  ES64L-G16RevA.03 25-Dec-2016

 ----------------------------------------------------------------------
 # td=(NStates=10) iop(3/107=0140000000,3/108=0140000000) CAM-B3LYP/6-3
 1G(d,p)
 ----------------------------------------------------------------------

 --
 TD
 --
 Symbolic Z-matrix:
 Charge =  0 Multiplicity = 1

                         Standard orientation:
 ---------------------------------------------------------------------
 Center     Atomic      Atomic             Coordinates (Angstroms)
 Number     Number       Type             X           Y           Z
 ---------------------------------------------------------------------
      1         12           0       -7.007123    0.511852    0.088183
      2          6           0       -4.803154   -2.021386    0.492461
      3          6           0       -4.808056    2.827901    1.316631
      4          6           0       -9.346938    3.166753   -0.383825
      5          6           0       -9.503816   -1.642859   -1.036084
      6          7           0       -5.153012    0.363941    0.839208
      7          6           0       -4.383238   -0.766155    0.948711
      8          6           0       -2.962071   -0.489693    1.354388
      9          6           0       -3.080521    1.029843    1.714799
     10          6           0       -4.423305    1.476892    1.269819
     11          6           0       -2.927579    1.270541    3.257323
     12          6           0       -1.962354   -0.671701    0.278131
     13          6           0       -0.564275   -0.547369    0.688351
     14          6           0        0.473912   -0.759150   -0.391177
     15          8           0        0.153625   -1.063645   -1.610175
     16          8           0        1.689796   -0.520317   -0.052898
     17          7           0       -7.082149    2.589636    0.301278
     18          6           0       -6.028717    3.240988    0.914434
     19          6           0       -6.327436    4.756462    0.865916
     20          6           0       -7.610478    4.965445    0.413577
     21          6           0       -8.093079    3.506582    0.004353
     22          6           0       -5.428720    5.813675    1.360578
     23          6           0       -8.469472    6.140285    0.250510
     24          6           0       -8.023547    7.431518    0.154939
     25          7           0       -9.054895    0.661150   -0.625604
     26          6           0       -9.824972    1.803842   -0.668635
     27          6           0      -11.215878    1.573098   -1.087348
     28          6           0      -11.194283    0.192230   -1.294615
     29          6           0       -9.933016   -0.348649   -0.969843
     30          6           0      -12.322702    2.647390   -1.422332
     31          6           0      -12.214707   -0.698084   -1.872554
     32          6           0      -12.164159   -0.887033   -3.393844
     33          7           0       -7.146666   -1.368927   -0.273242
     34          6           0       -8.297543   -2.189280   -0.614057
     35          6           0       -7.859694   -3.639918   -0.550523
     36          6           0       -6.572248   -3.502572   -0.039770
     37          6           0       -6.207961   -2.216365    0.053561
     38          6           0       -8.742235   -4.718991   -1.025475
     39          6           0       -5.361828   -4.365123    0.191258
     40          8           0       -5.189614   -5.600937   -0.035213
     41          6           0       -4.178719   -3.334144    0.512035
     42          6           0       -3.748107   -3.776974    1.903852
     43          8           0       -3.898132   -3.187974    3.004458
     44          8           0       -2.866344   -4.789253    1.808385
     45          6           0       -2.158530   -5.129273    3.050113
     46          6           0        2.682131   -0.802370   -1.160191
     47          6           0        4.086822   -0.623566   -0.532121
     48          6           0        5.080021    0.197911   -1.010368
     49          6           0        4.990367    1.162663   -2.100950
     50          6           0        6.349962    0.390048   -0.142216
     51          6           0        7.650425   -0.116379   -0.922089
     52          6           0        8.895791   -0.070308   -0.122835
     53          6           0       10.247799   -0.615885   -0.846769
     54          6           0       10.015822   -2.069959   -1.445607
     55          6           0       11.331190   -0.419100    0.060685
     56          6           0       12.804473   -0.537651   -0.713348
     57          6           0       14.023903   -0.213148    0.141444
     58          6           0       15.419966   -0.192086   -0.622029
     59          6           0       15.868344   -1.553939   -0.941758
     60          6           0       16.428563    0.437733    0.402534
     61          6           0       17.836063    0.635402   -0.317633
     62          6           0       18.808128    1.298313    0.697531
     63          6           0       20.216229    1.457133    0.265420
     64          6           0       20.232303    2.115090   -1.212704
     65          6           0       21.142358    2.085141    1.282783
     66          1           0       -3.986298    3.407615    1.802475
     67          1           0      -10.062278    3.959852   -0.438375
     68          1           0      -10.312634   -2.290694   -1.065581
     69          1           0       -2.866224   -1.251077    2.189244
     70          1           0       -2.376603    1.684833    1.318044
     71          1           0       -1.790127    1.023157    3.531380
     72          1           0       -3.022886    2.371531    3.507409
     73          1           0       -3.535083    0.731965    3.894273
     74          1           0       -2.091636   -1.573577   -0.371039
     75          1           0       -2.208790    0.053406   -0.475287
     76          1           0       -0.354667    0.223697    1.372311
     77          1           0       -0.409787   -1.273036    1.576883
     78          1           0       -4.487443    6.255973    0.711334
     79          1           0       -6.118427    6.496647    1.782132
     80          1           0       -4.988497    5.323432    2.272589
     81          1           0       -9.592724    6.163847    0.538202
     82          1           0       -8.663505    8.100176    0.395845
     83          1           0       -7.014690    7.695170   -0.034456
     84          1           0      -12.064416    3.084176   -2.409294
     85          1           0      -13.474665    2.023939   -1.657160
     86          1           0      -12.430266    3.491754   -0.588155
     87          1           0      -11.941324   -1.706724   -1.249626
     88          1           0      -13.195556   -0.371451   -1.439644
     89          1           0      -12.869307   -1.470084   -3.980128
     90          1           0      -12.396453    0.089485   -3.985120
     91          1           0      -11.062233   -1.213728   -3.590238
     92          1           0       -9.122840   -4.636081   -2.053711
     93          1           0       -8.382247   -5.709746   -0.617367
     94          1           0       -9.777887   -4.752873   -0.587830
     95          1           0       -3.476553   -3.549899   -0.215968
     96          1           0       -1.782969   -4.217300    3.593953
     97          1           0       -2.736498   -5.843539    3.578955
     98          1           0       -1.362801   -5.846976    2.399792
     99          1           0        2.647461   -1.797840   -1.547939
    100          1           0        2.434808    0.013466   -1.917724
    101          1           0        4.251889   -1.286965    0.407621
    102          1           0        4.070147    1.333259   -2.550191
    103          1           0        5.444000    2.215893   -1.800971
    104          1           0        5.764807    0.843083   -2.946248
    105          1           0        6.732704    1.306901   -0.145371
    106          1           0        6.166600    0.056431    0.784431
    107          1           0        7.560466   -1.158190   -1.350535
    108          1           0        7.592725    0.519741   -1.603985
    109          1           0        9.328021    0.836504    0.187054
    110          1           0        8.576085   -0.775678    0.655056
    111          1           0       10.476127    0.164705   -1.659582
    112          1           0        9.135230   -2.091338   -2.267955
    113          1           0       10.941878   -2.215009   -1.753072
    114          1           0        9.710152   -2.732423   -0.651542
    115          1           0       11.528815    0.485281    0.430860
    116          1           0       11.227489   -1.199014    0.754763
    117          1           0       12.759676   -1.587301   -1.034430
    118          1           0       12.838090    0.140335   -1.648114
    119          1           0       13.967423    0.874103    0.574653
    120          1           0       14.015779   -0.683657    1.031984
    121          1           0       15.252458    0.256392   -1.602119
    122          1           0       15.756937   -2.157105    0.236036
    123          1           0       15.244187   -2.337031   -1.548055
    124          1           0       16.956738   -1.604205   -1.458803
    125          1           0       16.071631    1.372274    0.840134
    126          1           0       16.340064   -0.230460    1.360548
    127          1           0       18.073240   -0.392613   -0.647550
    128          1           0       17.461018    1.417428   -1.116414
    129          1           0       18.418626    2.280393    0.595637
    130          1           0       18.872350    0.877307    1.722414
    131          1           0       20.468621    0.342948   -0.057138
    132          1           0       20.042963    3.196359   -1.085753
    133          1           0       21.104432    2.171377   -1.827478
    134          1           0       19.319229    1.572542   -1.790986
    135          1           0       21.343558    1.367290    2.214892
    136          1           0       22.192872    2.189954    1.053479
    137          1           0       20.849510    3.152582    1.757803
 ---------------------------------------------------------------------

 SCF Done:  E(RCAM-B3LYP) =  -2933.41273308     A.U. after   16 cycles

 Excitation energies and oscillator strengths:

 Excited State   1:      Singlet-A      2.1554 eV  575.23 nm  f=0.2131  <S**2>=0.000
     240 -> 243        0.25578
     241 -> 242        0.65319
 This state for optimization and/or second-order correction.
 Total Energy, E(TD-HF/TD-DFT) =  -2933.33352387
 Copying the excited state density for this state as the 1-particle RhoCI density.

 Excited State   2:      Singlet-A      2.4347 eV  509.24 nm  f=0.0021  <S**2>=0.000
     240 -> 242        0.52375
     241 -> 243       -0.46028

 Excited State   3:      Singlet-A      3.1042 eV  399.40 nm  f=0.6236  <S**2>=0.000
     240 -> 242        0.43349
     240 -> 243        0.13134
     241 -> 243        0.50752

 Excited State   4:      Singlet-A      3.2678 eV  379.41 nm  f=0.0413  <S**2>=0.000
     238 -> 242       -0.10612
     238 -> 243       -0.10503
     239 -> 242        0.62131
     239 -> 243        0.19173
     240 -> 243       -0.18249

 Excited State   5:      Singlet-A      3.3254 eV  372.84 nm  f=0.0649  <S**2>=0.000
     235 -> 242       -0.13927
     237 -> 242        0.53962
     237 -> 243        0.14017
     237 -> 244        0.26535
     237 -> 245        0.10740
     240 -> 243       -0.18702

 Excited State   6:      Singlet-A      3.3652 eV  368.43 nm  f=0.6636  <S**2>=0.000
     237 -> 242        0.17514
     238 -> 242        0.12650
     239 -> 242        0.25701
     240 -> 243        0.52128
     241 -> 242       -0.21900
     241 -> 243       -0.10297
     241 -> 244       -0.15650

 Excited State   7:      Singlet-A      3.4791 eV  356.37 nm  f=0.0169  <S**2>=0.000
     238 -> 242        0.61395
     238 -> 243       -0.14002
     239 -> 243       -0.15609
     240 -> 243       -0.17449

 Excited State   8:      Singlet-A      3.7486 eV  330.75 nm  f=0.0197  <S**2>=0.000
     238 -> 242       -0.10285
     238 -> 243        0.13661
     239 -> 242        0.10541
     239 -> 243       -0.34027
     241 -> 244        0.55037
     241 -> 245        0.10285

 Excited State   9:      Singlet-A      3.7553 eV  330.16 nm  f=0.0604  <S**2>=0.000
     235 -> 242        0.49115
     235 -> 243        0.10333
     237 -> 242        0.13028
     239 -> 243        0.38333
     240 -> 243        0.11310
     241 -> 244        0.19553

 Excited State  10:      Singlet-A      3.8178 eV  324.75 nm  f=0.2527  <S**2>=0.000
     235 -> 242        0.39535
     237 -> 242        0.14425
     238 -> 242       -0.15531
     238 -> 243        0.12868
     239 -> 243       -0.36313
     240 -> 242        0.11567
     240 -> 243       -0.13971
     241 -> 244       -0.28489

 The electronic state is 1-A.
 Alpha  occ. eigenvalues --  -46.79041 -19.23384 -19.21698 -19.16217 -19.16022
 Alpha  occ. eigenvalues --  -19.14867 -14.37674 -14.36122 -14.34771 -14.34339
 Alpha  occ. eigenvalues --  -10.34544 -10.34468 -10.30755 -10.28827 -10.28161
 Alpha  occ. eigenvalues --  -10.27117 -10.26684 -10.26032 -10.25514 -10.25418
 Alpha  occ. eigenvalues --  -10.24906 -10.24635 -10.24268 -10.24136 -10.23854
 Alpha  occ. eigenvalues --  -10.23758 -10.23635 -10.23607 -10.23434 -10.23427
 Alpha  occ. eigenvalues --  -10.23249 -10.23164 -10.23127 -10.22955 -10.22934
 Alpha  occ. eigenvalues --  -10.22732 -10.22678 -10.22677 -10.22632 -10.22581
 Alpha  occ. eigenvalues --  -10.22449 -10.22239 -10.22229 -10.22217 -10.22207
 Alpha  occ. eigenvalues --  -10.22206 -10.22188 -10.22020 -10.21928 -10.21889
 Alpha  occ. eigenvalues --  -10.21859 -10.21849 -10.21836 -10.21282 -10.21031
 Alpha  occ. eigenvalues --  -10.20859 -10.20739 -10.20676 -10.20635 -10.20556
 Alpha  occ. eigenvalues --  -10.20369 -10.20075 -10.19900 -10.19692 -10.19518
 Alpha  occ. eigenvalues --   -3.07862  -1.82785  -1.82322  -1.82305  -1.13979
 Alpha  occ. eigenvalues --   -1.11991  -1.02938  -1.01821  -0.99705  -0.99041
 Alpha  occ. eigenvalues --   -0.97996  -0.96985  -0.96077  -0.87465  -0.86539
 Alpha  occ. eigenvalues --   -0.86030  -0.85447  -0.84729  -0.84313  -0.84057
 Alpha  occ. eigenvalues --   -0.83306  -0.83169  -0.82136  -0.82034  -0.81439
 Alpha  occ. eigenvalues --   -0.80673  -0.79511  -0.78541  -0.77909  -0.77303
 Alpha  occ. eigenvalues --   -0.76725  -0.76282  -0.75763  -0.74899  -0.73826
 Alpha  occ. eigenvalues --   -0.72751  -0.72064  -0.71904  -0.71452  -0.71303
 Alpha  occ. eigenvalues --   -0.70329  -0.69807  -0.69306  -0.69182  -0.67682
 Alpha  occ. eigenvalues --   -0.67017  -0.66107  -0.65188  -0.64662  -0.63779
 Alpha  occ. eigenvalues --   -0.62926  -0.62723  -0.61643  -0.60737  -0.60531
 Alpha  occ. eigenvalues --   -0.59818  -0.59345  -0.59031  -0.58146  -0.57886
 Alpha  occ. eigenvalues --   -0.57431  -0.56866  -0.55889  -0.55267  -0.55127
 Alpha  occ. eigenvalues --   -0.54816  -0.54246  -0.53895  -0.53183  -0.52949
 Alpha  occ. eigenvalues --   -0.52696  -0.52518  -0.51948  -0.51650  -0.51134
 Alpha  occ. eigenvalues --   -0.50808  -0.50408  -0.50047  -0.49502  -0.49213
 Alpha  occ. eigenvalues --   -0.49058  -0.48833  -0.48692  -0.48225  -0.48078
 Alpha  occ. eigenvalues --   -0.47692  -0.47513  -0.47328  -0.46989  -0.46763
 Alpha  occ. eigenvalues --   -0.46649  -0.46239  -0.45912  -0.45885  -0.45626
 Alpha  occ. eigenvalues --   -0.45379  -0.45292  -0.44972  -0.44239  -0.44210
 Alpha  occ. eigenvalues --   -0.44136  -0.43882  -0.43814  -0.43654  -0.43472
 Alpha  occ. eigenvalues --   -0.43229  -0.42810  -0.42652  -0.42561  -0.42405
 Alpha  occ. eigenvalues --   -0.42245  -0.42093  -0.42000  -0.41893  -0.41729
 Alpha  occ. eigenvalues --   -0.41548  -0.41128  -0.41108  -0.40883  -0.40776
 Alpha  occ. eigenvalues --   -0.40228  -0.40200  -0.40082  -0.39695  -0.39687
 Alpha  occ. eigenvalues --   -0.39605  -0.39448  -0.39122  -0.39073  -0.38813
 Alpha  occ. eigenvalues --   -0.38639  -0.38373  -0.38336  -0.38156  -0.37961
 Alpha  occ. eigenvalues --   -0.37678  -0.37464  -0.37144  -0.37064  -0.37042
 Alpha  occ. eigenvalues --   -0.36844  -0.36741  -0.36680  -0.36290  -0.35984
 Alpha  occ. eigenvalues --   -0.35852  -0.35631  -0.35229  -0.35036  -0.34224
 Alpha  occ. eigenvalues --   -0.33910  -0.33805  -0.33731  -0.33628  -0.33472
 Alpha  occ. eigenvalues --   -0.33095  -0.33087  -0.32727  -0.32102  -0.31964
 Alpha  occ. eigenvalues --   -0.31906  -0.31620  -0.31085  -0.30174  -0.29829
 Alpha  occ. eigenvalues --   -0.29705  -0.29109  -0.28659  -0.27708  -0.26964
 Alpha  occ. eigenvalues --   -0.26408  -0.26277  -0.25535  -0.24984  -0.21873
 Alpha  occ. eigenvalues --   -0.19916
 Alpha virt. eigenvalues --   -0.06276  -0.04195  -0.00366   0.01264   0.03023
 Alpha virt. eigenvalues --    0.03489   0.03843   0.04814   0.05173   0.05618
 Alpha virt. eigenvalues --    0.06410   0.08401   0.08976   0.09172   0.09475

 Mulliken charges:
               1
     1  Mg   0.813519
     2  C    0.075819
     3  C   -0.176919
     4  C   -0.166545
     5  C   -0.155952
     6  N   -0.680070
     7  C    0.304175
     8  C   -0.156193
     9  C   -0.169790
    10  C    0.358240
    11  C   -0.308560
    12  C   -0.153805
    13  C   -0.270309
    14  C    0.618227
    15  O   -0.535928
    16  O   -0.440599
    17  N   -0.693426
    18  C    0.347679
    19  C   -0.002702
    20  C    0.051632
    21  C    0.287721
    22  C   -0.380333
    23  C   -0.125625
    24  C   -0.202879
    25  N   -0.659277
    26  C    0.264661
    27  C    0.046364
    28  C    0.024827
    29  C    0.313967
    30  C   -0.356102
    31  C   -0.245983
    32  C   -0.295257
    33  N   -0.749367
    34  C    0.192112
    35  C    0.084905
    36  C   -0.004604
    37  C    0.360352
    38  C   -0.408215
    39  C    0.332606
    40  O   -0.479341
    41  C   -0.315230
    42  C    0.610767
    43  O   -0.504499
    44  O   -0.434107
    45  C   -0.085780
    46  C    0.006844
    47  C   -0.173644
    48  C    0.161596
    49  C   -0.370749
    50  C   -0.225246
    51  C   -0.177926
    52  C   -0.162508
    53  C   -0.077684
    54  C   -0.308974
    55  C   -0.164958
    56  C   -0.208956
    57  C   -0.170991
    58  C   -0.053386
    59  C   -0.263517
    60  C   -0.177369
    61  C   -0.206724
    62  C   -0.134241
    63  C   -0.033675
    64  C   -0.328510
    65  C   -0.317098
    66  H    0.091916
    67  H    0.074014
    68  H    0.075421
    69  H    0.129471
    70  H    0.115581
    71  H    0.082955
    72  H    0.096095
    73  H    0.142098
    74  H    0.121064
    75  H    0.117838
    76  H    0.133080
    77  H    0.116428
    78  H    0.110034
    79  H    0.130950
    80  H    0.105436
    81  H    0.095449
    82  H    0.095171
    83  H    0.108536
    84  H    0.141414
    85  H    0.076446
    86  H    0.112760
    87  H    0.076368
    88  H    0.096028
    89  H    0.113761
    90  H    0.093360
    91  H    0.103800
    92  H    0.140827
    93  H    0.140283
    94  H    0.120983
    95  H    0.174978
    96  H    0.141990
    97  H    0.149108
    98  H    0.105482
    99  H    0.154111
   100  H    0.130982
   101  H    0.090041
   102  H    0.120555
   103  H    0.107099
   104  H    0.111311
   105  H    0.111999
   106  H    0.095506
   107  H    0.083012
   108  H    0.097525
   109  H    0.085211
   110  H    0.086132
   111  H    0.064359
   112  H    0.094833
   113  H    0.115000
   114  H    0.106786
   115  H    0.107669
   116  H    0.094109
   117  H    0.099097
   118  H    0.080083
   119  H    0.063348
   120  H    0.101759
   121  H    0.088342
   122  H    0.041014
   123  H    0.097099
   124  H    0.087572
   125  H    0.092268
   126  H    0.078842
   127  H    0.103778
   128  H    0.104847
   129  H    0.096520
   130  H    0.094623
   131  H    0.070008
   132  H    0.091289
   133  H    0.106478
   134  H    0.089448
   135  H    0.082315
   136  H    0.115246
   137  H    0.088203
 Sum of Mulliken charges =  -0.00000

 Dipole moment (field-independent basis, Debye):
    X=              3.2444    Y=              5.5219    Z=              1.5928  Tot=              6.5996
 Quadrupole moment (field-independent basis, Debye-Ang):
   XX=           -351.6676   YY=           -392.7451   ZZ=           -397.3832
   XY=            -20.3244   XZ=              6.6288   YZ=             -1.0708

 Normal termination of Gaussian 16 at Wed Oct 23 23:48:45 2019.
