 Gaussian 16, Revision A.03,
 Gaussian 16:  ES64L-G16RevA.03 25-Dec-2016

 ----------------------------------------------------------------------
 # td=(NStates=10) iop(3/107=0140000000,3/108=0140000000) CAM-B3LYP/6-3
 1G(d,p)
 ----------------------------------------------------------------------

 --
 TD
 --
 Symbolic Z-matrix:
 Charge =  0 Multiplicity = 1

                         Standard orientation:
 ---------------------------------------------------------------------
 Center     Atomic      Atomic             Coordinates (Angstroms)
 Number     Number       Type             X           Y           Z
 ---------------------------------------------------------------------
      1         12           0       -7.155339    0.558037    0.177361
      2          6           0       -4.834905   -1.988741    0.448983
      3          6           0       -4.739920    2.876726    1.111256
      4          6           0       -9.397087    3.144471   -0.258033
      5          6           0       -9.535362   -1.695016   -0.784688
      6          7           0       -5.205905    0.429396    0.689656
      7          6           0       -4.374550   -0.726307    0.797044
      8          6           0       -2.969860   -0.399295    1.188386
      9          6           0       -3.083065    1.041594    1.651988
     10          6           0       -4.418607    1.495963    1.065395
     11          6           0       -2.803193    1.348382    3.090722
     12          6           0       -1.966426   -0.699444    0.115197
     13          6           0       -0.468633   -0.595507    0.518423
     14          6           0        0.547403   -0.757764   -0.656238
     15          8           0        0.287345   -1.203602   -1.720707
     16          8           0        1.805051   -0.511664   -0.221635
     17          7           0       -7.028844    2.604378    0.313838
     18          6           0       -6.001647    3.368772    0.745733
     19          6           0       -6.387694    4.825830    0.808016
     20          6           0       -7.770132    4.842087    0.441091
     21          6           0       -8.160041    3.469268    0.192750
     22          6           0       -5.481929    5.904911    1.089235
     23          6           0       -8.653484    6.014011    0.367638
     24          6           0       -8.231122    7.232156    0.041700
     25          7           0       -9.040813    0.678401   -0.501455
     26          6           0       -9.830129    1.797353   -0.515008
     27          6           0      -11.231878    1.487402   -0.927663
     28          6           0      -11.317470    0.086062   -1.270649
     29          6           0       -9.946685   -0.324839   -0.927024
     30          6           0      -12.384118    2.478575   -1.274615
     31          6           0      -12.485571   -0.721686   -1.556247
     32          6           0      -12.341048   -1.020713   -3.180800
     33          7           0       -7.265093   -1.398017   -0.087818
     34          6           0       -8.315150   -2.202978   -0.461701
     35          6           0       -7.856418   -3.640134   -0.449386
     36          6           0       -6.604537   -3.550887   -0.120059
     37          6           0       -6.194047   -2.207112    0.054846
     38          6           0       -8.697995   -4.856087   -0.783394
     39          6           0       -5.375968   -4.260388    0.104684
     40          8           0       -5.263221   -5.556052    0.095220
     41          6           0       -4.245618   -3.292746    0.466619
     42          6           0       -3.517663   -3.691892    1.762645
     43          8           0       -3.681192   -3.111157    2.830917
     44          8           0       -2.706446   -4.723659    1.548736
     45          6           0       -2.049521   -5.198491    2.730188
     46          6           0        2.822846   -0.673202   -1.183298
     47          6           0        4.044519   -0.468129   -0.503715
     48          6           0        5.073839    0.309866   -0.818622
     49          6           0        5.062418    1.266540   -2.018760
     50          6           0        6.376324    0.220187   -0.059728
     51          6           0        7.690897    0.007375   -0.846819
     52          6           0        8.892816   -0.103880    0.062251
     53          6           0       10.101764   -0.594423   -0.739115
     54          6           0        9.951886   -2.046791   -1.150920
     55          6           0       11.431826   -0.318316    0.055069
     56          6           0       12.754397   -0.661850   -0.675782
     57          6           0       13.974993   -0.043212    0.133631
     58          6           0       15.316726   -0.227302   -0.501085
     59          6           0       15.646238   -1.722414   -0.759162
     60          6           0       16.478815    0.469631    0.319381
     61          6           0       17.841276    0.619372   -0.218865
     62          6           0       18.897427    1.362969    0.750100
     63          6           0       20.330127    1.297527    0.088442
     64          6           0       20.434913    2.120715   -1.212796
     65          6           0       21.247045    1.896030    1.183859
     66          1           0       -4.048717    3.714353    1.349313
     67          1           0      -10.278165    3.839920   -0.451593
     68          1           0      -10.292996   -2.417338   -1.282472
     69          1           0       -2.878223   -1.146261    2.000879
     70          1           0       -2.369457    1.765098    1.058300
     71          1           0       -1.795700    1.554243    3.431813
     72          1           0       -2.852911    2.476962    3.184728
     73          1           0       -3.310539    0.581147    3.668163
     74          1           0       -2.114476   -1.723932   -0.240107
     75          1           0       -2.287834   -0.093891   -0.936264
     76          1           0       -0.260636    0.441509    0.921671
     77          1           0       -0.322741   -1.301454    1.261966
     78          1           0       -4.990840    6.482063    0.373323
     79          1           0       -5.912511    6.611844    1.769720
     80          1           0       -4.571576    5.699295    1.754877
     81          1           0       -9.710143    5.760117    0.458545
     82          1           0       -9.017568    7.961611   -0.299480
     83          1           0       -7.258018    7.692504   -0.208030
     84          1           0      -12.322178    3.140861   -2.199707
     85          1           0      -13.463977    1.993675   -1.748514
     86          1           0      -12.647650    2.991166   -0.442240
     87          1           0      -12.320878   -1.585338   -1.007345
     88          1           0      -13.398220   -0.379453   -1.179368
     89          1           0      -13.255137   -1.373503   -3.375833
     90          1           0      -12.250342   -0.074002   -3.465017
     91          1           0      -11.415335   -1.515574   -3.578873
     92          1           0       -8.949905   -4.666863   -2.048772
     93          1           0       -8.254620   -5.776631   -0.740669
     94          1           0       -9.603138   -4.977481   -0.315265
     95          1           0       -3.452157   -3.383899   -0.300324
     96          1           0       -1.389339   -4.350457    3.129498
     97          1           0       -2.678141   -5.370406    3.600093
     98          1           0       -1.524017   -6.138163    2.227444
     99          1           0        2.987763   -1.705954   -1.457902
    100          1           0        2.751728    0.045054   -2.272562
    101          1           0        4.364967   -1.090008    0.389711
    102          1           0        4.029951    1.386825   -2.265026
    103          1           0        5.474003    2.282063   -1.659357
    104          1           0        5.806576    1.086843   -2.879491
    105          1           0        6.510113    1.277312    0.458605
    106          1           0        6.374797   -0.583619    0.921136
    107          1           0        7.477153   -1.028355   -1.352346
    108          1           0        8.041703    0.753066   -1.595934
    109          1           0        8.841477    0.707197    0.625948
    110          1           0        8.702490   -0.788032    0.994676
    111          1           0       10.309496    0.132052   -1.630884
    112          1           0        9.118323   -2.476978   -1.687406
    113          1           0       10.773902   -2.235659   -1.850817
    114          1           0       10.031158   -2.737796   -0.327824
    115          1           0       11.529491    0.699218    0.321311
    116          1           0       11.413735   -0.774987    1.042419
    117          1           0       12.671444   -1.754868   -0.733206
    118          1           0       12.747840   -0.074761   -1.603654
    119          1           0       13.876886    1.136605    0.418421
    120          1           0       14.169055   -0.589260    1.151834
    121          1           0       15.381277    0.337389   -1.658645
    122          1           0       15.443152   -2.084584    0.253468
    123          1           0       15.041340   -2.069983   -1.639675
    124          1           0       16.814083   -1.754690   -1.046691
    125          1           0       16.033484    1.499984    0.492091
    126          1           0       16.448070    0.067659    1.377932
    127          1           0       18.277194   -0.217128   -0.465152
    128          1           0       17.804642    0.981347   -1.228558
    129          1           0       18.679139    2.614166    0.835459
    130          1           0       19.094636    1.022623    1.632470
    131          1           0       20.689531    0.315537   -0.157279
    132          1           0       19.763199    3.077375   -1.266427
    133          1           0       21.453281    2.397656   -1.454011
    134          1           0       20.057356    1.344901   -2.085338
    135          1           0       21.419737    1.401414    2.163915
    136          1           0       22.373201    2.190791    0.896048
    137          1           0       21.054956    2.966018    1.497579
 ---------------------------------------------------------------------

 SCF Done:  E(RCAM-B3LYP) =  -2933.46209695     A.U. after   15 cycles

 Excitation energies and oscillator strengths:

 Excited State   1:      Singlet-A      2.0643 eV  600.61 nm  f=0.2298  <S**2>=0.000
     240 -> 243       -0.24257
     241 -> 242        0.65903
 This state for optimization and/or second-order correction.
 Total Energy, E(TD-HF/TD-DFT) =  -2933.38623484
 Copying the excited state density for this state as the 1-particle RhoCI density.

 Excited State   2:      Singlet-A      2.3715 eV  522.82 nm  f=0.0001  <S**2>=0.000
     240 -> 242        0.53638
     241 -> 243        0.44443

 Excited State   3:      Singlet-A      3.0799 eV  402.57 nm  f=0.2320  <S**2>=0.000
     237 -> 242        0.45993
     237 -> 243        0.13216
     237 -> 244       -0.27393
     239 -> 242        0.11891
     240 -> 242        0.23640
     241 -> 243       -0.31553

 Excited State   4:      Singlet-A      3.1154 eV  397.98 nm  f=0.3572  <S**2>=0.000
     237 -> 242        0.34536
     237 -> 244       -0.20193
     239 -> 242       -0.24374
     240 -> 242       -0.29183
     241 -> 243        0.38955

 Excited State   5:      Singlet-A      3.1608 eV  392.26 nm  f=0.1310  <S**2>=0.000
     239 -> 242        0.59918
     239 -> 243       -0.16752
     240 -> 242       -0.20727
     241 -> 243        0.16656

 Excited State   6:      Singlet-A      3.3325 eV  372.05 nm  f=0.5457  <S**2>=0.000
     238 -> 242       -0.33940
     240 -> 243        0.53517
     241 -> 242        0.21361
     241 -> 244       -0.16167

 Excited State   7:      Singlet-A      3.3562 eV  369.42 nm  f=0.1818  <S**2>=0.000
     238 -> 242        0.57998
     239 -> 243        0.10070
     240 -> 243        0.32041
     241 -> 242        0.12386
     241 -> 244       -0.11206

 Excited State   8:      Singlet-A      3.6707 eV  337.77 nm  f=0.1442  <S**2>=0.000
     240 -> 242       -0.11077
     240 -> 243        0.18790
     241 -> 244        0.65410

 Excited State   9:      Singlet-A      3.7654 eV  329.27 nm  f=0.0043  <S**2>=0.000
     235 -> 242        0.10189
     238 -> 242       -0.13568
     238 -> 243        0.45535
     239 -> 243        0.49571

 Excited State  10:      Singlet-A      3.8596 eV  321.24 nm  f=0.2065  <S**2>=0.000
     235 -> 242        0.64231
     238 -> 243       -0.10906
     240 -> 242        0.10351
     240 -> 244        0.14490

 The electronic state is 1-A.
 Alpha  occ. eigenvalues --  -46.78329 -19.23403 -19.22607 -19.17389 -19.17216
 Alpha  occ. eigenvalues --  -19.14949 -14.37668 -14.35261 -14.35034 -14.34952
 Alpha  occ. eigenvalues --  -10.35204 -10.34722 -10.30000 -10.28547 -10.28482
 Alpha  occ. eigenvalues --  -10.26811 -10.26314 -10.25238 -10.24730 -10.24704
 Alpha  occ. eigenvalues --  -10.24604 -10.24383 -10.24167 -10.24112 -10.23861
 Alpha  occ. eigenvalues --  -10.23691 -10.23672 -10.23505 -10.23470 -10.23125
 Alpha  occ. eigenvalues --  -10.23077 -10.23008 -10.22934 -10.22905 -10.22874
 Alpha  occ. eigenvalues --  -10.22802 -10.22747 -10.22698 -10.22618 -10.22531
 Alpha  occ. eigenvalues --  -10.22521 -10.22328 -10.22215 -10.22199 -10.22169
 Alpha  occ. eigenvalues --  -10.22147 -10.22072 -10.21891 -10.21885 -10.21872
 Alpha  occ. eigenvalues --  -10.21664 -10.21534 -10.21411 -10.21373 -10.21325
 Alpha  occ. eigenvalues --  -10.21185 -10.21115 -10.20964 -10.20788 -10.20184
 Alpha  occ. eigenvalues --  -10.20170 -10.20044 -10.19950 -10.19904 -10.19748
 Alpha  occ. eigenvalues --   -3.07282  -1.82195  -1.81782  -1.81698  -1.14536
 Alpha  occ. eigenvalues --   -1.14440  -1.06256  -1.04913  -1.01253  -0.99016
 Alpha  occ. eigenvalues --   -0.97616  -0.96744  -0.95695  -0.88756  -0.86238
 Alpha  occ. eigenvalues --   -0.85251  -0.84962  -0.84396  -0.84092  -0.83761
 Alpha  occ. eigenvalues --   -0.83107  -0.82939  -0.82543  -0.81501  -0.80977
 Alpha  occ. eigenvalues --   -0.80325  -0.79392  -0.78683  -0.78354  -0.77474
 Alpha  occ. eigenvalues --   -0.77013  -0.76598  -0.75802  -0.75139  -0.74152
 Alpha  occ. eigenvalues --   -0.73302  -0.72304  -0.71729  -0.71362  -0.70302
 Alpha  occ. eigenvalues --   -0.70155  -0.69980  -0.69404  -0.68850  -0.68143
 Alpha  occ. eigenvalues --   -0.67546  -0.66913  -0.65864  -0.64975  -0.63967
 Alpha  occ. eigenvalues --   -0.62719  -0.62469  -0.61052  -0.60667  -0.60137
 Alpha  occ. eigenvalues --   -0.59977  -0.59473  -0.59049  -0.58976  -0.57911
 Alpha  occ. eigenvalues --   -0.56857  -0.55661  -0.55471  -0.55385  -0.54683
 Alpha  occ. eigenvalues --   -0.54402  -0.53978  -0.53746  -0.53556  -0.53179
 Alpha  occ. eigenvalues --   -0.52314  -0.51915  -0.51620  -0.51172  -0.51044
 Alpha  occ. eigenvalues --   -0.50957  -0.50602  -0.50241  -0.50072  -0.49767
 Alpha  occ. eigenvalues --   -0.49257  -0.48574  -0.48566  -0.47969  -0.47897
 Alpha  occ. eigenvalues --   -0.47800  -0.47354  -0.47183  -0.46853  -0.46740
 Alpha  occ. eigenvalues --   -0.46658  -0.46386  -0.46179  -0.46065  -0.45978
 Alpha  occ. eigenvalues --   -0.45525  -0.45376  -0.45077  -0.44995  -0.44428
 Alpha  occ. eigenvalues --   -0.44341  -0.44091  -0.43828  -0.43761  -0.43622
 Alpha  occ. eigenvalues --   -0.43109  -0.42900  -0.42766  -0.42662  -0.42497
 Alpha  occ. eigenvalues --   -0.42392  -0.42133  -0.41613  -0.41541  -0.41462
 Alpha  occ. eigenvalues --   -0.41206  -0.41005  -0.40754  -0.40479  -0.40309
 Alpha  occ. eigenvalues --   -0.40207  -0.40055  -0.39844  -0.39629  -0.39522
 Alpha  occ. eigenvalues --   -0.39362  -0.39175  -0.38957  -0.38862  -0.38546
 Alpha  occ. eigenvalues --   -0.38502  -0.38398  -0.38039  -0.37815  -0.37790
 Alpha  occ. eigenvalues --   -0.37460  -0.37323  -0.37263  -0.36919  -0.36622
 Alpha  occ. eigenvalues --   -0.36470  -0.36152  -0.35955  -0.35705  -0.35652
 Alpha  occ. eigenvalues --   -0.35595  -0.35394  -0.35292  -0.35243  -0.34868
 Alpha  occ. eigenvalues --   -0.34369  -0.34112  -0.34045  -0.33927  -0.33466
 Alpha  occ. eigenvalues --   -0.33394  -0.33314  -0.33298  -0.32955  -0.32701
 Alpha  occ. eigenvalues --   -0.32162  -0.32007  -0.31721  -0.30839  -0.30804
 Alpha  occ. eigenvalues --   -0.30676  -0.30478  -0.29337  -0.27830  -0.27176
 Alpha  occ. eigenvalues --   -0.26672  -0.26094  -0.25031  -0.24344  -0.21533
 Alpha  occ. eigenvalues --   -0.19519
 Alpha virt. eigenvalues --   -0.06295  -0.03917  -0.00367   0.02162   0.03539
 Alpha virt. eigenvalues --    0.04129   0.04749   0.04982   0.05077   0.05655
 Alpha virt. eigenvalues --    0.06667   0.08458   0.09279   0.09400   0.09752

 Mulliken charges:
               1
     1  Mg   0.804116
     2  C    0.128783
     3  C   -0.188133
     4  C   -0.166876
     5  C   -0.199782
     6  N   -0.644915
     7  C    0.285679
     8  C   -0.149045
     9  C   -0.144185
    10  C    0.358833
    11  C   -0.295511
    12  C   -0.165857
    13  C   -0.258702
    14  C    0.593856
    15  O   -0.435962
    16  O   -0.447529
    17  N   -0.701352
    18  C    0.330749
    19  C    0.032033
    20  C    0.027191
    21  C    0.293475
    22  C   -0.422378
    23  C   -0.071503
    24  C   -0.239883
    25  N   -0.663276
    26  C    0.298367
    27  C   -0.039557
    28  C    0.070297
    29  C    0.235507
    30  C   -0.371472
    31  C   -0.257992
    32  C   -0.326629
    33  N   -0.733198
    34  C    0.273246
    35  C   -0.006552
    36  C    0.133224
    37  C    0.256002
    38  C   -0.355282
    39  C    0.326260
    40  O   -0.513454
    41  C   -0.347192
    42  C    0.626370
    43  O   -0.483014
    44  O   -0.415536
    45  C   -0.093679
    46  C    0.014449
    47  C   -0.122546
    48  C    0.147917
    49  C   -0.363657
    50  C   -0.229909
    51  C   -0.159082
    52  C   -0.152652
    53  C   -0.050474
    54  C   -0.322538
    55  C   -0.193945
    56  C   -0.179863
    57  C   -0.159118
    58  C   -0.054269
    59  C   -0.284376
    60  C   -0.165499
    61  C   -0.178379
    62  C   -0.135810
    63  C   -0.055285
    64  C   -0.291111
    65  C   -0.334578
    66  H    0.074212
    67  H    0.095559
    68  H    0.081499
    69  H    0.129760
    70  H    0.088214
    71  H    0.112310
    72  H    0.096542
    73  H    0.130684
    74  H    0.110847
    75  H    0.087063
    76  H    0.123015
    77  H    0.143525
    78  H    0.138191
    79  H    0.129305
    80  H    0.097236
    81  H    0.096463
    82  H    0.090888
    83  H    0.112442
    84  H    0.120598
    85  H    0.071224
    86  H    0.130719
    87  H    0.119308
    88  H    0.118533
    89  H    0.114155
    90  H    0.134331
    91  H    0.119265
    92  H    0.079094
    93  H    0.154132
    94  H    0.134790
    95  H    0.167762
    96  H    0.117710
    97  H    0.148667
    98  H    0.127419
    99  H    0.134522
   100  H    0.089415
   101  H    0.082185
   102  H    0.109550
   103  H    0.100035
   104  H    0.118653
   105  H    0.078939
   106  H    0.067203
   107  H    0.084714
   108  H    0.096109
   109  H    0.098541
   110  H    0.062170
   111  H    0.070629
   112  H    0.110501
   113  H    0.103564
   114  H    0.108911
   115  H    0.094093
   116  H    0.086139
   117  H    0.111617
   118  H    0.099503
   119  H    0.075607
   120  H    0.075067
   121  H    0.021488
   122  H    0.100246
   123  H    0.110044
   124  H    0.081194
   125  H    0.080859
   126  H    0.073087
   127  H    0.103048
   128  H    0.098421
   129  H    0.057777
   130  H    0.107515
   131  H    0.101655
   132  H    0.096186
   133  H    0.110675
   134  H    0.069702
   135  H    0.103343
   136  H    0.068036
   137  H    0.098778
 Sum of Mulliken charges =  -0.00000

 Dipole moment (field-independent basis, Debye):
    X=              1.7389    Y=              3.8646    Z=              0.8189  Tot=              4.3162
 Quadrupole moment (field-independent basis, Debye-Ang):
   XX=           -342.9371   YY=           -392.5052   ZZ=           -398.2733
   XY=            -21.6067   XZ=             11.7944   YZ=             -4.3657

 Normal termination of Gaussian 16 at Wed Oct 23 06:12:35 2019.
