 Gaussian 16, Revision A.03,
 Gaussian 16:  ES64L-G16RevA.03 25-Dec-2016

 ----------------------------------------------------------------------
 # td=(NStates=10) iop(3/107=0140000000,3/108=0140000000) CAM-B3LYP/6-3
 1G(d,p)
 ----------------------------------------------------------------------

 --
 TD
 --
 Symbolic Z-matrix:
 Charge =  0 Multiplicity = 1

                         Standard orientation:
 ---------------------------------------------------------------------
 Center     Atomic      Atomic             Coordinates (Angstroms)
 Number     Number       Type             X           Y           Z
 ---------------------------------------------------------------------
      1         12           0       -7.106481    0.554744    0.157083
      2          6           0       -4.875377   -2.091005    0.461552
      3          6           0       -4.734785    2.827041    1.208053
      4          6           0       -9.339863    3.083541   -0.293807
      5          6           0       -9.474422   -1.706462   -0.789469
      6          7           0       -5.116845    0.369629    0.842397
      7          6           0       -4.384817   -0.827713    0.769596
      8          6           0       -2.939557   -0.444842    1.270235
      9          6           0       -3.098297    0.992839    1.832205
     10          6           0       -4.353681    1.431234    1.218926
     11          6           0       -2.987433    1.090575    3.348680
     12          6           0       -1.949714   -0.674410    0.132962
     13          6           0       -0.535978   -0.607501    0.562380
     14          6           0        0.450435   -0.681018   -0.689498
     15          8           0        0.099767   -0.869136   -1.860471
     16          8           0        1.643044   -0.449264   -0.259148
     17          7           0       -7.076409    2.687872    0.354001
     18          6           0       -6.055897    3.370012    0.821871
     19          6           0       -6.418056    4.745789    0.926975
     20          6           0       -7.664380    4.807175    0.537632
     21          6           0       -8.177948    3.437220    0.173238
     22          6           0       -5.441519    5.814255    1.262331
     23          6           0       -8.561955    6.026968    0.408544
     24          6           0       -8.116161    7.204663   -0.072202
     25          7           0       -9.035494    0.695406   -0.416501
     26          6           0       -9.813273    1.868406   -0.586751
     27          6           0      -11.186336    1.502274   -1.040896
     28          6           0      -11.217694    0.110613   -1.207902
     29          6           0       -9.860296   -0.330550   -0.818161
     30          6           0      -12.237171    2.495390   -1.304577
     31          6           0      -12.348827   -0.744659   -1.651006
     32          6           0      -12.303153   -0.963325   -3.134400
     33          7           0       -7.270834   -1.386616   -0.150917
     34          6           0       -8.209844   -2.123512   -0.553256
     35          6           0       -7.830134   -3.564048   -0.572600
     36          6           0       -6.562576   -3.536901   -0.186264
     37          6           0       -6.201188   -2.143559    0.102999
     38          6           0       -8.690178   -4.653983   -0.859423
     39          6           0       -5.336578   -4.273195    0.149123
     40          8           0       -5.241406   -5.515906    0.077242
     41          6           0       -4.206672   -3.414935    0.445179
     42          6           0       -3.530663   -3.776668    1.797022
     43          8           0       -3.722343   -3.343560    2.875061
     44          8           0       -2.597771   -4.705562    1.547581
     45          6           0       -1.955598   -5.234893    2.674336
     46          6           0        2.767700   -0.534309   -1.288836
     47          6           0        4.125317   -0.306145   -0.673125
     48          6           0        5.102770    0.454473   -1.021550
     49          6           0        5.030632    1.384063   -2.242489
     50          6           0        6.379718    0.470426   -0.184729
     51          6           0        7.529309   -0.208484   -0.976652
     52          6           0        8.878663   -0.181840   -0.107827
     53          6           0       10.149766   -0.630541   -0.774816
     54          6           0       10.071838   -2.146331   -1.066497
     55          6           0       11.426752   -0.364176    0.094843
     56          6           0       12.706256   -0.571965   -0.670316
     57          6           0       13.925361   -0.082401    0.119167
     58          6           0       15.373366   -0.161048   -0.541977
     59          6           0       15.684855   -1.541459   -1.091485
     60          6           0       16.459437    0.357715    0.473351
     61          6           0       17.807308    0.666356   -0.204078
     62          6           0       18.738240    1.253045    0.750028
     63          6           0       20.103540    1.365562    0.244618
     64          6           0       20.381792    2.203039   -0.952100
     65          6           0       21.139991    1.835149    1.315052
     66          1           0       -3.907862    3.379067    1.538507
     67          1           0       -9.941402    3.995751   -0.500612
     68          1           0      -10.178575   -2.535881   -1.190489
     69          1           0       -2.712151   -1.156335    2.098772
     70          1           0       -2.301983    1.644222    1.476512
     71          1           0       -2.026040    0.846217    3.809944
     72          1           0       -3.269363    2.066309    3.785442
     73          1           0       -3.705285    0.425406    3.780788
     74          1           0       -2.207140   -1.675599   -0.262281
     75          1           0       -1.899986   -0.167324   -0.815553
     76          1           0       -0.195693    0.265909    1.256677
     77          1           0       -0.211559   -1.291988    1.321385
     78          1           0       -4.923977    6.096306    0.288908
     79          1           0       -5.940068    6.783057    1.560764
     80          1           0       -4.812701    5.361698    1.997858
     81          1           0       -9.612997    5.955171    0.580387
     82          1           0       -8.703797    8.111517   -0.189453
     83          1           0       -7.166452    7.444950   -0.272747
     84          1           0      -12.061371    3.168455   -2.465128
     85          1           0      -13.238147    2.048413   -1.295367
     86          1           0      -12.034710    3.304955   -0.475693
     87          1           0      -12.435341   -1.673875   -1.251086
     88          1           0      -13.307262   -0.043813   -1.690200
     89          1           0      -12.975495   -1.653960   -3.712902
     90          1           0      -12.507254    0.123816   -3.651692
     91          1           0      -11.262990   -1.355930   -3.592684
     92          1           0       -9.475768   -4.130426   -1.741812
     93          1           0       -8.197027   -5.458219   -1.190299
     94          1           0       -9.561542   -5.064977   -0.041807
     95          1           0       -3.366230   -3.469470   -0.204935
     96          1           0       -1.203457   -4.603205    3.112187
     97          1           0       -2.704640   -5.372993    3.474974
     98          1           0       -1.394669   -6.155149    2.561483
     99          1           0        2.682958   -1.590524   -1.733851
    100          1           0        2.509686    0.102848   -2.005558
    101          1           0        4.010285   -0.978159    0.168046
    102          1           0        4.199947    1.279768   -2.767060
    103          1           0        5.621006    2.266824   -1.945328
    104          1           0        5.808174    0.992185   -2.899188
    105          1           0        6.402875    1.540605    0.166747
    106          1           0        6.283886    0.035718    0.887674
    107          1           0        7.266724   -1.232937   -1.168149
    108          1           0        7.745298    0.227174   -1.847301
    109          1           0        8.969027    0.898443    0.151636
    110          1           0        8.677044   -0.710353    0.770794
    111          1           0       10.291257   -0.170130   -1.995644
    112          1           0        9.296422   -2.261792   -1.877049
    113          1           0       10.972766   -2.744960   -1.638699
    114          1           0        9.743574   -2.742683   -0.250288
    115          1           0       11.511602    0.805363    0.237950
    116          1           0       11.447595   -1.237444    0.888085
    117          1           0       12.754831   -1.555026   -1.027688
    118          1           0       12.622765    0.150508   -1.511623
    119          1           0       13.833366    0.934814    0.457558
    120          1           0       14.073152   -0.552166    1.202069
    121          1           0       15.402466    0.397758   -1.479122
    122          1           0       15.626713   -2.522008   -0.513558
    123          1           0       14.857741   -1.659941   -1.924260
    124          1           0       16.632258   -1.643168   -1.588496
    125          1           0       16.078822    1.390213    0.785192
    126          1           0       16.486379   -0.184065    1.323406
    127          1           0       18.267721   -0.382101   -0.403075
    128          1           0       17.632893    0.880014   -1.173724
    129          1           0       18.375009    2.323016    1.073162
    130          1           0       18.776177    0.705609    1.703250
    131          1           0       20.363007    0.426936    0.094717
    132          1           0       19.962834    3.267656   -0.802809
    133          1           0       21.568972    2.486396   -1.089922
    134          1           0       19.824717    1.912747   -1.756594
    135          1           0       21.160970    1.323691    2.214906
    136          1           0       22.275733    1.739594    1.013865
    137          1           0       20.952647    3.058304    1.564847
 ---------------------------------------------------------------------

 SCF Done:  E(RCAM-B3LYP) =  -2933.47446462     A.U. after   15 cycles

 Excitation energies and oscillator strengths:

 Excited State   1:      Singlet-A      2.0746 eV  597.63 nm  f=0.2479  <S**2>=0.000
     240 -> 243        0.23644
     241 -> 242        0.66381
 This state for optimization and/or second-order correction.
 Total Energy, E(TD-HF/TD-DFT) =  -2933.39822431
 Copying the excited state density for this state as the 1-particle RhoCI density.

 Excited State   2:      Singlet-A      2.4010 eV  516.39 nm  f=0.0022  <S**2>=0.000
     240 -> 242        0.50997
     241 -> 243       -0.47811

 Excited State   3:      Singlet-A      3.1847 eV  389.31 nm  f=0.0627  <S**2>=0.000
     237 -> 242        0.56448
     237 -> 244       -0.33169
     240 -> 242        0.12923
     241 -> 243        0.14937

 Excited State   4:      Singlet-A      3.1931 eV  388.28 nm  f=0.5737  <S**2>=0.000
     237 -> 242       -0.18855
     237 -> 244        0.10785
     240 -> 242        0.40377
     240 -> 244       -0.13895
     241 -> 243        0.45452
     241 -> 244       -0.17856

 Excited State   5:      Singlet-A      3.4222 eV  362.29 nm  f=0.1341  <S**2>=0.000
     238 -> 242       -0.19903
     238 -> 243       -0.11514
     239 -> 242        0.54675
     240 -> 242        0.11499
     240 -> 243        0.29762
     241 -> 242       -0.11413
     241 -> 244        0.12672

 Excited State   6:      Singlet-A      3.4273 eV  361.76 nm  f=0.3456  <S**2>=0.000
     238 -> 242       -0.17896
     239 -> 242       -0.38855
     239 -> 243        0.12134
     240 -> 243        0.39328
     241 -> 242       -0.15469
     241 -> 244        0.32047

 Excited State   7:      Singlet-A      3.5413 eV  350.11 nm  f=0.1115  <S**2>=0.000
     238 -> 242        0.61012
     239 -> 243       -0.11485
     240 -> 242        0.12035
     240 -> 243        0.18442
     241 -> 244        0.15197

 Excited State   8:      Singlet-A      3.6733 eV  337.53 nm  f=0.3740  <S**2>=0.000
     240 -> 242        0.10836
     240 -> 243       -0.37269
     241 -> 242        0.11732
     241 -> 244        0.54672

 Excited State   9:      Singlet-A      3.9297 eV  315.51 nm  f=0.0816  <S**2>=0.000
     236 -> 242        0.62650
     238 -> 243        0.13755
     239 -> 243       -0.21590

 Excited State  10:      Singlet-A      3.9754 eV  311.88 nm  f=0.1285  <S**2>=0.000
     236 -> 242        0.21794
     238 -> 242        0.13600
     238 -> 243       -0.31969
     239 -> 243        0.52896
     240 -> 243       -0.11504
     240 -> 244        0.11700

 The electronic state is 1-A.
 Alpha  occ. eigenvalues --  -46.79630 -19.22786 -19.22744 -19.17785 -19.16088
 Alpha  occ. eigenvalues --  -19.15260 -14.37469 -14.35293 -14.35132 -14.34359
 Alpha  occ. eigenvalues --  -10.35233 -10.34407 -10.29948 -10.27645 -10.26579
 Alpha  occ. eigenvalues --  -10.26438 -10.26053 -10.24937 -10.24708 -10.24531
 Alpha  occ. eigenvalues --  -10.24394 -10.24351 -10.24122 -10.23904 -10.23600
 Alpha  occ. eigenvalues --  -10.23571 -10.23494 -10.23284 -10.23269 -10.23172
 Alpha  occ. eigenvalues --  -10.22916 -10.22879 -10.22782 -10.22741 -10.22562
 Alpha  occ. eigenvalues --  -10.22435 -10.22421 -10.22392 -10.22258 -10.22188
 Alpha  occ. eigenvalues --  -10.22059 -10.21980 -10.21930 -10.21787 -10.21726
 Alpha  occ. eigenvalues --  -10.21573 -10.21554 -10.21539 -10.21444 -10.21430
 Alpha  occ. eigenvalues --  -10.21353 -10.21301 -10.21266 -10.21006 -10.20984
 Alpha  occ. eigenvalues --  -10.20967 -10.20646 -10.20592 -10.20508 -10.20465
 Alpha  occ. eigenvalues --  -10.20363 -10.20342 -10.20311 -10.20235 -10.19888
 Alpha  occ. eigenvalues --   -3.08315  -1.83259  -1.82780  -1.82728  -1.15566
 Alpha  occ. eigenvalues --   -1.13556  -1.06711  -1.04391  -1.03089  -1.02318
 Alpha  occ. eigenvalues --   -0.99621  -0.97672  -0.96021  -0.89973  -0.87059
 Alpha  occ. eigenvalues --   -0.86536  -0.85263  -0.84694  -0.84580  -0.83945
 Alpha  occ. eigenvalues --   -0.83441  -0.83330  -0.83297  -0.82150  -0.81364
 Alpha  occ. eigenvalues --   -0.81061  -0.79815  -0.79251  -0.78390  -0.78092
 Alpha  occ. eigenvalues --   -0.77629  -0.77158  -0.76142  -0.75519  -0.73768
 Alpha  occ. eigenvalues --   -0.73408  -0.72671  -0.72286  -0.71458  -0.70765
 Alpha  occ. eigenvalues --   -0.70167  -0.70139  -0.69892  -0.69384  -0.68126
 Alpha  occ. eigenvalues --   -0.67561  -0.66206  -0.65184  -0.64751  -0.63944
 Alpha  occ. eigenvalues --   -0.63847  -0.62999  -0.61389  -0.61258  -0.61020
 Alpha  occ. eigenvalues --   -0.60762  -0.59897  -0.59797  -0.59639  -0.58466
 Alpha  occ. eigenvalues --   -0.58030  -0.57181  -0.56681  -0.55985  -0.55668
 Alpha  occ. eigenvalues --   -0.55120  -0.54681  -0.54312  -0.53404  -0.53124
 Alpha  occ. eigenvalues --   -0.52786  -0.52133  -0.51995  -0.51690  -0.51562
 Alpha  occ. eigenvalues --   -0.51146  -0.50791  -0.50449  -0.49998  -0.49573
 Alpha  occ. eigenvalues --   -0.49432  -0.49000  -0.48770  -0.48591  -0.48410
 Alpha  occ. eigenvalues --   -0.48071  -0.47800  -0.47754  -0.47430  -0.47274
 Alpha  occ. eigenvalues --   -0.47149  -0.46891  -0.46839  -0.46630  -0.46391
 Alpha  occ. eigenvalues --   -0.46112  -0.45794  -0.45498  -0.45249  -0.45011
 Alpha  occ. eigenvalues --   -0.44494  -0.44370  -0.44301  -0.43950  -0.43886
 Alpha  occ. eigenvalues --   -0.43640  -0.43348  -0.43262  -0.43013  -0.42702
 Alpha  occ. eigenvalues --   -0.42426  -0.42317  -0.42158  -0.42055  -0.41890
 Alpha  occ. eigenvalues --   -0.41572  -0.41423  -0.41195  -0.41123  -0.40745
 Alpha  occ. eigenvalues --   -0.40509  -0.40200  -0.40118  -0.39978  -0.39774
 Alpha  occ. eigenvalues --   -0.39652  -0.39616  -0.39301  -0.39013  -0.38766
 Alpha  occ. eigenvalues --   -0.38659  -0.38253  -0.38174  -0.37969  -0.37623
 Alpha  occ. eigenvalues --   -0.37508  -0.37460  -0.37141  -0.36968  -0.36678
 Alpha  occ. eigenvalues --   -0.36627  -0.36473  -0.36418  -0.36278  -0.35933
 Alpha  occ. eigenvalues --   -0.35782  -0.35693  -0.35509  -0.34548  -0.34336
 Alpha  occ. eigenvalues --   -0.34299  -0.34177  -0.33863  -0.33729  -0.33642
 Alpha  occ. eigenvalues --   -0.33504  -0.33011  -0.32891  -0.32838  -0.32652
 Alpha  occ. eigenvalues --   -0.32431  -0.32048  -0.31545  -0.31484  -0.31262
 Alpha  occ. eigenvalues --   -0.30229  -0.30061  -0.29519  -0.28199  -0.28068
 Alpha  occ. eigenvalues --   -0.27351  -0.26449  -0.25398  -0.25043  -0.21771
 Alpha  occ. eigenvalues --   -0.19274
 Alpha virt. eigenvalues --   -0.06156  -0.03545  -0.00395   0.02926   0.04213
 Alpha virt. eigenvalues --    0.04521   0.04727   0.04943   0.05065   0.05422
 Alpha virt. eigenvalues --    0.06709   0.07617   0.08933   0.09142   0.09532

 Mulliken charges:
               1
     1  Mg   0.813554
     2  C    0.093513
     3  C   -0.178558
     4  C   -0.182220
     5  C   -0.181695
     6  N   -0.656670
     7  C    0.270049
     8  C   -0.178435
     9  C   -0.132261
    10  C    0.335303
    11  C   -0.320923
    12  C   -0.168056
    13  C   -0.274395
    14  C    0.608318
    15  O   -0.505112
    16  O   -0.453951
    17  N   -0.711075
    18  C    0.321332
    19  C    0.031874
    20  C   -0.020981
    21  C    0.328842
    22  C   -0.363816
    23  C   -0.096341
    24  C   -0.229595
    25  N   -0.696811
    26  C    0.308787
    27  C    0.044923
    28  C    0.062310
    29  C    0.287315
    30  C   -0.355622
    31  C   -0.240731
    32  C   -0.298292
    33  N   -0.745865
    34  C    0.315179
    35  C    0.016511
    36  C    0.067681
    37  C    0.290565
    38  C   -0.359467
    39  C    0.363286
    40  O   -0.491775
    41  C   -0.286812
    42  C    0.614266
    43  O   -0.442945
    44  O   -0.426942
    45  C   -0.099321
    46  C   -0.006752
    47  C   -0.122469
    48  C    0.106427
    49  C   -0.350801
    50  C   -0.235054
    51  C   -0.179731
    52  C   -0.172029
    53  C   -0.039513
    54  C   -0.322288
    55  C   -0.154730
    56  C   -0.177002
    57  C   -0.167382
    58  C   -0.065265
    59  C   -0.309773
    60  C   -0.171051
    61  C   -0.168411
    62  C   -0.152829
    63  C   -0.032093
    64  C   -0.297238
    65  C   -0.307504
    66  H    0.072120
    67  H    0.084551
    68  H    0.075032
    69  H    0.117797
    70  H    0.104000
    71  H    0.109837
    72  H    0.106176
    73  H    0.127520
    74  H    0.103393
    75  H    0.136043
    76  H    0.113305
    77  H    0.125436
    78  H    0.121845
    79  H    0.113906
    80  H    0.116550
    81  H    0.091235
    82  H    0.094562
    83  H    0.096784
    84  H    0.072772
    85  H    0.117821
    86  H    0.109588
    87  H    0.116279
    88  H    0.099714
    89  H    0.104669
    90  H    0.080108
    91  H    0.084592
    92  H    0.072506
    93  H    0.148435
    94  H    0.107183
    95  H    0.180866
    96  H    0.115621
    97  H    0.131047
    98  H    0.127467
    99  H    0.127167
   100  H    0.126801
   101  H    0.089282
   102  H    0.121507
   103  H    0.123462
   104  H    0.123998
   105  H    0.100183
   106  H    0.096499
   107  H    0.112586
   108  H    0.109381
   109  H    0.090510
   110  H    0.102838
   111  H    0.034401
   112  H    0.098503
   113  H    0.083984
   114  H    0.110770
   115  H    0.082095
   116  H    0.088840
   117  H    0.104812
   118  H    0.088608
   119  H    0.091732
   120  H    0.063342
   121  H    0.086234
   122  H    0.090990
   123  H    0.079611
   124  H    0.102439
   125  H    0.074460
   126  H    0.101450
   127  H    0.070228
   128  H    0.104931
   129  H    0.066646
   130  H    0.097186
   131  H    0.100525
   132  H    0.085191
   133  H    0.088768
   134  H    0.104496
   135  H    0.101940
   136  H    0.082711
   137  H    0.062681
 Sum of Mulliken charges =  -0.00000

 Dipole moment (field-independent basis, Debye):
    X=              4.3533    Y=              2.5773    Z=              0.7571  Tot=              5.1154
 Quadrupole moment (field-independent basis, Debye-Ang):
   XX=           -372.5795   YY=           -399.3611   ZZ=           -398.2766
   XY=            -22.0621   XZ=              3.0185   YZ=             -4.7698

 Normal termination of Gaussian 16 at Thu Oct 24 01:47:54 2019.
