 Gaussian 16, Revision A.03,
 Gaussian 16:  ES64L-G16RevA.03 25-Dec-2016

 ----------------------------------------------------------------------
 # td=(NStates=10) iop(3/107=0140000000,3/108=0140000000) CAM-B3LYP/6-3
 1G(d,p)
 ----------------------------------------------------------------------

 --
 TD
 --
 Symbolic Z-matrix:
 Charge =  0 Multiplicity = 1

                         Standard orientation:
 ---------------------------------------------------------------------
 Center     Atomic      Atomic             Coordinates (Angstroms)
 Number     Number       Type             X           Y           Z
 ---------------------------------------------------------------------
      1         12           0       -7.140731    0.706912   -0.017622
      2          6           0       -4.845247   -2.004266    0.591908
      3          6           0       -4.844978    2.878631    1.310210
      4          6           0       -9.401268    3.068822   -0.399823
      5          6           0       -9.594424   -1.797585   -0.848198
      6          7           0       -5.084673    0.424738    0.773996
      7          6           0       -4.370937   -0.747266    0.876946
      8          6           0       -2.937853   -0.396739    1.324911
      9          6           0       -2.982420    1.019581    1.793060
     10          6           0       -4.411563    1.487702    1.190197
     11          6           0       -3.033420    1.298567    3.228536
     12          6           0       -1.940319   -0.643697    0.200195
     13          6           0       -0.476510   -0.447536    0.636221
     14          6           0        0.436006   -0.771486   -0.520085
     15          8           0        0.097033   -1.132911   -1.655307
     16          8           0        1.726255   -0.506347   -0.205827
     17          7           0       -7.139409    2.570875    0.326125
     18          6           0       -6.102446    3.350425    0.967756
     19          6           0       -6.504236    4.772520    0.984199
     20          6           0       -7.771511    4.797400    0.422668
     21          6           0       -8.184477    3.457996    0.076884
     22          6           0       -5.602810    5.896393    1.370399
     23          6           0       -8.602277    5.982185    0.347853
     24          6           0       -8.320319    7.267936    0.280560
     25          7           0       -9.106329    0.614883   -0.483323
     26          6           0       -9.899492    1.806289   -0.704501
     27          6           0      -11.250981    1.525124   -1.259863
     28          6           0      -11.269568    0.105987   -1.305804
     29          6           0       -9.950301   -0.398093   -0.934076
     30          6           0      -12.308919    2.430279   -1.529987
     31          6           0      -12.309118   -0.832173   -1.813916
     32          6           0      -12.138500   -1.168307   -3.263512
     33          7           0       -7.216887   -1.352247   -0.320044
     34          6           0       -8.264599   -2.243375   -0.586038
     35          6           0       -7.822505   -3.530577   -0.528967
     36          6           0       -6.407386   -3.513505   -0.117838
     37          6           0       -6.149249   -2.131934    0.085942
     38          6           0       -8.726937   -4.729260   -0.867682
     39          6           0       -5.277684   -4.433999    0.295397
     40          8           0       -5.139204   -5.610420    0.229512
     41          6           0       -4.188066   -3.285502    0.567179
     42          6           0       -3.551072   -3.694162    1.890087
     43          8           0       -3.807231   -3.197526    2.995707
     44          8           0       -2.776626   -4.762886    1.745456
     45          6           0       -2.183963   -5.239458    3.028660
     46          6           0        2.679652   -0.584904   -1.239490
     47          6           0        4.079380   -0.302373   -0.577862
     48          6           0        5.098993    0.472713   -0.992010
     49          6           0        5.011245    1.329767   -2.206578
     50          6           0        6.435685    0.351918   -0.225646
     51          6           0        7.561475   -0.211169   -1.077886
     52          6           0        8.907591   -0.246932   -0.221207
     53          6           0       10.223509   -0.466083   -0.994847
     54          6           0       10.284177   -1.997698   -1.506227
     55          6           0       11.462814   -0.169140   -0.010612
     56          6           0       12.856997   -0.432406   -0.737651
     57          6           0       14.075783   -0.044632    0.119388
     58          6           0       15.377104   -0.198110   -0.493547
     59          6           0       15.718784   -1.474685   -1.074797
     60          6           0       16.437847    0.365214    0.470349
     61          6           0       17.905014    0.459738   -0.137912
     62          6           0       18.901647    1.056887    0.775715
     63          6           0       20.301192    1.278177    0.229855
     64          6           0       20.404091    2.198376   -0.962889
     65          6           0       21.215676    1.816568    1.381847
     66          1           0       -4.023318    3.306836    1.618033
     67          1           0      -10.127695    3.901452   -0.555304
     68          1           0      -10.373179   -2.559074   -1.506667
     69          1           0       -2.713636   -0.932958    2.344513
     70          1           0       -2.332732    1.749461    1.303671
     71          1           0       -1.971531    0.914250    3.568828
     72          1           0       -3.054500    2.409740    3.522224
     73          1           0       -3.797784    0.816424    3.746151
     74          1           0       -2.045509   -1.669959   -0.012418
     75          1           0       -2.127567    0.158907   -0.535563
     76          1           0       -0.111959    0.575166    0.964234
     77          1           0       -0.298302   -0.895071    1.460324
     78          1           0       -4.887448    6.028863    0.577679
     79          1           0       -6.066019    6.759887    1.683179
     80          1           0       -4.827749    5.581936    2.047084
     81          1           0       -9.577107    5.605116    0.352545
     82          1           0       -9.053674    7.993811    0.084241
     83          1           0       -7.112978    7.649352    0.527425
     84          1           0      -12.083314    3.183507   -2.273670
     85          1           0      -13.313062    2.090808   -1.932365
     86          1           0      -12.685764    3.130110   -0.807156
     87          1           0      -12.110819   -1.752685   -1.120452
     88          1           0      -13.423439   -0.530332   -1.794240
     89          1           0      -12.908089   -1.949729   -3.563512
     90          1           0      -12.181348   -0.374034   -3.850458
     91          1           0      -11.005819   -1.557746   -3.392137
     92          1           0       -8.826405   -4.775173   -1.957798
     93          1           0       -8.371040   -5.766573   -0.378880
     94          1           0       -9.542504   -4.572798   -0.117195
     95          1           0       -3.389864   -3.431174   -0.316529
     96          1           0       -1.594465   -4.412015    3.401219
     97          1           0       -2.930480   -5.556021    3.579069
     98          1           0       -1.457045   -5.871678    2.853481
     99          1           0        2.641471   -1.419879   -1.900961
    100          1           0        2.565983    0.226813   -2.168972
    101          1           0        4.243338   -1.013099    0.187250
    102          1           0        4.029053    1.495670   -2.611538
    103          1           0        5.360165    2.466889   -2.146340
    104          1           0        5.623489    1.016489   -2.999490
    105          1           0        6.728901    1.522709   -0.042032
    106          1           0        6.227222   -0.163844    0.880228
    107          1           0        7.105613   -1.145454   -1.556053
    108          1           0        7.684898    0.269352   -1.887383
    109          1           0        8.901088    0.827716    0.354282
    110          1           0        8.770147   -0.842416    0.594341
    111          1           0       10.400387    0.061124   -1.741445
    112          1           0        9.168845   -2.159483   -1.898160
    113          1           0       11.121330   -1.947168   -2.295024
    114          1           0       10.360032   -2.762517   -0.760052
    115          1           0       11.461025    0.765130    0.324921
    116          1           0       11.460906   -1.005880    0.938872
    117          1           0       12.664650   -1.320018   -1.196273
    118          1           0       12.960458    0.218681   -1.723880
    119          1           0       13.821300    0.925462    0.616083
    120          1           0       13.962102   -0.759540    0.929263
    121          1           0       15.363125    0.471074   -1.296188
    122          1           0       15.971052   -2.089896   -0.034220
    123          1           0       14.722103   -1.924887   -1.416438
    124          1           0       16.515972   -1.647144   -1.712076
    125          1           0       16.021299    1.412398    0.542688
    126          1           0       16.288708   -0.173298    1.503957
    127          1           0       18.250455   -0.491768   -0.489955
    128          1           0       17.639021    1.250223   -1.069267
    129          1           0       18.743172    2.033060    1.308153
    130          1           0       18.994400    0.350753    1.680188
    131          1           0       20.804436    0.321524   -0.058926
    132          1           0       20.335807    3.354706   -0.746905
    133          1           0       21.408686    2.375516   -1.279964
    134          1           0       19.708840    1.897639   -1.752634
    135          1           0       21.212463    1.197984    2.195928
    136          1           0       22.309339    1.649975    1.029469
    137          1           0       20.997038    2.867977    1.592016
 ---------------------------------------------------------------------

 SCF Done:  E(RCAM-B3LYP) =  -2933.43100070     A.U. after   16 cycles

 Excitation energies and oscillator strengths:

 Excited State   1:      Singlet-A      2.0301 eV  610.74 nm  f=0.2039  <S**2>=0.000
     240 -> 243        0.25460
     241 -> 242        0.65584
 This state for optimization and/or second-order correction.
 Total Energy, E(TD-HF/TD-DFT) =  -2933.35639773
 Copying the excited state density for this state as the 1-particle RhoCI density.

 Excited State   2:      Singlet-A      2.2973 eV  539.68 nm  f=0.0145  <S**2>=0.000
     240 -> 242        0.55331
     241 -> 243       -0.42197

 Excited State   3:      Singlet-A      2.9490 eV  420.43 nm  f=0.0292  <S**2>=0.000
     237 -> 242       -0.15842
     238 -> 242       -0.40219
     239 -> 242        0.49520
     241 -> 243        0.18898

 Excited State   4:      Singlet-A      3.0681 eV  404.11 nm  f=0.0111  <S**2>=0.000
     238 -> 242        0.50185
     239 -> 242        0.45180

 Excited State   5:      Singlet-A      3.1557 eV  392.89 nm  f=0.6251  <S**2>=0.000
     236 -> 242        0.12489
     237 -> 242       -0.23791
     238 -> 242        0.20609
     239 -> 242       -0.13305
     240 -> 242        0.35886
     241 -> 243        0.47313

 Excited State   6:      Singlet-A      3.2477 eV  381.76 nm  f=0.3778  <S**2>=0.000
     237 -> 242        0.54005
     237 -> 243       -0.15394
     239 -> 243       -0.13559
     240 -> 242        0.18635
     240 -> 243        0.27634
     241 -> 243        0.17723

 Excited State   7:      Singlet-A      3.4053 eV  364.10 nm  f=0.1998  <S**2>=0.000
     236 -> 242        0.56902
     236 -> 244        0.19804
     237 -> 242       -0.11404
     240 -> 242       -0.13044
     240 -> 243        0.23866
     241 -> 243       -0.14645

 Excited State   8:      Singlet-A      3.4266 eV  361.82 nm  f=0.5241  <S**2>=0.000
     236 -> 242       -0.29366
     237 -> 242       -0.26362
     240 -> 243        0.51103
     241 -> 242       -0.21002

 Excited State   9:      Singlet-A      3.7783 eV  328.15 nm  f=0.0296  <S**2>=0.000
     237 -> 242        0.12927
     237 -> 243        0.22002
     238 -> 243       -0.15609
     239 -> 243        0.58509
     241 -> 244       -0.18384

 Excited State  10:      Singlet-A      3.8594 eV  321.26 nm  f=0.0944  <S**2>=0.000
     237 -> 243        0.14843
     238 -> 243        0.23798
     239 -> 243        0.16753
     240 -> 243        0.14194
     241 -> 244        0.59188

 The electronic state is 1-A.
 Alpha  occ. eigenvalues --  -46.79016 -19.22833 -19.21689 -19.16829 -19.16763
 Alpha  occ. eigenvalues --  -19.15292 -14.37810 -14.35451 -14.35404 -14.34551
 Alpha  occ. eigenvalues --  -10.34942 -10.33730 -10.30834 -10.28403 -10.26715
 Alpha  occ. eigenvalues --  -10.26589 -10.25959 -10.25648 -10.25337 -10.25093
 Alpha  occ. eigenvalues --  -10.24887 -10.24769 -10.24561 -10.24218 -10.23881
 Alpha  occ. eigenvalues --  -10.23817 -10.23429 -10.23259 -10.23090 -10.22982
 Alpha  occ. eigenvalues --  -10.22851 -10.22830 -10.22701 -10.22602 -10.22584
 Alpha  occ. eigenvalues --  -10.22551 -10.22522 -10.22512 -10.22420 -10.22416
 Alpha  occ. eigenvalues --  -10.22279 -10.22100 -10.22041 -10.22031 -10.21959
 Alpha  occ. eigenvalues --  -10.21885 -10.21794 -10.21726 -10.21714 -10.21683
 Alpha  occ. eigenvalues --  -10.21526 -10.21521 -10.21442 -10.21426 -10.21336
 Alpha  occ. eigenvalues --  -10.20955 -10.20878 -10.20866 -10.20809 -10.20582
 Alpha  occ. eigenvalues --  -10.20572 -10.20537 -10.20093 -10.19797 -10.19691
 Alpha  occ. eigenvalues --   -3.07813  -1.82722  -1.82315  -1.82222  -1.13482
 Alpha  occ. eigenvalues --   -1.12185  -1.07768  -1.03698  -1.02065  -0.99131
 Alpha  occ. eigenvalues --   -0.96953  -0.96783  -0.95176  -0.88096  -0.86692
 Alpha  occ. eigenvalues --   -0.86113  -0.85462  -0.84444  -0.84147  -0.84113
 Alpha  occ. eigenvalues --   -0.83558  -0.83390  -0.82682  -0.81704  -0.80685
 Alpha  occ. eigenvalues --   -0.79997  -0.79533  -0.78746  -0.78498  -0.77999
 Alpha  occ. eigenvalues --   -0.77027  -0.76611  -0.75834  -0.75332  -0.74181
 Alpha  occ. eigenvalues --   -0.73538  -0.73228  -0.72021  -0.71328  -0.71003
 Alpha  occ. eigenvalues --   -0.70782  -0.70400  -0.69586  -0.68862  -0.67773
 Alpha  occ. eigenvalues --   -0.67000  -0.66555  -0.64885  -0.64676  -0.63455
 Alpha  occ. eigenvalues --   -0.63049  -0.62706  -0.61672  -0.61478  -0.60840
 Alpha  occ. eigenvalues --   -0.60562  -0.60198  -0.59465  -0.58236  -0.57834
 Alpha  occ. eigenvalues --   -0.57415  -0.56626  -0.56514  -0.55833  -0.55293
 Alpha  occ. eigenvalues --   -0.54593  -0.54330  -0.53664  -0.53102  -0.52788
 Alpha  occ. eigenvalues --   -0.52544  -0.52346  -0.51889  -0.51659  -0.50733
 Alpha  occ. eigenvalues --   -0.50191  -0.50102  -0.50037  -0.49578  -0.49374
 Alpha  occ. eigenvalues --   -0.48997  -0.48852  -0.48410  -0.48329  -0.48213
 Alpha  occ. eigenvalues --   -0.47987  -0.47874  -0.47759  -0.47391  -0.47284
 Alpha  occ. eigenvalues --   -0.46932  -0.46772  -0.46383  -0.46153  -0.46040
 Alpha  occ. eigenvalues --   -0.45746  -0.45427  -0.45331  -0.45049  -0.44730
 Alpha  occ. eigenvalues --   -0.44634  -0.44227  -0.44060  -0.43725  -0.43599
 Alpha  occ. eigenvalues --   -0.43267  -0.43127  -0.43081  -0.42859  -0.42656
 Alpha  occ. eigenvalues --   -0.42511  -0.42303  -0.42170  -0.41892  -0.41755
 Alpha  occ. eigenvalues --   -0.41588  -0.41296  -0.41118  -0.40963  -0.40789
 Alpha  occ. eigenvalues --   -0.40429  -0.40299  -0.40257  -0.40206  -0.40073
 Alpha  occ. eigenvalues --   -0.39649  -0.39555  -0.39441  -0.39130  -0.39016
 Alpha  occ. eigenvalues --   -0.38931  -0.38673  -0.38514  -0.38062  -0.38028
 Alpha  occ. eigenvalues --   -0.37702  -0.37587  -0.37475  -0.37198  -0.37088
 Alpha  occ. eigenvalues --   -0.36819  -0.36707  -0.36357  -0.36003  -0.35928
 Alpha  occ. eigenvalues --   -0.35239  -0.35132  -0.35054  -0.34718  -0.34565
 Alpha  occ. eigenvalues --   -0.34246  -0.33907  -0.33754  -0.33422  -0.33132
 Alpha  occ. eigenvalues --   -0.32709  -0.32421  -0.32415  -0.32376  -0.32362
 Alpha  occ. eigenvalues --   -0.32036  -0.31962  -0.31608  -0.30703  -0.30540
 Alpha  occ. eigenvalues --   -0.30109  -0.29777  -0.29071  -0.28438  -0.27076
 Alpha  occ. eigenvalues --   -0.26567  -0.25771  -0.25168  -0.24947  -0.21838
 Alpha  occ. eigenvalues --   -0.20103
 Alpha virt. eigenvalues --   -0.07161  -0.04282  -0.00081   0.02450   0.03183
 Alpha virt. eigenvalues --    0.04124   0.04282   0.04710   0.05202   0.06039
 Alpha virt. eigenvalues --    0.07230   0.08647   0.09060   0.09750   0.10047

 Mulliken charges:
               1
     1  Mg   0.831813
     2  C    0.162292
     3  C   -0.131705
     4  C   -0.206223
     5  C   -0.183854
     6  N   -0.610184
     7  C    0.286682
     8  C   -0.181080
     9  C   -0.130422
    10  C    0.263357
    11  C   -0.294863
    12  C   -0.138159
    13  C   -0.271639
    14  C    0.613078
    15  O   -0.482867
    16  O   -0.450488
    17  N   -0.772654
    18  C    0.291615
    19  C    0.043805
    20  C   -0.008221
    21  C    0.371986
    22  C   -0.381237
    23  C   -0.025366
    24  C   -0.260234
    25  N   -0.672906
    26  C    0.262774
    27  C    0.107535
    28  C    0.019910
    29  C    0.299338
    30  C   -0.431234
    31  C   -0.251785
    32  C   -0.285793
    33  N   -0.724671
    34  C    0.318233
    35  C   -0.041895
    36  C   -0.036222
    37  C    0.296311
    38  C   -0.372757
    39  C    0.399359
    40  O   -0.424734
    41  C   -0.386805
    42  C    0.620267
    43  O   -0.506235
    44  O   -0.457862
    45  C   -0.065827
    46  C    0.008674
    47  C   -0.139826
    48  C    0.145391
    49  C   -0.384153
    50  C   -0.219051
    51  C   -0.162445
    52  C   -0.169857
    53  C   -0.040397
    54  C   -0.320251
    55  C   -0.165582
    56  C   -0.198585
    57  C   -0.168844
    58  C   -0.036177
    59  C   -0.295565
    60  C   -0.172414
    61  C   -0.166210
    62  C   -0.141384
    63  C   -0.056394
    64  C   -0.302682
    65  C   -0.319433
    66  H    0.049260
    67  H    0.076931
    68  H    0.095963
    69  H    0.114188
    70  H    0.097934
    71  H    0.084386
    72  H    0.101552
    73  H    0.140190
    74  H    0.124755
    75  H    0.120100
    76  H    0.129140
    77  H    0.140302
    78  H    0.137916
    79  H    0.128523
    80  H    0.115766
    81  H    0.081161
    82  H    0.109369
    83  H    0.069723
    84  H    0.125645
    85  H    0.115741
    86  H    0.130738
    87  H    0.102651
    88  H    0.093875
    89  H    0.098136
    90  H    0.126411
    91  H    0.081547
    92  H    0.135999
    93  H    0.115564
    94  H    0.129026
    95  H    0.159871
    96  H    0.121751
    97  H    0.148317
    98  H    0.126405
    99  H    0.144765
   100  H    0.073929
   101  H    0.087978
   102  H    0.122615
   103  H    0.090661
   104  H    0.131010
   105  H    0.074008
   106  H    0.083550
   107  H    0.084904
   108  H    0.112196
   109  H    0.061679
   110  H    0.110635
   111  H    0.093839
   112  H    0.085097
   113  H    0.099508
   114  H    0.117634
   115  H    0.100262
   116  H    0.052739
   117  H    0.109213
   118  H    0.050717
   119  H    0.094384
   120  H    0.089002
   121  H    0.085479
   122  H    0.055374
   123  H    0.095172
   124  H    0.119286
   125  H    0.086685
   126  H    0.071112
   127  H    0.103809
   128  H    0.064495
   129  H    0.087070
   130  H    0.077266
   131  H    0.079175
   132  H    0.072372
   133  H    0.106995
   134  H    0.103915
   135  H    0.110406
   136  H    0.081899
   137  H    0.105077
 Sum of Mulliken charges =  -0.00000

 Dipole moment (field-independent basis, Debye):
    X=              1.9345    Y=              5.1149    Z=              0.0002  Tot=              5.4685
 Quadrupole moment (field-independent basis, Debye-Ang):
   XX=           -349.3107   YY=           -393.3494   ZZ=           -396.7565
   XY=            -29.1334   XZ=             11.8834   YZ=             -4.6775

 Normal termination of Gaussian 16 at Tue Oct 22 04:44:43 2019.
