 Gaussian 16, Revision A.03,
 Gaussian 16:  ES64L-G16RevA.03 25-Dec-2016

 ----------------------------------------------------------------------
 # td=(NStates=10) iop(3/107=0140000000,3/108=0140000000) CAM-B3LYP/6-3
 1G(d,p)
 ----------------------------------------------------------------------

 --
 TD
 --
 Symbolic Z-matrix:
 Charge =  0 Multiplicity = 1

                         Standard orientation:
 ---------------------------------------------------------------------
 Center     Atomic      Atomic             Coordinates (Angstroms)
 Number     Number       Type             X           Y           Z
 ---------------------------------------------------------------------
      1         12           0       -7.167245    0.573200    0.058866
      2          6           0       -4.890806   -1.877480    0.407736
      3          6           0       -4.733260    2.772003    1.177825
      4          6           0       -9.390419    3.134067   -0.394306
      5          6           0       -9.533466   -1.773994   -0.952821
      6          7           0       -5.052213    0.368879    0.827271
      7          6           0       -4.329985   -0.746675    0.771894
      8          6           0       -2.989920   -0.440588    1.245356
      9          6           0       -2.979294    1.070467    1.619631
     10          6           0       -4.369951    1.454891    1.157179
     11          6           0       -2.961776    1.137300    3.192855
     12          6           0       -1.933502   -0.693268    0.080856
     13          6           0       -0.530101   -0.431980    0.468732
     14          6           0        0.419116   -0.617122   -0.579157
     15          8           0        0.213884   -1.019923   -1.762987
     16          8           0        1.708259   -0.425871   -0.199762
     17          7           0       -6.997355    2.616002    0.357835
     18          6           0       -6.003665    3.284691    0.866818
     19          6           0       -6.348974    4.729577    0.877345
     20          6           0       -7.679711    4.821902    0.448436
     21          6           0       -8.123558    3.517361    0.092049
     22          6           0       -5.470198    5.831621    1.301584
     23          6           0       -8.597362    5.960470    0.283189
     24          6           0       -8.292056    7.285360    0.190442
     25          7           0       -9.092595    0.718588   -0.483098
     26          6           0       -9.841298    1.749268   -0.573117
     27          6           0      -11.250692    1.518941   -1.084292
     28          6           0      -11.256148    0.126677   -1.156684
     29          6           0       -9.939115   -0.400500   -0.841515
     30          6           0      -12.236438    2.491868   -1.399463
     31          6           0      -12.298497   -0.683719   -1.742058
     32          6           0      -12.063639   -0.898082   -3.207172
     33          7           0       -7.225990   -1.448259   -0.118551
     34          6           0       -8.328624   -2.275984   -0.535697
     35          6           0       -7.888848   -3.616524   -0.469561
     36          6           0       -6.534856   -3.576960   -0.009374
     37          6           0       -6.191590   -2.161488    0.049704
     38          6           0       -8.785709   -4.749435   -0.654977
     39          6           0       -5.325198   -4.355819    0.212506
     40          8           0       -5.118408   -5.592052    0.147880
     41          6           0       -4.183253   -3.355769    0.436491
     42          6           0       -3.527477   -3.646199    1.826081
     43          8           0       -3.700146   -3.027660    2.847610
     44          8           0       -2.742393   -4.646898    1.643276
     45          6           0       -2.195662   -5.218950    2.792111
     46          6           0        2.755316   -0.647463   -1.217225
     47          6           0        4.088731   -0.421731   -0.530547
     48          6           0        5.121169    0.300094   -0.943081
     49          6           0        5.152072    1.076637   -2.258880
     50          6           0        6.410794    0.322288   -0.232611
     51          6           0        7.582414   -0.210294   -1.008715
     52          6           0        8.865023   -0.114740   -0.017428
     53          6           0       10.059632   -0.547719   -0.805947
     54          6           0       10.028446   -1.957216   -1.295319
     55          6           0       11.348322   -0.242707    0.050412
     56          6           0       12.742105   -0.418726   -0.678771
     57          6           0       14.020014   -0.124360    0.159728
     58          6           0       15.385595   -0.116635   -0.515584
     59          6           0       15.634627   -1.565079   -1.058173
     60          6           0       16.413230    0.441822    0.363690
     61          6           0       17.801622    0.392762   -0.112142
     62          6           0       18.880709    1.340111    0.800868
     63          6           0       20.275277    1.314133    0.248875
     64          6           0       20.262556    2.164109   -0.937294
     65          6           0       21.195074    1.927035    1.296657
     66          1           0       -4.117202    3.466602    1.573215
     67          1           0      -10.122999    3.859762   -0.575991
     68          1           0      -10.387427   -2.437642   -1.160927
     69          1           0       -2.661658   -1.205545    2.069066
     70          1           0       -2.100730    1.650915    1.281011
     71          1           0       -2.159075    0.726904    3.749856
     72          1           0       -3.099265    2.144569    3.349385
     73          1           0       -3.740379    0.610520    3.603737
     74          1           0       -2.109519   -1.639615   -0.655639
     75          1           0       -2.108496    0.126304   -0.612052
     76          1           0       -0.389471    0.504309    0.938974
     77          1           0       -0.507034   -1.096509    1.369431
     78          1           0       -5.094111    6.143303    0.353937
     79          1           0       -6.045347    6.636071    2.003055
     80          1           0       -4.799997    5.266470    1.974841
     81          1           0       -9.659728    5.738876    0.274032
     82          1           0       -8.935420    8.090233    0.175036
     83          1           0       -7.135842    7.584477    0.181821
     84          1           0      -11.663544    3.176409   -1.942618
     85          1           0      -13.051202    2.155574   -1.885449
     86          1           0      -12.463960    2.968678   -0.392770
     87          1           0      -12.266259   -1.652185   -1.136023
     88          1           0      -13.323517   -0.054498   -1.417755
     89          1           0      -12.893572   -1.574700   -3.604589
     90          1           0      -12.232782    0.106299   -3.702715
     91          1           0      -11.216705   -1.390308   -3.481510
     92          1           0       -9.256497   -4.752407   -1.697419
     93          1           0       -8.221223   -5.600230   -0.670737
     94          1           0       -9.582387   -4.685246    0.082542
     95          1           0       -3.343025   -3.263287   -0.322683
     96          1           0       -1.640892   -4.592019    3.462911
     97          1           0       -3.005867   -5.658298    3.324221
     98          1           0       -1.380577   -6.037597    2.562422
     99          1           0        2.950772   -1.684158   -1.416613
    100          1           0        2.776426   -0.029508   -2.017141
    101          1           0        4.116766   -1.032635    0.398694
    102          1           0        4.166279    1.359221   -2.833504
    103          1           0        5.531777    2.045349   -1.991888
    104          1           0        5.735627    0.371923   -2.928800
    105          1           0        6.440716    1.357091    0.012565
    106          1           0        6.419456   -0.185099    0.784336
    107          1           0        7.683635   -1.202189   -1.243588
    108          1           0        7.806717    0.401111   -1.950209
    109          1           0        9.002892    0.894637    0.326106
    110          1           0        8.641658   -0.706551    0.909808
    111          1           0       10.186159    0.134301   -1.567050
    112          1           0        9.278926   -2.397212   -1.909272
    113          1           0       11.040533   -2.208508   -1.898301
    114          1           0       10.025376   -2.755872   -0.603958
    115          1           0       11.108846    0.842007    0.356497
    116          1           0       11.561108   -0.854131    1.025215
    117          1           0       12.973615   -1.308142   -1.102923
    118          1           0       12.758477    0.259104   -1.478444
    119          1           0       13.848938    0.917787    0.589922
    120          1           0       14.176210   -0.782004    1.022540
    121          1           0       15.281631    0.579207   -1.484014
    122          1           0       15.929168   -2.319359   -0.170370
    123          1           0       14.944997   -2.080215   -1.733938
    124          1           0       16.638908   -1.459078   -1.615381
    125          1           0       16.138811    1.435791    0.682079
    126          1           0       16.215867   -0.318045    1.244701
    127          1           0       18.102814   -0.619165   -0.004349
    128          1           0       17.911195    0.647364   -1.254949
    129          1           0       18.346840    2.288132    1.009334
    130          1           0       18.496379    0.788105    1.839468
    131          1           0       20.676892    0.281647    0.039893
    132          1           0       19.806269    3.073949   -0.746515
    133          1           0       21.261068    2.269329   -1.492567
    134          1           0       19.588484    1.754053   -1.894484
    135          1           0       21.281515    1.324460    2.127447
    136          1           0       22.107398    2.110394    0.696676
    137          1           0       20.830219    2.855590    1.760794
 ---------------------------------------------------------------------

 SCF Done:  E(RCAM-B3LYP) =  -2933.55473452     A.U. after   16 cycles

 Excitation energies and oscillator strengths:

 Excited State   1:      Singlet-A      2.1227 eV  584.10 nm  f=0.2502  <S**2>=0.000
     240 -> 243       -0.23793
     241 -> 242        0.65350
 This state for optimization and/or second-order correction.
 Total Energy, E(TD-HF/TD-DFT) =  -2933.47672847
 Copying the excited state density for this state as the 1-particle RhoCI density.

 Excited State   2:      Singlet-A      2.3606 eV  525.23 nm  f=0.0242  <S**2>=0.000
     240 -> 242        0.58542
     241 -> 243        0.36318

 Excited State   3:      Singlet-A      3.0481 eV  406.76 nm  f=0.0380  <S**2>=0.000
     239 -> 242        0.64428
     239 -> 243       -0.12686
     241 -> 243       -0.21372

 Excited State   4:      Singlet-A      3.0951 eV  400.58 nm  f=0.0253  <S**2>=0.000
     237 -> 242        0.33699
     237 -> 243        0.13036
     237 -> 244        0.16928
     238 -> 242        0.48104
     238 -> 243        0.11812
     238 -> 244        0.15981
     241 -> 243        0.15923

 Excited State   5:      Singlet-A      3.1726 eV  390.80 nm  f=0.4609  <S**2>=0.000
     235 -> 242       -0.18526
     237 -> 242       -0.23408
     239 -> 242        0.15097
     240 -> 242       -0.30175
     240 -> 243       -0.17647
     241 -> 243        0.47392

 Excited State   6:      Singlet-A      3.3390 eV  371.32 nm  f=0.2161  <S**2>=0.000
     237 -> 242        0.43131
     238 -> 242       -0.39048
     239 -> 242        0.14187
     240 -> 242       -0.14657
     240 -> 243        0.23358
     241 -> 243        0.19569

 Excited State   7:      Singlet-A      3.4744 eV  356.85 nm  f=0.8363  <S**2>=0.000
     237 -> 242       -0.21576
     238 -> 242        0.22445
     240 -> 243        0.56541
     241 -> 242        0.21732
     241 -> 243        0.11414

 Excited State   8:      Singlet-A      3.6070 eV  343.74 nm  f=0.1536  <S**2>=0.000
     235 -> 242        0.63008
     237 -> 242       -0.17101
     240 -> 242       -0.11235

 Excited State   9:      Singlet-A      3.8892 eV  318.79 nm  f=0.0017  <S**2>=0.000
     237 -> 243        0.35531
     238 -> 243       -0.36344
     239 -> 243        0.42029
     240 -> 244        0.12157
     241 -> 244       -0.12887

 Excited State  10:      Singlet-A      3.9230 eV  316.05 nm  f=0.0661  <S**2>=0.000
     238 -> 243       -0.10946
     241 -> 244        0.65859

 The electronic state is 1-A.
 Alpha  occ. eigenvalues --  -46.80330 -19.23070 -19.21415 -19.16351 -19.15416
 Alpha  occ. eigenvalues --  -19.14435 -14.36346 -14.35715 -14.35187 -14.34652
 Alpha  occ. eigenvalues --  -10.34210 -10.34072 -10.29403 -10.26930 -10.25861
 Alpha  occ. eigenvalues --  -10.25806 -10.25543 -10.25318 -10.25226 -10.24866
 Alpha  occ. eigenvalues --  -10.24477 -10.24074 -10.23773 -10.23755 -10.23626
 Alpha  occ. eigenvalues --  -10.23379 -10.23319 -10.23227 -10.23200 -10.22981
 Alpha  occ. eigenvalues --  -10.22879 -10.22790 -10.22702 -10.22623 -10.22591
 Alpha  occ. eigenvalues --  -10.22430 -10.22419 -10.22412 -10.22343 -10.22176
 Alpha  occ. eigenvalues --  -10.22111 -10.22075 -10.21805 -10.21761 -10.21666
 Alpha  occ. eigenvalues --  -10.21330 -10.21256 -10.21166 -10.21164 -10.21119
 Alpha  occ. eigenvalues --  -10.21104 -10.21083 -10.20983 -10.20822 -10.20807
 Alpha  occ. eigenvalues --  -10.20777 -10.20754 -10.20575 -10.20300 -10.20286
 Alpha  occ. eigenvalues --  -10.20268 -10.20261 -10.19445 -10.19436 -10.19317
 Alpha  occ. eigenvalues --   -3.08842  -1.83796  -1.83322  -1.83224  -1.16241
 Alpha  occ. eigenvalues --   -1.11064  -1.05289  -1.02587  -1.00704  -1.00615
 Alpha  occ. eigenvalues --   -0.99073  -0.98574  -0.97606  -0.86668  -0.86532
 Alpha  occ. eigenvalues --   -0.85865  -0.85657  -0.85384  -0.84845  -0.84338
 Alpha  occ. eigenvalues --   -0.84283  -0.83510  -0.83126  -0.82725  -0.81481
 Alpha  occ. eigenvalues --   -0.80494  -0.79798  -0.79589  -0.78625  -0.78379
 Alpha  occ. eigenvalues --   -0.77432  -0.76524  -0.75964  -0.74587  -0.74246
 Alpha  occ. eigenvalues --   -0.73822  -0.72896  -0.71524  -0.71387  -0.71327
 Alpha  occ. eigenvalues --   -0.70608  -0.70115  -0.69660  -0.68507  -0.67857
 Alpha  occ. eigenvalues --   -0.67404  -0.66485  -0.65740  -0.64918  -0.63636
 Alpha  occ. eigenvalues --   -0.63010  -0.62640  -0.61645  -0.61148  -0.60717
 Alpha  occ. eigenvalues --   -0.60613  -0.59681  -0.59237  -0.59131  -0.58939
 Alpha  occ. eigenvalues --   -0.56572  -0.56537  -0.55669  -0.55582  -0.55246
 Alpha  occ. eigenvalues --   -0.54633  -0.54293  -0.54177  -0.53441  -0.52912
 Alpha  occ. eigenvalues --   -0.52409  -0.52180  -0.51405  -0.51101  -0.50945
 Alpha  occ. eigenvalues --   -0.50801  -0.50608  -0.50451  -0.49832  -0.49808
 Alpha  occ. eigenvalues --   -0.49265  -0.48970  -0.48791  -0.48616  -0.48512
 Alpha  occ. eigenvalues --   -0.48363  -0.48189  -0.47919  -0.47865  -0.47482
 Alpha  occ. eigenvalues --   -0.47152  -0.47028  -0.46769  -0.46648  -0.46340
 Alpha  occ. eigenvalues --   -0.46164  -0.45906  -0.45791  -0.45355  -0.44805
 Alpha  occ. eigenvalues --   -0.44689  -0.44375  -0.44145  -0.43951  -0.43796
 Alpha  occ. eigenvalues --   -0.43418  -0.43386  -0.43235  -0.42984  -0.42559
 Alpha  occ. eigenvalues --   -0.42514  -0.42119  -0.42073  -0.41908  -0.41806
 Alpha  occ. eigenvalues --   -0.41543  -0.41480  -0.41396  -0.41269  -0.41043
 Alpha  occ. eigenvalues --   -0.40670  -0.40650  -0.39991  -0.39742  -0.39733
 Alpha  occ. eigenvalues --   -0.39587  -0.39268  -0.39146  -0.39032  -0.38729
 Alpha  occ. eigenvalues --   -0.38565  -0.38440  -0.38192  -0.38136  -0.37766
 Alpha  occ. eigenvalues --   -0.37665  -0.37596  -0.37220  -0.36846  -0.36663
 Alpha  occ. eigenvalues --   -0.36643  -0.36490  -0.36050  -0.35931  -0.35685
 Alpha  occ. eigenvalues --   -0.35501  -0.35398  -0.35154  -0.35099  -0.34789
 Alpha  occ. eigenvalues --   -0.34285  -0.33957  -0.33866  -0.33833  -0.33400
 Alpha  occ. eigenvalues --   -0.33017  -0.32887  -0.32629  -0.32390  -0.32364
 Alpha  occ. eigenvalues --   -0.32136  -0.31842  -0.30705  -0.30137  -0.29787
 Alpha  occ. eigenvalues --   -0.29653  -0.29543  -0.29047  -0.28306  -0.26480
 Alpha  occ. eigenvalues --   -0.26423  -0.25694  -0.25451  -0.24697  -0.21623
 Alpha  occ. eigenvalues --   -0.20103
 Alpha virt. eigenvalues --   -0.06819  -0.03844   0.00149   0.02485   0.02731
 Alpha virt. eigenvalues --    0.04445   0.04700   0.05726   0.05786   0.06281
 Alpha virt. eigenvalues --    0.07015   0.09051   0.09540   0.09992   0.10275

 Mulliken charges:
               1
     1  Mg   0.814328
     2  C    0.038977
     3  C   -0.157336
     4  C   -0.170705
     5  C   -0.175265
     6  N   -0.658675
     7  C    0.388033
     8  C   -0.193993
     9  C   -0.171949
    10  C    0.366502
    11  C   -0.311026
    12  C   -0.192093
    13  C   -0.258826
    14  C    0.620942
    15  O   -0.503514
    16  O   -0.484108
    17  N   -0.724044
    18  C    0.367974
    19  C   -0.048298
    20  C    0.059528
    21  C    0.271641
    22  C   -0.364425
    23  C   -0.076143
    24  C   -0.247002
    25  N   -0.686952
    26  C    0.315832
    27  C    0.044599
    28  C    0.012268
    29  C    0.256513
    30  C   -0.368101
    31  C   -0.251713
    32  C   -0.289263
    33  N   -0.754604
    34  C    0.287269
    35  C    0.007970
    36  C    0.015102
    37  C    0.341128
    38  C   -0.380792
    39  C    0.353045
    40  O   -0.499820
    41  C   -0.302954
    42  C    0.597076
    43  O   -0.476484
    44  O   -0.370664
    45  C   -0.104437
    46  C    0.055182
    47  C   -0.172308
    48  C    0.110518
    49  C   -0.365794
    50  C   -0.210603
    51  C   -0.180083
    52  C   -0.189540
    53  C   -0.036435
    54  C   -0.329703
    55  C   -0.177070
    56  C   -0.182590
    57  C   -0.168773
    58  C   -0.053341
    59  C   -0.316881
    60  C   -0.146617
    61  C   -0.185995
    62  C   -0.179737
    63  C   -0.048111
    64  C   -0.288621
    65  C   -0.297869
    66  H    0.054912
    67  H    0.073417
    68  H    0.090331
    69  H    0.122266
    70  H    0.102980
    71  H    0.110334
    72  H    0.102664
    73  H    0.134745
    74  H    0.112604
    75  H    0.110767
    76  H    0.140662
    77  H    0.139850
    78  H    0.146098
    79  H    0.115373
    80  H    0.114827
    81  H    0.087959
    82  H    0.109468
    83  H    0.081527
    84  H    0.137159
    85  H    0.118900
    86  H    0.122779
    87  H    0.093800
    88  H    0.072277
    89  H    0.092918
    90  H    0.105480
    91  H    0.129081
    92  H    0.109216
    93  H    0.149325
    94  H    0.134544
    95  H    0.152987
    96  H    0.129829
    97  H    0.138138
    98  H    0.111402
    99  H    0.132040
   100  H    0.113824
   101  H    0.076652
   102  H    0.102504
   103  H    0.117666
   104  H    0.131150
   105  H    0.109150
   106  H    0.092646
   107  H    0.116168
   108  H    0.088439
   109  H    0.090662
   110  H    0.090194
   111  H    0.101893
   112  H    0.107515
   113  H    0.078244
   114  H    0.113082
   115  H    0.076032
   116  H    0.078115
   117  H    0.101894
   118  H    0.093340
   119  H    0.068416
   120  H    0.080307
   121  H    0.055206
   122  H    0.076087
   123  H    0.115994
   124  H    0.094384
   125  H    0.095269
   126  H    0.067504
   127  H    0.107256
   128  H    0.074677
   129  H    0.099041
   130  H    0.062068
   131  H    0.093253
   132  H    0.118279
   133  H    0.091004
   134  H    0.069378
   135  H    0.112440
   136  H    0.091475
   137  H    0.096967
 Sum of Mulliken charges =  -0.00000

 Dipole moment (field-independent basis, Debye):
    X=              0.8275    Y=              4.9235    Z=              0.5603  Tot=              5.0239
 Quadrupole moment (field-independent basis, Debye-Ang):
   XX=           -323.0768   YY=           -394.3628   ZZ=           -397.3575
   XY=            -25.5989   XZ=              9.2873   YZ=             -3.8644

 Normal termination of Gaussian 16 at Tue Oct 22 16:23:37 2019.
