 Gaussian 16, Revision A.03,
 Gaussian 16:  ES64L-G16RevA.03 25-Dec-2016

 ----------------------------------------------------------------------
 # td=(NStates=10) iop(3/107=0140000000,3/108=0140000000) CAM-B3LYP/6-3
 1G(d,p)
 ----------------------------------------------------------------------

 --
 TD
 --
 Symbolic Z-matrix:
 Charge =  0 Multiplicity = 1

                         Standard orientation:
 ---------------------------------------------------------------------
 Center     Atomic      Atomic             Coordinates (Angstroms)
 Number     Number       Type             X           Y           Z
 ---------------------------------------------------------------------
      1         12           0       -7.198144    0.640845    0.084283
      2          6           0       -4.904000   -1.922585    0.590001
      3          6           0       -4.864868    2.835587    1.119101
      4          6           0       -9.491422    3.140112   -0.339171
      5          6           0       -9.531176   -1.788271   -0.912967
      6          7           0       -5.063960    0.452949    0.641614
      7          6           0       -4.327519   -0.686177    0.786238
      8          6           0       -2.851956   -0.348299    1.129209
      9          6           0       -3.016048    1.072466    1.585890
     10          6           0       -4.412977    1.561412    1.070696
     11          6           0       -2.912322    1.191851    3.177028
     12          6           0       -1.823165   -0.538476    0.084498
     13          6           0       -0.408466   -0.424231    0.568634
     14          6           0        0.541196   -0.667837   -0.534241
     15          8           0        0.319846   -1.149809   -1.682713
     16          8           0        1.810504   -0.495693   -0.084015
     17          7           0       -7.198970    2.690410    0.363097
     18          6           0       -6.104558    3.362979    0.806006
     19          6           0       -6.479483    4.724183    0.946667
     20          6           0       -7.796566    4.824562    0.409444
     21          6           0       -8.267774    3.528752    0.181379
     22          6           0       -5.759472    5.975778    1.423581
     23          6           0       -8.612455    5.999156    0.361998
     24          6           0       -8.335401    7.332666    0.088717
     25          7           0       -9.239968    0.574637   -0.506452
     26          6           0       -9.926517    1.678001   -0.585674
     27          6           0      -11.240119    1.393005   -1.103612
     28          6           0      -11.235900    0.032426   -1.220937
     29          6           0      -10.031424   -0.491019   -0.869531
     30          6           0      -12.395809    2.389404   -1.272677
     31          6           0      -12.342873   -0.836070   -1.577629
     32          6           0      -12.219624   -1.027485   -3.209654
     33          7           0       -7.172308   -1.384608   -0.221803
     34          6           0       -8.245547   -2.228162   -0.614719
     35          6           0       -7.770697   -3.646899   -0.606308
     36          6           0       -6.484560   -3.496081   -0.211950
     37          6           0       -6.164728   -2.180342    0.071605
     38          6           0       -8.793910   -4.732561   -0.923646
     39          6           0       -5.280512   -4.335469    0.120431
     40          8           0       -5.059716   -5.544839    0.097547
     41          6           0       -4.111939   -3.272554    0.495224
     42          6           0       -3.581238   -3.761848    1.893063
     43          8           0       -3.883654   -3.217783    2.969142
     44          8           0       -2.819455   -4.779434    1.772259
     45          6           0       -2.139830   -5.290716    2.852159
     46          6           0        2.872460   -0.726929   -1.106778
     47          6           0        4.123162   -0.420819   -0.495625
     48          6           0        5.081725    0.372812   -0.912437
     49          6           0        4.932702    1.272684   -2.192255
     50          6           0        6.478187    0.435499   -0.262919
     51          6           0        7.601433   -0.223679   -0.987020
     52          6           0        8.842289   -0.204732   -0.120104
     53          6           0       10.213673   -0.533298   -0.825016
     54          6           0       10.239950   -1.980341   -1.239799
     55          6           0       11.423187   -0.214857    0.078819
     56          6           0       12.719862   -0.523825   -0.658656
     57          6           0       14.038709   -0.053047    0.236814
     58          6           0       15.348614   -0.265965   -0.561566
     59          6           0       15.833912   -1.712775   -0.760846
     60          6           0       16.460278    0.416006    0.439072
     61          6           0       17.939873    0.620348   -0.195095
     62          6           0       18.812428    1.265050    0.678930
     63          6           0       20.352334    1.412210    0.157052
     64          6           0       20.404451    2.278415   -1.145042
     65          6           0       21.215598    1.917652    1.224103
     66          1           0       -4.017312    3.353050    1.394308
     67          1           0      -10.098706    3.870040   -0.410542
     68          1           0      -10.046749   -2.609767   -1.317085
     69          1           0       -2.477933   -0.920018    2.103249
     70          1           0       -2.400972    1.859000    0.882805
     71          1           0       -1.833085    0.753215    3.404383
     72          1           0       -2.976680    2.107790    3.489118
     73          1           0       -3.619061    0.717964    3.739483
     74          1           0       -1.920527   -1.578853   -0.421901
     75          1           0       -1.787918    0.283946   -0.727539
     76          1           0       -0.056457    0.633328    1.034178
     77          1           0       -0.446467   -1.347612    1.249028
     78          1           0       -5.239633    6.251919    0.456569
     79          1           0       -6.496400    6.832003    1.770354
     80          1           0       -5.178886    5.733597    2.191364
     81          1           0       -9.639363    5.670755    0.589613
     82          1           0       -9.090636    8.104685   -0.167343
     83          1           0       -7.282666    7.524641   -0.296585
     84          1           0      -12.101721    3.216535   -2.009253
     85          1           0      -13.210385    2.014378   -1.730423
     86          1           0      -12.669883    2.918632   -0.382377
     87          1           0      -12.388241   -1.985427   -1.352180
     88          1           0      -13.250727   -0.439870   -1.468843
     89          1           0      -13.080202   -1.569935   -3.577638
     90          1           0      -12.107290   -0.121900   -3.761044
     91          1           0      -11.122736   -1.131383   -3.441527
     92          1           0       -9.172461   -4.650580   -1.898499
     93          1           0       -7.991128   -5.649471   -0.766948
     94          1           0       -9.607127   -4.740295   -0.276024
     95          1           0       -3.329447   -3.375707   -0.113926
     96          1           0       -1.550759   -4.499632    3.353605
     97          1           0       -2.865664   -5.711519    3.502635
     98          1           0       -1.468454   -6.076381    2.447359
     99          1           0        2.654342   -1.628524   -1.617715
    100          1           0        2.578472   -0.057277   -1.992578
    101          1           0        4.335063   -0.956361    0.584036
    102          1           0        3.894460    1.314111   -2.565211
    103          1           0        5.267431    2.361846   -1.734541
    104          1           0        5.523871    0.894182   -2.968912
    105          1           0        6.623859    1.364098    0.052857
    106          1           0        6.513049    0.024018    0.733484
    107          1           0        7.182011   -1.196372   -1.222956
    108          1           0        7.712785    0.381969   -1.939634
    109          1           0        9.007192    0.833324    0.258791
    110          1           0        8.653333   -0.971788    0.758181
    111          1           0       10.447646    0.233594   -1.661480
    112          1           0        9.376797   -2.433757   -1.785205
    113          1           0       11.147300   -2.237617   -1.980777
    114          1           0       10.344023   -2.571823   -0.195431
    115          1           0       11.416132    0.938361    0.285301
    116          1           0       11.337687   -0.825082    1.027284
    117          1           0       12.872426   -1.553628   -0.912228
    118          1           0       12.745642    0.020648   -1.562234
    119          1           0       13.972019    0.909462    0.567770
    120          1           0       14.258970   -0.742109    1.235043
    121          1           0       15.256827    0.346712   -1.493814
    122          1           0       16.195411   -2.420122    0.256963
    123          1           0       14.980565   -2.188299   -1.113894
    124          1           0       16.549932   -1.582822   -1.552211
    125          1           0       16.157668    1.453479    0.537715
    126          1           0       16.546167   -0.107151    1.393283
    127          1           0       18.163665   -0.229783   -0.583446
    128          1           0       17.946741    1.053697   -1.123435
    129          1           0       18.283308    2.213359    0.931864
    130          1           0       18.767153    0.593653    1.503619
    131          1           0       20.714593    0.559422   -0.190051
    132          1           0       20.154247    3.278394   -0.961378
    133          1           0       21.376986    2.090886   -1.519869
    134          1           0       19.642978    1.820573   -1.830446
    135          1           0       21.450727    1.174288    2.074452
    136          1           0       22.134113    2.089149    0.735963
    137          1           0       20.837029    2.806753    1.775197
 ---------------------------------------------------------------------

 SCF Done:  E(RCAM-B3LYP) =  -2933.46837778     A.U. after   16 cycles

 Excitation energies and oscillator strengths:

 Excited State   1:      Singlet-A      2.1786 eV  569.09 nm  f=0.1768  <S**2>=0.000
     240 -> 242       -0.11955
     240 -> 243        0.28461
     241 -> 242        0.62416
 This state for optimization and/or second-order correction.
 Total Energy, E(TD-HF/TD-DFT) =  -2933.38831407
 Copying the excited state density for this state as the 1-particle RhoCI density.

 Excited State   2:      Singlet-A      2.3845 eV  519.97 nm  f=0.0040  <S**2>=0.000
     240 -> 242        0.52705
     241 -> 242        0.13879
     241 -> 243       -0.42903

 Excited State   3:      Singlet-A      2.8929 eV  428.58 nm  f=0.0628  <S**2>=0.000
     239 -> 242        0.65623
     239 -> 243       -0.14884
     241 -> 243       -0.14745

 Excited State   4:      Singlet-A      3.1369 eV  395.25 nm  f=0.5499  <S**2>=0.000
     238 -> 242        0.22574
     239 -> 242        0.11742
     240 -> 242        0.37837
     240 -> 243        0.19501
     241 -> 243        0.46077

 Excited State   5:      Singlet-A      3.2420 eV  382.43 nm  f=0.0940  <S**2>=0.000
     238 -> 242        0.64223
     240 -> 242       -0.15809
     241 -> 243       -0.19147

 Excited State   6:      Singlet-A      3.3310 eV  372.21 nm  f=0.4725  <S**2>=0.000
     237 -> 242       -0.38760
     237 -> 243       -0.19970
     237 -> 244       -0.19074
     238 -> 242       -0.13078
     240 -> 243        0.41477
     241 -> 242       -0.18837
     241 -> 243       -0.11935

 Excited State   7:      Singlet-A      3.3786 eV  366.97 nm  f=0.4507  <S**2>=0.000
     237 -> 242        0.40545
     237 -> 243        0.20660
     237 -> 244        0.19467
     238 -> 243       -0.13848
     240 -> 243        0.39834
     241 -> 242       -0.19098

 Excited State   8:      Singlet-A      3.4920 eV  355.06 nm  f=0.0987  <S**2>=0.000
     238 -> 243        0.61168
     239 -> 243       -0.28356
     240 -> 243        0.15687

 Excited State   9:      Singlet-A      3.7724 eV  328.66 nm  f=0.0681  <S**2>=0.000
     236 -> 242       -0.29130
     238 -> 243        0.23885
     239 -> 242        0.11651
     239 -> 243        0.56070

 Excited State  10:      Singlet-A      3.8546 eV  321.65 nm  f=0.0750  <S**2>=0.000
     231 -> 242        0.10639
     236 -> 242        0.57913
     236 -> 243        0.14274
     238 -> 243        0.15600
     239 -> 243        0.25743

 The electronic state is 1-A.
 Alpha  occ. eigenvalues --  -46.80708 -19.22641 -19.21768 -19.16535 -19.16451
 Alpha  occ. eigenvalues --  -19.14976 -14.36830 -14.34837 -14.34833 -14.34334
 Alpha  occ. eigenvalues --  -10.34533 -10.33773 -10.30819 -10.27163 -10.26876
 Alpha  occ. eigenvalues --  -10.26209 -10.25771 -10.25692 -10.24877 -10.24709
 Alpha  occ. eigenvalues --  -10.24580 -10.24327 -10.24295 -10.24105 -10.23815
 Alpha  occ. eigenvalues --  -10.23796 -10.23322 -10.23202 -10.23100 -10.23080
 Alpha  occ. eigenvalues --  -10.23080 -10.22769 -10.22768 -10.22699 -10.22654
 Alpha  occ. eigenvalues --  -10.22572 -10.22512 -10.22492 -10.22491 -10.22410
 Alpha  occ. eigenvalues --  -10.22192 -10.22143 -10.22120 -10.21855 -10.21690
 Alpha  occ. eigenvalues --  -10.21641 -10.21454 -10.21357 -10.21278 -10.21269
 Alpha  occ. eigenvalues --  -10.21234 -10.20976 -10.20975 -10.20947 -10.20792
 Alpha  occ. eigenvalues --  -10.20692 -10.20433 -10.20341 -10.20241 -10.20173
 Alpha  occ. eigenvalues --  -10.20075 -10.19503 -10.19359 -10.19069 -10.16821
 Alpha  occ. eigenvalues --   -3.08998  -1.83972  -1.83453  -1.83386  -1.16045
 Alpha  occ. eigenvalues --   -1.11467  -1.05317  -1.02507  -1.01773  -0.99763
 Alpha  occ. eigenvalues --   -0.99041  -0.98832  -0.97854  -0.86701  -0.86548
 Alpha  occ. eigenvalues --   -0.86000  -0.85142  -0.84599  -0.84437  -0.83760
 Alpha  occ. eigenvalues --   -0.83109  -0.82745  -0.82662  -0.82224  -0.81653
 Alpha  occ. eigenvalues --   -0.80671  -0.80032  -0.79310  -0.78883  -0.77651
 Alpha  occ. eigenvalues --   -0.77021  -0.76878  -0.75861  -0.75163  -0.73999
 Alpha  occ. eigenvalues --   -0.73551  -0.72532  -0.72135  -0.71197  -0.71131
 Alpha  occ. eigenvalues --   -0.71054  -0.70324  -0.69302  -0.68543  -0.68307
 Alpha  occ. eigenvalues --   -0.68206  -0.66292  -0.65941  -0.64929  -0.63825
 Alpha  occ. eigenvalues --   -0.62967  -0.62881  -0.61306  -0.61214  -0.60512
 Alpha  occ. eigenvalues --   -0.60335  -0.59891  -0.59134  -0.58532  -0.58091
 Alpha  occ. eigenvalues --   -0.57326  -0.57093  -0.56331  -0.55613  -0.55400
 Alpha  occ. eigenvalues --   -0.54925  -0.54446  -0.53933  -0.53628  -0.53071
 Alpha  occ. eigenvalues --   -0.52609  -0.52272  -0.51775  -0.51308  -0.50886
 Alpha  occ. eigenvalues --   -0.50643  -0.50443  -0.50399  -0.50103  -0.49853
 Alpha  occ. eigenvalues --   -0.49442  -0.48674  -0.48446  -0.48117  -0.47739
 Alpha  occ. eigenvalues --   -0.47386  -0.47241  -0.47154  -0.46884  -0.46719
 Alpha  occ. eigenvalues --   -0.46584  -0.46488  -0.46176  -0.46090  -0.46062
 Alpha  occ. eigenvalues --   -0.45637  -0.45565  -0.45464  -0.45140  -0.44795
 Alpha  occ. eigenvalues --   -0.44705  -0.44462  -0.44255  -0.44202  -0.43992
 Alpha  occ. eigenvalues --   -0.43771  -0.43575  -0.43358  -0.43228  -0.42811
 Alpha  occ. eigenvalues --   -0.42783  -0.42467  -0.42240  -0.41979  -0.41857
 Alpha  occ. eigenvalues --   -0.41834  -0.41582  -0.41486  -0.40654  -0.40585
 Alpha  occ. eigenvalues --   -0.40392  -0.40316  -0.40017  -0.39739  -0.39602
 Alpha  occ. eigenvalues --   -0.39585  -0.39217  -0.39154  -0.39047  -0.38890
 Alpha  occ. eigenvalues --   -0.38769  -0.38555  -0.38382  -0.38082  -0.37894
 Alpha  occ. eigenvalues --   -0.37694  -0.37564  -0.37543  -0.37207  -0.36909
 Alpha  occ. eigenvalues --   -0.36826  -0.36644  -0.36593  -0.36301  -0.36089
 Alpha  occ. eigenvalues --   -0.35415  -0.35204  -0.35005  -0.34705  -0.34630
 Alpha  occ. eigenvalues --   -0.34476  -0.34294  -0.34078  -0.33763  -0.33332
 Alpha  occ. eigenvalues --   -0.33063  -0.32645  -0.32360  -0.32162  -0.32132
 Alpha  occ. eigenvalues --   -0.31835  -0.31791  -0.31782  -0.30151  -0.30094
 Alpha  occ. eigenvalues --   -0.29638  -0.28844  -0.28688  -0.28499  -0.27842
 Alpha  occ. eigenvalues --   -0.27509  -0.26394  -0.24865  -0.24139  -0.21724
 Alpha  occ. eigenvalues --   -0.20451
 Alpha virt. eigenvalues --   -0.06630  -0.04665   0.00211   0.02123   0.02359
 Alpha virt. eigenvalues --    0.04428   0.04555   0.05197   0.05284   0.05821
 Alpha virt. eigenvalues --    0.06864   0.08751   0.09444   0.10219   0.10256

 Mulliken charges:
               1
     1  Mg   0.806471
     2  C    0.086681
     3  C   -0.149320
     4  C   -0.096646
     5  C   -0.151633
     6  N   -0.633299
     7  C    0.294273
     8  C   -0.122361
     9  C   -0.157896
    10  C    0.314867
    11  C   -0.303686
    12  C   -0.164701
    13  C   -0.253807
    14  C    0.619788
    15  O   -0.507291
    16  O   -0.479879
    17  N   -0.748036
    18  C    0.365717
    19  C   -0.021605
    20  C    0.020449
    21  C    0.315358
    22  C   -0.357394
    23  C   -0.092802
    24  C   -0.267833
    25  N   -0.695556
    26  C    0.293848
    27  C    0.007482
    28  C    0.027379
    29  C    0.310295
    30  C   -0.376545
    31  C   -0.230309
    32  C   -0.345921
    33  N   -0.739201
    34  C    0.227176
    35  C    0.026026
    36  C   -0.000195
    37  C    0.337773
    38  C   -0.370765
    39  C    0.366615
    40  O   -0.465985
    41  C   -0.317954
    42  C    0.579155
    43  O   -0.502578
    44  O   -0.372911
    45  C   -0.092227
    46  C   -0.001289
    47  C   -0.102613
    48  C    0.091760
    49  C   -0.352846
    50  C   -0.221309
    51  C   -0.156159
    52  C   -0.165383
    53  C   -0.050016
    54  C   -0.292788
    55  C   -0.163842
    56  C   -0.191317
    57  C   -0.159446
    58  C   -0.082503
    59  C   -0.283483
    60  C   -0.189453
    61  C   -0.182158
    62  C   -0.155490
    63  C   -0.056662
    64  C   -0.319443
    65  C   -0.298752
    66  H    0.064038
    67  H    0.045695
    68  H    0.077901
    69  H    0.109178
    70  H    0.079586
    71  H    0.092039
    72  H    0.117903
    73  H    0.142462
    74  H    0.118608
    75  H    0.100739
    76  H    0.127795
    77  H    0.137585
    78  H    0.125276
    79  H    0.120181
    80  H    0.119714
    81  H    0.088111
    82  H    0.112204
    83  H    0.098486
    84  H    0.104411
    85  H    0.121363
    86  H    0.126911
    87  H    0.100023
    88  H    0.104151
    89  H    0.106953
    90  H    0.107895
    91  H    0.105101
    92  H    0.141308
    93  H    0.127354
    94  H    0.145334
    95  H    0.141725
    96  H    0.119767
    97  H    0.138753
    98  H    0.124206
    99  H    0.149129
   100  H    0.109765
   101  H    0.073688
   102  H    0.113211
   103  H    0.094784
   104  H    0.134790
   105  H    0.104584
   106  H    0.089529
   107  H    0.104711
   108  H    0.086862
   109  H    0.088766
   110  H    0.079740
   111  H    0.071105
   112  H    0.104859
   113  H    0.085469
   114  H    0.081622
   115  H    0.076057
   116  H    0.086000
   117  H    0.108610
   118  H    0.094976
   119  H    0.099941
   120  H    0.056756
   121  H    0.084111
   122  H    0.073309
   123  H    0.105706
   124  H    0.114046
   125  H    0.083520
   126  H    0.092363
   127  H    0.089444
   128  H    0.074972
   129  H    0.077696
   130  H    0.086461
   131  H    0.095153
   132  H    0.111649
   133  H    0.102174
   134  H    0.094493
   135  H    0.085315
   136  H    0.094982
   137  H    0.099078
 Sum of Mulliken charges =  -0.00000

 Dipole moment (field-independent basis, Debye):
    X=              2.2185    Y=              3.6477    Z=             -0.2626  Tot=              4.2774
 Quadrupole moment (field-independent basis, Debye-Ang):
   XX=           -350.6007   YY=           -394.9675   ZZ=           -398.7351
   XY=            -20.9366   XZ=              1.5023   YZ=             -3.1471

 Normal termination of Gaussian 16 at Thu Oct 24 00:19:57 2019.
