 Gaussian 16, Revision A.03,
 Gaussian 16:  ES64L-G16RevA.03 25-Dec-2016

 ----------------------------------------------------------------------
 # td=(NStates=10) iop(3/107=0140000000,3/108=0140000000) CAM-B3LYP/6-3
 1G(d,p)
 ----------------------------------------------------------------------

 --
 TD
 --
 Symbolic Z-matrix:
 Charge =  0 Multiplicity = 1

                         Standard orientation:
 ---------------------------------------------------------------------
 Center     Atomic      Atomic             Coordinates (Angstroms)
 Number     Number       Type             X           Y           Z
 ---------------------------------------------------------------------
      1         12           0       -7.205194    0.588909    0.272625
      2          6           0       -4.836513   -2.007457    0.449350
      3          6           0       -4.831979    2.729664    1.309457
      4          6           0       -9.462223    3.198471   -0.280767
      5          6           0       -9.469468   -1.662619   -0.955140
      6          7           0       -5.074308    0.418953    0.696323
      7          6           0       -4.367370   -0.751204    0.713412
      8          6           0       -2.959694   -0.456310    1.189688
      9          6           0       -3.002137    1.073817    1.654434
     10          6           0       -4.394739    1.496257    1.200992
     11          6           0       -2.923823    1.233909    3.204660
     12          6           0       -1.902894   -0.630335    0.108652
     13          6           0       -0.481896   -0.353751    0.470261
     14          6           0        0.517304   -0.675409   -0.608954
     15          8           0        0.225138   -1.072475   -1.769865
     16          8           0        1.821511   -0.430958   -0.221745
     17          7           0       -7.156785    2.621182    0.323294
     18          6           0       -5.999932    3.335114    0.732978
     19          6           0       -6.383246    4.683891    0.848245
     20          6           0       -7.720052    4.901583    0.457003
     21          6           0       -8.169607    3.506360    0.110482
     22          6           0       -5.408544    5.864279    1.244776
     23          6           0       -8.571528    6.043945    0.438979
     24          6           0       -8.295699    7.307089    0.160898
     25          7           0       -9.088238    0.714673   -0.398276
     26          6           0       -9.961435    1.858823   -0.610570
     27          6           0      -11.254421    1.487726   -1.086545
     28          6           0      -11.220187    0.128649   -1.223347
     29          6           0       -9.924739   -0.352922   -0.826049
     30          6           0      -12.349165    2.472975   -1.349566
     31          6           0      -12.309121   -0.778230   -1.736736
     32          6           0      -12.216709   -1.031170   -3.316408
     33          7           0       -7.194559   -1.358227   -0.143927
     34          6           0       -8.214244   -2.146623   -0.573369
     35          6           0       -7.937899   -3.518444   -0.525534
     36          6           0       -6.560326   -3.653115   -0.079763
     37          6           0       -6.122741   -2.207073    0.049161
     38          6           0       -8.740941   -4.840893   -0.832898
     39          6           0       -5.413872   -4.411577    0.224502
     40          8           0       -5.210365   -5.617301    0.160456
     41          6           0       -4.178656   -3.330139    0.562690
     42          6           0       -3.541359   -3.664899    1.968411
     43          8           0       -3.756270   -3.184593    3.018131
     44          8           0       -2.818245   -4.749177    1.700159
     45          6           0       -2.172340   -5.260692    2.929238
     46          6           0        2.779355   -0.820299   -1.225570
     47          6           0        4.189881   -0.610052   -0.638412
     48          6           0        5.007904    0.326729   -1.057539
     49          6           0        4.939299    1.277412   -2.241437
     50          6           0        6.451585    0.454954   -0.456615
     51          6           0        7.681406   -0.196780   -1.164331
     52          6           0        8.955369   -0.022832   -0.357738
     53          6           0       10.260447   -0.571005   -1.015931
     54          6           0       10.117426   -2.142157   -1.199410
     55          6           0       11.438395   -0.283108   -0.156171
     56          6           0       12.774169   -0.449005   -0.735027
     57          6           0       13.959393   -0.062787    0.236546
     58          6           0       15.371042   -0.270169   -0.522292
     59          6           0       15.780370   -1.644196   -0.744912
     60          6           0       16.393797    0.357007    0.391730
     61          6           0       17.822854    0.595147   -0.118228
     62          6           0       18.713354    1.318395    0.801849
     63          6           0       20.252768    1.389149    0.442168
     64          6           0       20.430491    2.069546   -0.967508
     65          6           0       21.048657    2.100368    1.475799
     66          1           0       -4.320669    3.505452    1.856898
     67          1           0      -10.186892    4.096665   -0.530777
     68          1           0      -10.196422   -2.546677   -1.277770
     69          1           0       -2.712910   -1.218745    2.103662
     70          1           0       -2.091954    1.535378    1.040695
     71          1           0       -1.856279    1.128287    3.582064
     72          1           0       -3.197985    2.179811    3.511293
     73          1           0       -3.542875    0.503861    3.702879
     74          1           0       -1.952233   -1.774621   -0.187218
     75          1           0       -2.160003    0.025333   -0.632040
     76          1           0       -0.274983    0.685376    0.936816
     77          1           0       -0.213442   -1.060745    1.454999
     78          1           0       -4.850874    5.996325    0.481586
     79          1           0       -5.995367    6.712227    1.574577
     80          1           0       -4.915245    5.808246    2.097327
     81          1           0       -9.582511    5.993182    0.832844
     82          1           0       -8.888872    8.075106   -0.048184
     83          1           0       -7.398188    7.518588   -0.166111
     84          1           0      -12.194585    3.158949   -2.137149
     85          1           0      -13.349099    2.042339   -1.550534
     86          1           0      -12.674507    2.992323   -0.371794
     87          1           0      -12.154723   -1.676984   -1.245581
     88          1           0      -13.282506   -0.466404   -1.456831
     89          1           0      -12.891215   -1.927782   -3.597614
     90          1           0      -12.453771   -0.003941   -3.871077
     91          1           0      -10.966857   -0.998491   -3.417641
     92          1           0       -9.107512   -4.641927   -1.759549
     93          1           0       -8.367725   -5.916869   -0.993323
     94          1           0       -9.477187   -4.769368   -0.022163
     95          1           0       -3.391961   -3.399215   -0.253443
     96          1           0       -1.401857   -4.417379    3.587587
     97          1           0       -2.742385   -5.533768    3.840842
     98          1           0       -1.589670   -6.108981    2.578257
     99          1           0        2.618654   -1.910658   -1.394370
    100          1           0        2.785603   -0.303409   -2.141660
    101          1           0        4.327816   -1.211162    0.261198
    102          1           0        4.055597    1.590687   -2.850947
    103          1           0        5.375617    2.284673   -2.113203
    104          1           0        5.544868    0.917925   -3.003905
    105          1           0        6.628027    1.683067   -0.304713
    106          1           0        6.510773    0.200530    0.668446
    107          1           0        7.612318   -1.339295   -1.420330
    108          1           0        7.893319    0.466008   -2.131792
    109          1           0        9.275458    1.037036   -0.276805
    110          1           0        9.022199   -0.457609    0.605715
    111          1           0       10.412810   -0.372918   -2.012895
    112          1           0        9.434541   -2.346706   -2.040040
    113          1           0       11.167048   -2.471551   -1.485435
    114          1           0        9.956950   -2.987540   -0.362064
    115          1           0       11.534163    0.616805    0.166919
    116          1           0       11.484916   -0.870284    0.703750
    117          1           0       12.644764   -1.458941   -0.930215
    118          1           0       12.742692    0.112280   -1.629324
    119          1           0       13.824743    0.964209    0.650714
    120          1           0       13.960847   -0.720322    1.075393
    121          1           0       15.370113    0.197294   -1.504190
    122          1           0       15.875956   -2.301768    0.109586
    123          1           0       15.035117   -2.084221   -1.387449
    124          1           0       16.646577   -1.849223   -1.355559
    125          1           0       15.967559    1.394106    0.543223
    126          1           0       16.272782   -0.186878    1.282972
    127          1           0       18.131706   -0.347114   -0.415301
    128          1           0       17.812957    1.170575   -1.097835
    129          1           0       18.352784    2.450345    0.809800
    130          1           0       18.510770    0.663313    1.875129
    131          1           0       20.685565    0.257129    0.319719
    132          1           0       20.097425    3.211401   -1.165254
    133          1           0       21.399588    2.176710   -1.600618
    134          1           0       19.869914    1.641155   -1.654473
    135          1           0       21.155885    1.412693    2.472425
    136          1           0       22.193484    2.297412    1.189216
    137          1           0       20.642185    3.135713    1.552602
 ---------------------------------------------------------------------

 SCF Done:  E(RCAM-B3LYP) =  -2933.46209440     A.U. after   16 cycles

 Excitation energies and oscillator strengths:

 Excited State   1:      Singlet-A      2.0412 eV  607.42 nm  f=0.2639  <S**2>=0.000
     240 -> 242        0.12002
     240 -> 243        0.24443
     241 -> 242        0.64723
 This state for optimization and/or second-order correction.
 Total Energy, E(TD-HF/TD-DFT) =  -2933.38708278
 Copying the excited state density for this state as the 1-particle RhoCI density.

 Excited State   2:      Singlet-A      2.2411 eV  553.24 nm  f=0.0386  <S**2>=0.000
     240 -> 242        0.59349
     241 -> 242       -0.12225
     241 -> 243       -0.34229

 Excited State   3:      Singlet-A      2.9459 eV  420.86 nm  f=0.0603  <S**2>=0.000
     239 -> 242        0.66995
     239 -> 243        0.10442
     241 -> 243        0.12131

 Excited State   4:      Singlet-A      3.0459 eV  407.05 nm  f=0.0008  <S**2>=0.000
     237 -> 242        0.41784
     237 -> 244       -0.17856
     238 -> 242        0.48571
     238 -> 243       -0.10223
     238 -> 244       -0.14264

 Excited State   5:      Singlet-A      3.1322 eV  395.84 nm  f=0.5814  <S**2>=0.000
     236 -> 242        0.18108
     240 -> 242        0.31638
     241 -> 243        0.57543

 Excited State   6:      Singlet-A      3.2787 eV  378.16 nm  f=0.0344  <S**2>=0.000
     236 -> 242       -0.14933
     237 -> 242        0.45608
     238 -> 242       -0.44420
     240 -> 243       -0.17297

 Excited State   7:      Singlet-A      3.3663 eV  368.31 nm  f=0.6904  <S**2>=0.000
     236 -> 243        0.10817
     237 -> 242        0.12408
     238 -> 242       -0.12172
     240 -> 243        0.60291
     241 -> 242       -0.24172

 Excited State   8:      Singlet-A      3.4981 eV  354.43 nm  f=0.1454  <S**2>=0.000
     236 -> 242        0.63363
     237 -> 242        0.20223
     240 -> 242       -0.10219
     241 -> 243       -0.11799

 Excited State   9:      Singlet-A      3.8163 eV  324.88 nm  f=0.0994  <S**2>=0.000
     236 -> 243       -0.14247
     237 -> 243       -0.33894
     238 -> 243        0.41092
     239 -> 243        0.36434
     240 -> 243        0.13123
     241 -> 244        0.16378

 Excited State  10:      Singlet-A      3.8482 eV  322.19 nm  f=0.1422  <S**2>=0.000
     239 -> 243       -0.21266
     240 -> 242       -0.11014
     241 -> 244        0.62736

 The electronic state is 1-A.
 Alpha  occ. eigenvalues --  -46.79196 -19.23060 -19.22056 -19.17339 -19.16590
 Alpha  occ. eigenvalues --  -19.15134 -14.37259 -14.35550 -14.35252 -14.35196
 Alpha  occ. eigenvalues --  -10.34972 -10.34300 -10.29912 -10.28621 -10.26458
 Alpha  occ. eigenvalues --  -10.25967 -10.25665 -10.25558 -10.25515 -10.25132
 Alpha  occ. eigenvalues --  -10.25114 -10.25022 -10.24951 -10.24751 -10.24506
 Alpha  occ. eigenvalues --  -10.24114 -10.24102 -10.24092 -10.23990 -10.23881
 Alpha  occ. eigenvalues --  -10.23820 -10.23788 -10.23754 -10.23514 -10.23277
 Alpha  occ. eigenvalues --  -10.23225 -10.23052 -10.22852 -10.22535 -10.22334
 Alpha  occ. eigenvalues --  -10.22261 -10.22131 -10.22067 -10.21978 -10.21961
 Alpha  occ. eigenvalues --  -10.21595 -10.21467 -10.21410 -10.21366 -10.21342
 Alpha  occ. eigenvalues --  -10.21320 -10.21308 -10.21297 -10.21243 -10.21037
 Alpha  occ. eigenvalues --  -10.20953 -10.20649 -10.20537 -10.19875 -10.19562
 Alpha  occ. eigenvalues --  -10.19334 -10.19215 -10.18976 -10.18864 -10.17402
 Alpha  occ. eigenvalues --   -3.07928  -1.82845  -1.82406  -1.82342  -1.14292
 Alpha  occ. eigenvalues --   -1.11385  -1.06136  -1.04526  -1.02187  -0.98861
 Alpha  occ. eigenvalues --   -0.97813  -0.97034  -0.95378  -0.87549  -0.86847
 Alpha  occ. eigenvalues --   -0.85393  -0.85022  -0.84534  -0.84095  -0.83702
 Alpha  occ. eigenvalues --   -0.82948  -0.82936  -0.82373  -0.81852  -0.80926
 Alpha  occ. eigenvalues --   -0.80176  -0.79385  -0.77983  -0.77977  -0.77657
 Alpha  occ. eigenvalues --   -0.76976  -0.75836  -0.75744  -0.75292  -0.73943
 Alpha  occ. eigenvalues --   -0.73640  -0.72462  -0.71625  -0.71385  -0.70889
 Alpha  occ. eigenvalues --   -0.70827  -0.70548  -0.69624  -0.68993  -0.68501
 Alpha  occ. eigenvalues --   -0.67092  -0.65989  -0.65245  -0.64205  -0.64004
 Alpha  occ. eigenvalues --   -0.63478  -0.62029  -0.61353  -0.60844  -0.60340
 Alpha  occ. eigenvalues --   -0.59571  -0.59367  -0.58896  -0.58194  -0.57695
 Alpha  occ. eigenvalues --   -0.57127  -0.56703  -0.56292  -0.56103  -0.54837
 Alpha  occ. eigenvalues --   -0.54555  -0.54049  -0.53136  -0.52670  -0.52567
 Alpha  occ. eigenvalues --   -0.52286  -0.51943  -0.51184  -0.51001  -0.50750
 Alpha  occ. eigenvalues --   -0.50497  -0.50438  -0.49921  -0.49571  -0.49350
 Alpha  occ. eigenvalues --   -0.49044  -0.48918  -0.48590  -0.48486  -0.47936
 Alpha  occ. eigenvalues --   -0.47894  -0.47695  -0.47606  -0.47299  -0.46895
 Alpha  occ. eigenvalues --   -0.46858  -0.46767  -0.46396  -0.45903  -0.45736
 Alpha  occ. eigenvalues --   -0.45241  -0.45107  -0.44937  -0.44757  -0.44377
 Alpha  occ. eigenvalues --   -0.44094  -0.43979  -0.43902  -0.43710  -0.43488
 Alpha  occ. eigenvalues --   -0.43202  -0.42956  -0.42850  -0.42622  -0.42198
 Alpha  occ. eigenvalues --   -0.42074  -0.41960  -0.41725  -0.41569  -0.41270
 Alpha  occ. eigenvalues --   -0.41132  -0.41101  -0.40875  -0.40692  -0.40591
 Alpha  occ. eigenvalues --   -0.40428  -0.40179  -0.40065  -0.39875  -0.39470
 Alpha  occ. eigenvalues --   -0.39340  -0.39238  -0.39125  -0.38801  -0.38632
 Alpha  occ. eigenvalues --   -0.38571  -0.38150  -0.38132  -0.38011  -0.37881
 Alpha  occ. eigenvalues --   -0.37676  -0.37482  -0.37436  -0.37395  -0.36770
 Alpha  occ. eigenvalues --   -0.36669  -0.36424  -0.36019  -0.35898  -0.35506
 Alpha  occ. eigenvalues --   -0.35489  -0.35366  -0.35136  -0.35103  -0.34482
 Alpha  occ. eigenvalues --   -0.34145  -0.33979  -0.33666  -0.33464  -0.33245
 Alpha  occ. eigenvalues --   -0.33068  -0.33055  -0.33007  -0.32679  -0.32611
 Alpha  occ. eigenvalues --   -0.32390  -0.31895  -0.31271  -0.31173  -0.30581
 Alpha  occ. eigenvalues --   -0.30292  -0.30010  -0.29729  -0.28669  -0.27905
 Alpha  occ. eigenvalues --   -0.26865  -0.26159  -0.25863  -0.25073  -0.21824
 Alpha  occ. eigenvalues --   -0.20365
 Alpha virt. eigenvalues --   -0.07505  -0.04288  -0.00313   0.02286   0.02635
 Alpha virt. eigenvalues --    0.03905   0.04363   0.04551   0.05590   0.06130
 Alpha virt. eigenvalues --    0.07379   0.08962   0.09146   0.09616   0.10011

 Mulliken charges:
               1
     1  Mg   0.824674
     2  C    0.140085
     3  C   -0.180747
     4  C   -0.182359
     5  C   -0.181318
     6  N   -0.650004
     7  C    0.327570
     8  C   -0.180218
     9  C   -0.146621
    10  C    0.360012
    11  C   -0.316253
    12  C   -0.146843
    13  C   -0.269140
    14  C    0.626590
    15  O   -0.487347
    16  O   -0.471328
    17  N   -0.701779
    18  C    0.279645
    19  C   -0.046440
    20  C    0.056692
    21  C    0.321731
    22  C   -0.361252
    23  C   -0.122979
    24  C   -0.220225
    25  N   -0.685698
    26  C    0.245687
    27  C    0.072564
    28  C    0.004276
    29  C    0.301315
    30  C   -0.395429
    31  C   -0.228571
    32  C   -0.300082
    33  N   -0.735354
    34  C    0.330310
    35  C   -0.040148
    36  C    0.091784
    37  C    0.211166
    38  C   -0.352330
    39  C    0.310169
    40  O   -0.466296
    41  C   -0.352036
    42  C    0.620815
    43  O   -0.449306
    44  O   -0.411710
    45  C   -0.096160
    46  C    0.025327
    47  C   -0.148518
    48  C    0.147705
    49  C   -0.390225
    50  C   -0.222508
    51  C   -0.159025
    52  C   -0.150470
    53  C   -0.066608
    54  C   -0.339336
    55  C   -0.168476
    56  C   -0.190004
    57  C   -0.190775
    58  C   -0.058902
    59  C   -0.319951
    60  C   -0.157150
    61  C   -0.174302
    62  C   -0.133348
    63  C   -0.036147
    64  C   -0.325269
    65  C   -0.276495
    66  H    0.085399
    67  H    0.093054
    68  H    0.093649
    69  H    0.101388
    70  H    0.088578
    71  H    0.095955
    72  H    0.117674
    73  H    0.134869
    74  H    0.104986
    75  H    0.124821
    76  H    0.132928
    77  H    0.109806
    78  H    0.139945
    79  H    0.111493
    80  H    0.116770
    81  H    0.097283
    82  H    0.103080
    83  H    0.095617
    84  H    0.136418
    85  H    0.114464
    86  H    0.114249
    87  H    0.109738
    88  H    0.104274
    89  H    0.110558
    90  H    0.099764
    91  H    0.095634
    92  H    0.134761
    93  H    0.144753
    94  H    0.131465
    95  H    0.152079
    96  H    0.075300
    97  H    0.148153
    98  H    0.132106
    99  H    0.114523
   100  H    0.122493
   101  H    0.093270
   102  H    0.111701
   103  H    0.115432
   104  H    0.139460
   105  H    0.066836
   106  H    0.092324
   107  H    0.099004
   108  H    0.081655
   109  H    0.087170
   110  H    0.101967
   111  H    0.093628
   112  H    0.102589
   113  H    0.089582
   114  H    0.084677
   115  H    0.085702
   116  H    0.090726
   117  H    0.100025
   118  H    0.088571
   119  H    0.093314
   120  H    0.097432
   121  H    0.081775
   122  H    0.097397
   123  H    0.098781
   124  H    0.108184
   125  H    0.069280
   126  H    0.087811
   127  H    0.098724
   128  H    0.081469
   129  H    0.079769
   130  H    0.056346
   131  H    0.068699
   132  H    0.070367
   133  H    0.092078
   134  H    0.121885
   135  H    0.082703
   136  H    0.084656
   137  H    0.104351
 Sum of Mulliken charges =  -0.00000

 Dipole moment (field-independent basis, Debye):
    X=             -0.1139    Y=              4.3782    Z=              0.6699  Tot=              4.4306
 Quadrupole moment (field-independent basis, Debye-Ang):
   XX=           -335.7047   YY=           -390.0949   ZZ=           -396.1426
   XY=            -26.4658   XZ=             -3.9024   YZ=             -5.7841

 Normal termination of Gaussian 16 at Wed Oct 23 21:27:15 2019.
