 Gaussian 16, Revision A.03,
 Gaussian 16:  ES64L-G16RevA.03 25-Dec-2016

 ----------------------------------------------------------------------
 # td=(NStates=10) iop(3/107=0140000000,3/108=0140000000) CAM-B3LYP/6-3
 1G(d,p)
 ----------------------------------------------------------------------

 --
 TD
 --
 Symbolic Z-matrix:
 Charge =  0 Multiplicity = 1

                         Standard orientation:
 ---------------------------------------------------------------------
 Center     Atomic      Atomic             Coordinates (Angstroms)
 Number     Number       Type             X           Y           Z
 ---------------------------------------------------------------------
      1         12           0       -7.174180    0.634199    0.058271
      2          6           0       -4.811678   -1.923454    0.567432
      3          6           0       -4.842074    2.846222    1.148252
      4          6           0       -9.478727    3.035386   -0.436420
      5          6           0       -9.518717   -1.813723   -0.755411
      6          7           0       -5.106025    0.468862    0.607866
      7          6           0       -4.299753   -0.661375    0.794606
      8          6           0       -2.888082   -0.273729    1.254378
      9          6           0       -3.033444    1.159538    1.611028
     10          6           0       -4.453137    1.519973    1.020386
     11          6           0       -2.834813    1.519158    3.085261
     12          6           0       -1.886478   -0.548491    0.059491
     13          6           0       -0.431525   -0.303313    0.578888
     14          6           0        0.638843   -0.634240   -0.519357
     15          8           0        0.342023   -1.140222   -1.652909
     16          8           0        1.751827   -0.334937   -0.026760
     17          7           0       -7.109729    2.578870    0.235517
     18          6           0       -6.087592    3.328411    0.694173
     19          6           0       -6.409640    4.696800    0.743076
     20          6           0       -7.790943    4.784995    0.242157
     21          6           0       -8.282762    3.436803    0.071248
     22          6           0       -5.656157    5.983291    1.286138
     23          6           0       -8.753349    5.916519    0.266693
     24          6           0       -8.399464    7.270209    0.088146
     25          7           0       -9.187802    0.640508   -0.443687
     26          6           0       -9.951034    1.699802   -0.637184
     27          6           0      -11.326746    1.389450   -0.894007
     28          6           0      -11.317529    0.061988   -1.145145
     29          6           0      -10.023971   -0.508501   -0.708396
     30          6           0      -12.409329    2.327761   -1.394046
     31          6           0      -12.555856   -0.825320   -1.668169
     32          6           0      -12.361187   -1.446881   -3.133500
     33          7           0       -7.277964   -1.434621   -0.116001
     34          6           0       -8.289596   -2.268218   -0.496814
     35          6           0       -7.762015   -3.661047   -0.536956
     36          6           0       -6.470773   -3.582141   -0.225606
     37          6           0       -6.177145   -2.215067    0.077134
     38          6           0       -8.556472   -4.939698   -0.862186
     39          6           0       -5.276870   -4.328231    0.203751
     40          8           0       -5.214844   -5.525129    0.250597
     41          6           0       -4.137915   -3.338228    0.526753
     42          6           0       -3.531337   -3.640273    1.844332
     43          8           0       -3.597533   -3.094885    2.978279
     44          8           0       -2.752434   -4.713208    1.722226
     45          6           0       -2.091305   -5.077287    2.867783
     46          6           0        2.823180   -0.473060   -1.042400
     47          6           0        4.201911   -0.270683   -0.491869
     48          6           0        5.144709    0.500709   -0.924755
     49          6           0        5.013680    1.393984   -2.145063
     50          6           0        6.481567    0.544232   -0.134458
     51          6           0        7.587019   -0.250697   -0.967885
     52          6           0        8.940472   -0.127226   -0.215785
     53          6           0       10.152542   -0.449878   -0.926419
     54          6           0       10.185380   -1.954196   -1.467006
     55          6           0       11.495005   -0.273388   -0.101078
     56          6           0       12.841789   -0.397480   -0.714445
     57          6           0       14.005284   -0.175288    0.166879
     58          6           0       15.389842   -0.233161   -0.424421
     59          6           0       15.743424   -1.690142   -0.765546
     60          6           0       16.386814    0.408097    0.451383
     61          6           0       17.831961    0.460145   -0.262135
     62          6           0       18.819948    1.213551    0.649303
     63          6           0       20.313561    1.255362    0.202624
     64          6           0       20.479648    2.000123   -1.097940
     65          6           0       21.245653    1.839841    1.298755
     66          1           0       -4.283905    3.771478    1.584502
     67          1           0      -10.202867    3.881170   -0.514636
     68          1           0      -10.354689   -2.568011   -1.181754
     69          1           0       -2.541060   -0.952183    2.043812
     70          1           0       -2.326973    1.758836    1.130592
     71          1           0       -1.957753    1.192392    3.455315
     72          1           0       -2.845791    2.605516    3.168246
     73          1           0       -3.575928    1.136277    3.806136
     74          1           0       -2.103972   -1.591408   -0.274889
     75          1           0       -2.117130    0.187515   -0.532542
     76          1           0       -0.305471    0.622844    1.157627
     77          1           0       -0.193833   -1.109067    1.345901
     78          1           0       -4.915958    6.514724    0.666562
     79          1           0       -6.303688    6.942803    1.638851
     80          1           0       -4.995808    5.509521    2.240782
     81          1           0       -9.829889    5.693892    0.374365
     82          1           0       -9.195618    7.989612    0.105696
     83          1           0       -7.255197    7.396165   -0.055948
     84          1           0      -12.028585    3.087293   -2.072280
     85          1           0      -13.402494    1.610978   -2.001406
     86          1           0      -12.901222    2.760186   -0.533373
     87          1           0      -12.900059   -1.583154   -0.701791
     88          1           0      -13.368736   -0.146457   -1.710309
     89          1           0      -13.270039   -1.979277   -3.288247
     90          1           0      -12.193426   -0.666675   -3.988567
     91          1           0      -11.509342   -2.147159   -3.189038
     92          1           0       -8.920106   -4.782413   -1.953784
     93          1           0       -8.242582   -6.016610   -0.829678
     94          1           0       -9.405005   -4.993147   -0.198792
     95          1           0       -3.402605   -3.295729   -0.382980
     96          1           0       -1.266038   -4.424843    3.296171
     97          1           0       -2.626004   -5.355200    3.733630
     98          1           0       -1.768783   -5.945866    2.404222
     99          1           0        2.751694   -1.504916   -1.486702
    100          1           0        2.638451    0.136037   -1.984252
    101          1           0        4.259256   -0.849676    0.347758
    102          1           0        4.085071    1.466982   -2.442830
    103          1           0        5.564115    2.280401   -2.015943
    104          1           0        5.656617    0.818960   -2.834265
    105          1           0        7.091087    1.548452   -0.023109
    106          1           0        6.237781    0.183259    0.998079
    107          1           0        7.357612   -1.335541   -0.974541
    108          1           0        7.607795    0.131495   -2.173214
    109          1           0        9.219732    0.915441    0.263846
    110          1           0        8.867359   -0.821721    0.666136
    111          1           0       10.384066    0.187291   -1.842101
    112          1           0        9.326944   -2.234057   -2.066005
    113          1           0       10.935170   -2.064771   -2.037592
    114          1           0       10.021911   -2.628660   -0.570598
    115          1           0       11.637133    0.642795    0.689066
    116          1           0       11.345674   -0.854379    0.737770
    117          1           0       13.115282   -1.585218   -1.022550
    118          1           0       12.825863    0.283206   -1.502663
    119          1           0       13.804446    0.755407    0.677780
    120          1           0       13.880041   -0.828267    1.008456
    121          1           0       15.248136    0.412237   -1.517317
    122          1           0       15.494990   -2.334591    0.211985
    123          1           0       14.925993   -2.088509   -1.358765
    124          1           0       16.657938   -1.920795   -1.363596
    125          1           0       16.074521    1.396372    0.952431
    126          1           0       16.490705   -0.266752    1.373294
    127          1           0       18.189553   -0.590289   -0.565261
    128          1           0       17.631565    1.122768   -1.153404
    129          1           0       18.708106    2.386372    0.837676
    130          1           0       18.994536    0.851165    1.755908
    131          1           0       20.645947    0.054524    0.069447
    132          1           0       20.228924    2.996244   -0.981944
    133          1           0       21.520005    1.882435   -1.326921
    134          1           0       19.909659    1.684512   -1.949873
    135          1           0       21.002338    1.208927    2.313790
    136          1           0       22.249867    1.835141    0.990082
    137          1           0       20.804289    2.857423    1.467060
 ---------------------------------------------------------------------

 SCF Done:  E(RCAM-B3LYP) =  -2933.47518404     A.U. after   15 cycles

 Excitation energies and oscillator strengths:

 Excited State   1:      Singlet-A      2.1277 eV  582.71 nm  f=0.2205  <S**2>=0.000
     240 -> 243       -0.26138
     241 -> 242        0.65048
 This state for optimization and/or second-order correction.
 Total Energy, E(TD-HF/TD-DFT) =  -2933.39699214
 Copying the excited state density for this state as the 1-particle RhoCI density.

 Excited State   2:      Singlet-A      2.3717 eV  522.78 nm  f=0.0279  <S**2>=0.000
     240 -> 242        0.59096
     241 -> 243        0.36059

 Excited State   3:      Singlet-A      2.9167 eV  425.08 nm  f=0.0323  <S**2>=0.000
     239 -> 242        0.67533
     239 -> 243       -0.11300

 Excited State   4:      Singlet-A      3.2019 eV  387.22 nm  f=0.7391  <S**2>=0.000
     240 -> 242       -0.34996
     240 -> 243       -0.13755
     241 -> 243        0.58241

 Excited State   5:      Singlet-A      3.3335 eV  371.93 nm  f=0.8363  <S**2>=0.000
     240 -> 243        0.62724
     241 -> 242        0.26005
     241 -> 243        0.12486

 Excited State   6:      Singlet-A      3.5134 eV  352.89 nm  f=0.0005  <S**2>=0.000
     237 -> 242        0.31810
     237 -> 243        0.12787
     237 -> 244        0.13424
     238 -> 242        0.58457

 Excited State   7:      Singlet-A      3.5502 eV  349.23 nm  f=0.0143  <S**2>=0.000
     235 -> 242        0.11150
     236 -> 242        0.21146
     236 -> 244        0.10912
     237 -> 242        0.43634
     237 -> 243        0.16390
     237 -> 244        0.20699
     238 -> 242       -0.37181

 Excited State   8:      Singlet-A      3.7902 eV  327.11 nm  f=0.0691  <S**2>=0.000
     235 -> 242        0.25951
     236 -> 242        0.53550
     237 -> 242       -0.28517
     238 -> 242        0.10958
     238 -> 243       -0.12198

 Excited State   9:      Singlet-A      3.8911 eV  318.63 nm  f=0.0058  <S**2>=0.000
     238 -> 243       -0.20424
     239 -> 243        0.56458
     240 -> 244       -0.10569
     241 -> 244        0.30875

 Excited State  10:      Singlet-A      3.9360 eV  315.00 nm  f=0.0921  <S**2>=0.000
     238 -> 243        0.19485
     239 -> 243       -0.26182
     241 -> 244        0.58658

 The electronic state is 1-A.
 Alpha  occ. eigenvalues --  -46.79481 -19.24853 -19.22233 -19.16469 -19.16321
 Alpha  occ. eigenvalues --  -19.15753 -14.37466 -14.35311 -14.35049 -14.34510
 Alpha  occ. eigenvalues --  -10.34715 -10.34556 -10.30719 -10.28546 -10.26193
 Alpha  occ. eigenvalues --  -10.26127 -10.25665 -10.25093 -10.24989 -10.24942
 Alpha  occ. eigenvalues --  -10.24807 -10.24790 -10.24656 -10.24512 -10.24457
 Alpha  occ. eigenvalues --  -10.24409 -10.24378 -10.24106 -10.24075 -10.23742
 Alpha  occ. eigenvalues --  -10.23668 -10.23641 -10.23635 -10.23429 -10.23414
 Alpha  occ. eigenvalues --  -10.23379 -10.23256 -10.23125 -10.22867 -10.22799
 Alpha  occ. eigenvalues --  -10.22717 -10.22672 -10.22381 -10.22315 -10.22286
 Alpha  occ. eigenvalues --  -10.22275 -10.22150 -10.22105 -10.22049 -10.21961
 Alpha  occ. eigenvalues --  -10.21754 -10.21508 -10.21481 -10.21340 -10.21337
 Alpha  occ. eigenvalues --  -10.21246 -10.21205 -10.21097 -10.20684 -10.20661
 Alpha  occ. eigenvalues --  -10.20309 -10.19979 -10.19799 -10.19277 -10.18598
 Alpha  occ. eigenvalues --   -3.08126  -1.83065  -1.82600  -1.82534  -1.16746
 Alpha  occ. eigenvalues --   -1.14790  -1.07370  -1.02412  -1.01596  -0.99516
 Alpha  occ. eigenvalues --   -0.98590  -0.97562  -0.96331  -0.87396  -0.86863
 Alpha  occ. eigenvalues --   -0.86384  -0.85048  -0.84708  -0.83746  -0.83333
 Alpha  occ. eigenvalues --   -0.82471  -0.82224  -0.81961  -0.81343  -0.81023
 Alpha  occ. eigenvalues --   -0.80501  -0.79962  -0.78498  -0.77518  -0.77086
 Alpha  occ. eigenvalues --   -0.76831  -0.76548  -0.75549  -0.75240  -0.73765
 Alpha  occ. eigenvalues --   -0.72734  -0.72413  -0.72016  -0.71274  -0.71094
 Alpha  occ. eigenvalues --   -0.70911  -0.70244  -0.69910  -0.69437  -0.67829
 Alpha  occ. eigenvalues --   -0.67082  -0.66255  -0.65136  -0.64625  -0.63983
 Alpha  occ. eigenvalues --   -0.62666  -0.62313  -0.61106  -0.60625  -0.60502
 Alpha  occ. eigenvalues --   -0.60393  -0.60111  -0.58686  -0.57999  -0.57517
 Alpha  occ. eigenvalues --   -0.57292  -0.55968  -0.55935  -0.55537  -0.55328
 Alpha  occ. eigenvalues --   -0.54402  -0.53849  -0.53658  -0.53411  -0.53246
 Alpha  occ. eigenvalues --   -0.52128  -0.51743  -0.51486  -0.51006  -0.50960
 Alpha  occ. eigenvalues --   -0.50890  -0.50267  -0.50126  -0.50041  -0.49294
 Alpha  occ. eigenvalues --   -0.49185  -0.48939  -0.48835  -0.48217  -0.47819
 Alpha  occ. eigenvalues --   -0.47399  -0.47221  -0.46848  -0.46777  -0.46600
 Alpha  occ. eigenvalues --   -0.46435  -0.46313  -0.46222  -0.46183  -0.45936
 Alpha  occ. eigenvalues --   -0.45715  -0.45218  -0.45140  -0.44684  -0.44402
 Alpha  occ. eigenvalues --   -0.44185  -0.44116  -0.44060  -0.43843  -0.43350
 Alpha  occ. eigenvalues --   -0.43222  -0.43135  -0.42763  -0.42547  -0.42102
 Alpha  occ. eigenvalues --   -0.42082  -0.41890  -0.41809  -0.41747  -0.41682
 Alpha  occ. eigenvalues --   -0.41496  -0.41389  -0.41083  -0.41053  -0.40740
 Alpha  occ. eigenvalues --   -0.40417  -0.40219  -0.40091  -0.39832  -0.39603
 Alpha  occ. eigenvalues --   -0.39510  -0.39363  -0.39138  -0.39052  -0.38817
 Alpha  occ. eigenvalues --   -0.38712  -0.38650  -0.38113  -0.37980  -0.37916
 Alpha  occ. eigenvalues --   -0.37905  -0.37375  -0.37186  -0.37124  -0.36963
 Alpha  occ. eigenvalues --   -0.36670  -0.36534  -0.36166  -0.35921  -0.35900
 Alpha  occ. eigenvalues --   -0.35784  -0.35564  -0.35473  -0.35178  -0.34930
 Alpha  occ. eigenvalues --   -0.34305  -0.33929  -0.33837  -0.33644  -0.33344
 Alpha  occ. eigenvalues --   -0.33181  -0.33007  -0.32677  -0.32670  -0.32359
 Alpha  occ. eigenvalues --   -0.32267  -0.32066  -0.31147  -0.30704  -0.30523
 Alpha  occ. eigenvalues --   -0.30063  -0.29789  -0.29646  -0.28284  -0.27547
 Alpha  occ. eigenvalues --   -0.27421  -0.27100  -0.26082  -0.24226  -0.21428
 Alpha  occ. eigenvalues --   -0.20250
 Alpha virt. eigenvalues --   -0.06743  -0.03987   0.00153   0.01997   0.02836
 Alpha virt. eigenvalues --    0.04037   0.04774   0.04973   0.05457   0.05657
 Alpha virt. eigenvalues --    0.06471   0.07615   0.08804   0.09027   0.09629

 Mulliken charges:
               1
     1  Mg   0.813769
     2  C    0.038688
     3  C   -0.179467
     4  C   -0.170191
     5  C   -0.199988
     6  N   -0.626999
     7  C    0.287735
     8  C   -0.164053
     9  C   -0.136281
    10  C    0.355462
    11  C   -0.313829
    12  C   -0.134871
    13  C   -0.291784
    14  C    0.615444
    15  O   -0.525051
    16  O   -0.396989
    17  N   -0.755047
    18  C    0.369049
    19  C    0.010101
    20  C   -0.001474
    21  C    0.282146
    22  C   -0.373895
    23  C   -0.085256
    24  C   -0.247158
    25  N   -0.678080
    26  C    0.333035
    27  C    0.016018
    28  C    0.020852
    29  C    0.253564
    30  C   -0.354588
    31  C   -0.223476
    32  C   -0.316498
    33  N   -0.713304
    34  C    0.324969
    35  C   -0.012109
    36  C    0.050986
    37  C    0.255970
    38  C   -0.375875
    39  C    0.379110
    40  O   -0.440321
    41  C   -0.333345
    42  C    0.630498
    43  O   -0.500758
    44  O   -0.403251
    45  C   -0.088322
    46  C   -0.034782
    47  C   -0.120840
    48  C    0.118459
    49  C   -0.345365
    50  C   -0.225342
    51  C   -0.166068
    52  C   -0.163006
    53  C   -0.064388
    54  C   -0.304087
    55  C   -0.177932
    56  C   -0.137711
    57  C   -0.191995
    58  C   -0.015696
    59  C   -0.315463
    60  C   -0.162420
    61  C   -0.176215
    62  C   -0.147338
    63  C   -0.058462
    64  C   -0.300509
    65  C   -0.294667
    66  H    0.074738
    67  H    0.078790
    68  H    0.090953
    69  H    0.120844
    70  H    0.104771
    71  H    0.116201
    72  H    0.101755
    73  H    0.120198
    74  H    0.107340
    75  H    0.119176
    76  H    0.127836
    77  H    0.122766
    78  H    0.131533
    79  H    0.117857
    80  H    0.083892
    81  H    0.094991
    82  H    0.109995
    83  H    0.102709
    84  H    0.130368
    85  H    0.062579
    86  H    0.128324
    87  H    0.080224
    88  H    0.104798
    89  H    0.119175
    90  H    0.108151
    91  H    0.113683
    92  H    0.110767
    93  H    0.144141
    94  H    0.128218
    95  H    0.178249
    96  H    0.105693
    97  H    0.131852
    98  H    0.122053
    99  H    0.142906
   100  H    0.121736
   101  H    0.084478
   102  H    0.116042
   103  H    0.126002
   104  H    0.122097
   105  H    0.096952
   106  H    0.091679
   107  H    0.111484
   108  H    0.072130
   109  H    0.079254
   110  H    0.092414
   111  H    0.073587
   112  H    0.095800
   113  H    0.116415
   114  H    0.089578
   115  H    0.046598
   116  H    0.095557
   117  H    0.059610
   118  H    0.098406
   119  H    0.081716
   120  H    0.091769
   121  H    0.037735
   122  H    0.085815
   123  H    0.108330
   124  H    0.108270
   125  H    0.089120
   126  H    0.083463
   127  H    0.102133
   128  H    0.101520
   129  H    0.065137
   130  H    0.070722
   131  H    0.036766
   132  H    0.102729
   133  H    0.099687
   134  H    0.103928
   135  H    0.081493
   136  H    0.114793
   137  H    0.096220
 Sum of Mulliken charges =  -0.00000

 Dipole moment (field-independent basis, Debye):
    X=              2.3999    Y=              3.9563    Z=             -0.5089  Tot=              4.6552
 Quadrupole moment (field-independent basis, Debye-Ang):
   XX=           -348.9090   YY=           -393.8795   ZZ=           -400.9353
   XY=            -16.0717   XZ=              9.1993   YZ=              0.4937

 Normal termination of Gaussian 16 at Thu Oct 24 01:44:55 2019.
