 Gaussian 16, Revision A.03,
 Gaussian 16:  ES64L-G16RevA.03 25-Dec-2016

 ----------------------------------------------------------------------
 # td=(NStates=10) iop(3/107=0140000000,3/108=0140000000) CAM-B3LYP/6-3
 1G(d,p)
 ----------------------------------------------------------------------

 --
 TD
 --
 Symbolic Z-matrix:
 Charge =  0 Multiplicity = 1

                         Standard orientation:
 ---------------------------------------------------------------------
 Center     Atomic      Atomic             Coordinates (Angstroms)
 Number     Number       Type             X           Y           Z
 ---------------------------------------------------------------------
      1         12           0       -7.161199    0.573796    0.138429
      2          6           0       -4.846434   -1.914521    0.442281
      3          6           0       -4.836027    2.833389    1.098728
      4          6           0       -9.502070    3.072966   -0.248875
      5          6           0       -9.493430   -1.769002   -0.912298
      6          7           0       -5.100635    0.432282    0.889273
      7          6           0       -4.363426   -0.625911    0.754599
      8          6           0       -2.904165   -0.330809    1.154298
      9          6           0       -3.039603    1.134832    1.634408
     10          6           0       -4.374051    1.459898    1.082470
     11          6           0       -2.913543    1.326389    3.174194
     12          6           0       -1.882829   -0.541928    0.067429
     13          6           0       -0.470780   -0.357997    0.515600
     14          6           0        0.529278   -0.678318   -0.579425
     15          8           0        0.202234   -1.114931   -1.713857
     16          8           0        1.754274   -0.506610   -0.181190
     17          7           0       -7.145003    2.561605    0.523044
     18          6           0       -6.074660    3.363327    0.804640
     19          6           0       -6.448277    4.763869    0.841421
     20          6           0       -7.840410    4.833315    0.299981
     21          6           0       -8.231465    3.396353    0.240083
     22          6           0       -5.508461    5.835890    1.220206
     23          6           0       -8.576632    5.958768   -0.006603
     24          6           0       -8.234871    7.262197   -0.053108
     25          7           0       -9.233355    0.693405   -0.350773
     26          6           0       -9.978735    1.784970   -0.622355
     27          6           0      -11.272330    1.405481   -1.023965
     28          6           0      -11.316796    0.021438   -1.146191
     29          6           0       -9.979614   -0.413961   -0.831329
     30          6           0      -12.369126    2.393555   -1.331917
     31          6           0      -12.419135   -0.855205   -1.689420
     32          6           0      -12.425667   -1.176124   -3.135294
     33          7           0       -7.167016   -1.332200   -0.258117
     34          6           0       -8.220455   -2.126195   -0.518267
     35          6           0       -7.724096   -3.540620   -0.479648
     36          6           0       -6.414276   -3.514469   -0.098507
     37          6           0       -6.087453   -2.154255   -0.107065
     38          6           0       -8.494347   -4.717584   -0.836983
     39          6           0       -5.204660   -4.384950    0.232779
     40          8           0       -5.052207   -5.547693    0.260030
     41          6           0       -4.070535   -3.298031    0.492258
     42          6           0       -3.451067   -3.632979    1.740342
     43          8           0       -3.588765   -3.123635    2.905645
     44          8           0       -2.579754   -4.613287    1.624952
     45          6           0       -1.882719   -5.028354    2.790283
     46          6           0        2.882990   -0.639140   -1.156543
     47          6           0        4.142498   -0.438907   -0.486471
     48          6           0        5.148377    0.246459   -0.900548
     49          6           0        5.094758    1.174796   -2.133399
     50          6           0        6.391247    0.210363   -0.129578
     51          6           0        7.590751   -0.350509   -0.832581
     52          6           0        8.912876   -0.182237   -0.125490
     53          6           0       10.224957   -0.651578   -0.747605
     54          6           0       10.108399   -2.130073   -1.220546
     55          6           0       11.475354   -0.309788    0.084393
     56          6           0       12.859886   -0.600775   -0.665101
     57          6           0       13.904957   -0.147473    0.252787
     58          6           0       15.290182   -0.260857   -0.399777
     59          6           0       15.542062   -1.772782   -0.826597
     60          6           0       16.372906    0.313263    0.521658
     61          6           0       17.818241    0.570400   -0.203798
     62          6           0       18.722422    1.383303    0.603189
     63          6           0       20.053191    1.555275    0.078080
     64          6           0       20.037502    2.298159   -1.168719
     65          6           0       21.147340    2.179179    1.054693
     66          1           0       -4.049581    3.655211    1.375881
     67          1           0      -10.096273    3.915723   -0.267249
     68          1           0      -10.307676   -2.433856   -1.223652
     69          1           0       -2.419029   -0.825622    2.191803
     70          1           0       -2.295369    1.758480    1.125910
     71          1           0       -2.046659    0.662778    3.556431
     72          1           0       -2.709240    2.455558    3.412303
     73          1           0       -3.908634    1.062945    3.834151
     74          1           0       -2.249101   -1.685699   -0.430446
     75          1           0       -2.133860    0.261134   -0.759115
     76          1           0       -0.462503    0.665869    0.949928
     77          1           0       -0.350042   -1.250583    1.257552
     78          1           0       -4.910358    6.110572    0.340023
     79          1           0       -6.206827    6.683185    1.451464
     80          1           0       -5.225192    5.531553    2.201427
     81          1           0       -9.520398    5.719860    0.062139
     82          1           0       -8.815960    8.185622    0.185864
     83          1           0       -7.137141    7.540235   -0.140915
     84          1           0      -11.833637    3.180587   -2.070706
     85          1           0      -13.155901    1.770254   -1.852046
     86          1           0      -12.709398    3.017454   -0.480837
     87          1           0      -12.220696   -1.762935   -1.058638
     88          1           0      -13.544082   -0.711263   -1.263071
     89          1           0      -13.149016   -2.096281   -3.244873
     90          1           0      -12.674081   -0.334294   -3.732881
     91          1           0      -11.620888   -1.716049   -3.278631
     92          1           0       -8.820769   -4.881496   -1.988631
     93          1           0       -8.031426   -5.763627   -0.607028
     94          1           0       -9.285540   -4.794143   -0.203077
     95          1           0       -3.297417   -3.289272   -0.401920
     96          1           0       -1.263946   -4.134294    3.274317
     97          1           0       -2.582852   -5.468035    3.351879
     98          1           0       -1.136931   -5.775482    2.315002
     99          1           0        2.922908   -1.627723   -1.528975
    100          1           0        2.579143   -0.052169   -2.212706
    101          1           0        4.322734   -0.825855    0.459711
    102          1           0        4.254089    1.483830   -2.346876
    103          1           0        5.639467    2.176261   -2.074877
    104          1           0        5.777453    0.707085   -3.012167
    105          1           0        6.675115    1.260709    0.284029
    106          1           0        6.235632   -0.456489    0.845442
    107          1           0        7.397471   -1.436561   -1.173589
    108          1           0        7.617028    0.216173   -1.791484
    109          1           0        8.919741    0.944717    0.068785
    110          1           0        8.608794   -0.408274    0.887622
    111          1           0       10.150831   -0.370707   -1.884821
    112          1           0        9.352571   -2.513883   -2.076661
    113          1           0       11.263522   -2.330570   -1.462363
    114          1           0       10.107997   -2.627842   -0.330400
    115          1           0       11.464528    0.725524    0.508638
    116          1           0       11.346194   -0.825783    1.055779
    117          1           0       12.608275   -1.769338   -0.576769
    118          1           0       12.763286   -0.001953   -1.569032
    119          1           0       13.757950    0.994964    0.310896
    120          1           0       13.976225   -0.485355    1.427296
    121          1           0       15.258569    0.363336   -1.246058
    122          1           0       15.598248   -2.414146    0.151213
    123          1           0       14.670966   -2.214481   -1.182947
    124          1           0       16.745096   -1.950004   -1.455739
    125          1           0       16.247772    1.533025    0.780616
    126          1           0       16.462240   -0.323608    1.395725
    127          1           0       18.443401   -0.412796   -0.695206
    128          1           0       17.350277    1.267325   -1.003191
    129          1           0       18.256335    2.344091    0.871072
    130          1           0       18.785173    0.738887    1.503364
    131          1           0       20.487311    0.561784   -0.151641
    132          1           0       19.487496    3.175008   -1.020985
    133          1           0       20.963992    2.667517   -1.570996
    134          1           0       19.644544    1.893559   -2.014739
    135          1           0       21.274579    1.724518    2.095900
    136          1           0       22.180775    2.274032    0.624625
    137          1           0       20.754723    3.224139    1.402591
 ---------------------------------------------------------------------

 SCF Done:  E(RCAM-B3LYP) =  -2933.37217669     A.U. after   16 cycles

 Excitation energies and oscillator strengths:

 Excited State   1:      Singlet-A      2.0711 eV  598.64 nm  f=0.1445  <S**2>=0.000
     240 -> 243        0.32567
     241 -> 242        0.62221
 This state for optimization and/or second-order correction.
 Total Energy, E(TD-HF/TD-DFT) =  -2933.29606568
 Copying the excited state density for this state as the 1-particle RhoCI density.

 Excited State   2:      Singlet-A      2.2560 eV  549.58 nm  f=0.0002  <S**2>=0.000
     240 -> 242        0.51963
     241 -> 243       -0.46078

 Excited State   3:      Singlet-A      2.9608 eV  418.76 nm  f=0.1441  <S**2>=0.000
     239 -> 242        0.63837
     239 -> 243       -0.13985
     240 -> 243       -0.19369
     241 -> 242        0.10148

 Excited State   4:      Singlet-A      3.0656 eV  404.44 nm  f=0.7185  <S**2>=0.000
     240 -> 242        0.44278
     241 -> 243        0.50751
     241 -> 244       -0.11094

 Excited State   5:      Singlet-A      3.1541 eV  393.09 nm  f=0.6309  <S**2>=0.000
     238 -> 243       -0.24176
     239 -> 242        0.21615
     240 -> 243        0.53308
     241 -> 242       -0.28544
     241 -> 244        0.10206

 Excited State   6:      Singlet-A      3.3469 eV  370.44 nm  f=0.0301  <S**2>=0.000
     238 -> 242        0.67957
     238 -> 243        0.12026

 Excited State   7:      Singlet-A      3.4995 eV  354.29 nm  f=0.1217  <S**2>=0.000
     238 -> 242        0.11535
     238 -> 243       -0.35001
     239 -> 243        0.53591
     240 -> 243       -0.17000
     241 -> 242        0.10332

 Excited State   8:      Singlet-A      3.5369 eV  350.55 nm  f=0.1061  <S**2>=0.000
     238 -> 243        0.46117
     239 -> 243        0.26176
     241 -> 244        0.42299

 Excited State   9:      Singlet-A      3.6207 eV  342.43 nm  f=0.1643  <S**2>=0.000
     238 -> 243       -0.26134
     239 -> 243       -0.31339
     240 -> 243       -0.13105
     240 -> 244        0.15265
     241 -> 244        0.48603
     241 -> 245        0.12616

 Excited State  10:      Singlet-A      3.7455 eV  331.02 nm  f=0.0691  <S**2>=0.000
     233 -> 242       -0.17095
     233 -> 244        0.12507
     234 -> 242       -0.12563
     236 -> 242       -0.13321
     236 -> 244        0.11174
     237 -> 242        0.44994
     237 -> 244       -0.18036
     240 -> 244       -0.30874
     241 -> 244        0.11911

 The electronic state is 1-A.
 Alpha  occ. eigenvalues --  -46.80101 -19.23039 -19.21553 -19.18233 -19.15557
 Alpha  occ. eigenvalues --  -19.14797 -14.37616 -14.35610 -14.34936 -14.34269
 Alpha  occ. eigenvalues --  -10.34535 -10.33790 -10.32229 -10.29149 -10.27024
 Alpha  occ. eigenvalues --  -10.26072 -10.25897 -10.25301 -10.25146 -10.25133
 Alpha  occ. eigenvalues --  -10.24493 -10.24312 -10.24273 -10.24216 -10.24029
 Alpha  occ. eigenvalues --  -10.23963 -10.23499 -10.23453 -10.23355 -10.23156
 Alpha  occ. eigenvalues --  -10.23054 -10.22993 -10.22929 -10.22900 -10.22820
 Alpha  occ. eigenvalues --  -10.22803 -10.22778 -10.22761 -10.22750 -10.22691
 Alpha  occ. eigenvalues --  -10.22674 -10.22673 -10.22642 -10.22504 -10.22492
 Alpha  occ. eigenvalues --  -10.22195 -10.22161 -10.21779 -10.21761 -10.21754
 Alpha  occ. eigenvalues --  -10.21682 -10.21645 -10.21562 -10.21498 -10.21438
 Alpha  occ. eigenvalues --  -10.21361 -10.21330 -10.21189 -10.21057 -10.21048
 Alpha  occ. eigenvalues --  -10.20944 -10.20831 -10.20098 -10.19858 -10.17579
 Alpha  occ. eigenvalues --   -3.08716  -1.83652  -1.83176  -1.83138  -1.13522
 Alpha  occ. eigenvalues --   -1.13442  -1.10092  -1.03273  -1.01860  -1.00170
 Alpha  occ. eigenvalues --   -0.99669  -0.97217  -0.96306  -0.88040  -0.87757
 Alpha  occ. eigenvalues --   -0.86411  -0.85800  -0.85408  -0.84738  -0.84044
 Alpha  occ. eigenvalues --   -0.83763  -0.83055  -0.82458  -0.81867  -0.81597
 Alpha  occ. eigenvalues --   -0.80925  -0.79829  -0.79259  -0.78731  -0.78450
 Alpha  occ. eigenvalues --   -0.77346  -0.76778  -0.75797  -0.75592  -0.73612
 Alpha  occ. eigenvalues --   -0.73290  -0.72662  -0.72229  -0.71523  -0.71159
 Alpha  occ. eigenvalues --   -0.70272  -0.69908  -0.69660  -0.69148  -0.67184
 Alpha  occ. eigenvalues --   -0.67018  -0.65768  -0.65111  -0.64721  -0.64389
 Alpha  occ. eigenvalues --   -0.63525  -0.62148  -0.60994  -0.60481  -0.60171
 Alpha  occ. eigenvalues --   -0.59681  -0.59141  -0.58604  -0.58220  -0.57950
 Alpha  occ. eigenvalues --   -0.57743  -0.56765  -0.56350  -0.55786  -0.55380
 Alpha  occ. eigenvalues --   -0.55082  -0.54245  -0.53602  -0.53213  -0.52809
 Alpha  occ. eigenvalues --   -0.52465  -0.51997  -0.51850  -0.51808  -0.51185
 Alpha  occ. eigenvalues --   -0.51037  -0.50647  -0.50380  -0.49742  -0.49450
 Alpha  occ. eigenvalues --   -0.49381  -0.49064  -0.48943  -0.48826  -0.48463
 Alpha  occ. eigenvalues --   -0.48202  -0.47919  -0.47665  -0.47335  -0.47280
 Alpha  occ. eigenvalues --   -0.46888  -0.46700  -0.46491  -0.46334  -0.46253
 Alpha  occ. eigenvalues --   -0.46089  -0.45902  -0.45726  -0.45110  -0.44818
 Alpha  occ. eigenvalues --   -0.44565  -0.44471  -0.44155  -0.43972  -0.43614
 Alpha  occ. eigenvalues --   -0.43026  -0.42899  -0.42804  -0.42503  -0.42451
 Alpha  occ. eigenvalues --   -0.42288  -0.42161  -0.41816  -0.41586  -0.41318
 Alpha  occ. eigenvalues --   -0.41231  -0.40957  -0.40600  -0.40582  -0.40383
 Alpha  occ. eigenvalues --   -0.40160  -0.40114  -0.39957  -0.39825  -0.39732
 Alpha  occ. eigenvalues --   -0.39511  -0.39376  -0.39239  -0.39208  -0.39073
 Alpha  occ. eigenvalues --   -0.38949  -0.38504  -0.38278  -0.38109  -0.37777
 Alpha  occ. eigenvalues --   -0.37603  -0.37412  -0.37323  -0.37060  -0.36780
 Alpha  occ. eigenvalues --   -0.36578  -0.36270  -0.36198  -0.35870  -0.35756
 Alpha  occ. eigenvalues --   -0.35541  -0.35244  -0.35211  -0.34808  -0.34667
 Alpha  occ. eigenvalues --   -0.34061  -0.33882  -0.33761  -0.33648  -0.33435
 Alpha  occ. eigenvalues --   -0.33308  -0.32915  -0.32719  -0.32588  -0.32177
 Alpha  occ. eigenvalues --   -0.31866  -0.31397  -0.30593  -0.30352  -0.30120
 Alpha  occ. eigenvalues --   -0.29946  -0.29348  -0.28830  -0.28204  -0.28045
 Alpha  occ. eigenvalues --   -0.27836  -0.27285  -0.24878  -0.23598  -0.21099
 Alpha  occ. eigenvalues --   -0.19838
 Alpha virt. eigenvalues --   -0.06329  -0.04683  -0.00974   0.01238   0.03226
 Alpha virt. eigenvalues --    0.03645   0.04416   0.04634   0.04870   0.05216
 Alpha virt. eigenvalues --    0.06775   0.08081   0.08137   0.09171   0.09224

 Mulliken charges:
               1
     1  Mg   0.816818
     2  C    0.043711
     3  C   -0.217691
     4  C   -0.166315
     5  C   -0.154646
     6  N   -0.571212
     7  C    0.305473
     8  C   -0.157181
     9  C   -0.135271
    10  C    0.327394
    11  C   -0.290461
    12  C   -0.134699
    13  C   -0.258401
    14  C    0.611809
    15  O   -0.504329
    16  O   -0.451688
    17  N   -0.721479
    18  C    0.357246
    19  C   -0.022205
    20  C    0.004355
    21  C    0.310498
    22  C   -0.377832
    23  C   -0.039073
    24  C   -0.275886
    25  N   -0.678259
    26  C    0.317437
    27  C    0.019015
    28  C    0.040542
    29  C    0.256511
    30  C   -0.367430
    31  C   -0.271863
    32  C   -0.274434
    33  N   -0.730706
    34  C    0.327119
    35  C   -0.026463
    36  C    0.048045
    37  C    0.242621
    38  C   -0.402160
    39  C    0.398613
    40  O   -0.406499
    41  C   -0.324659
    42  C    0.626635
    43  O   -0.528375
    44  O   -0.424109
    45  C   -0.063435
    46  C   -0.000675
    47  C   -0.137336
    48  C    0.176345
    49  C   -0.346173
    50  C   -0.244303
    51  C   -0.168664
    52  C   -0.161820
    53  C   -0.051337
    54  C   -0.320078
    55  C   -0.220394
    56  C   -0.165915
    57  C   -0.165209
    58  C   -0.039957
    59  C   -0.292492
    60  C   -0.167670
    61  C   -0.168999
    62  C   -0.139335
    63  C   -0.045839
    64  C   -0.310030
    65  C   -0.316467
    66  H    0.068573
    67  H    0.067021
    68  H    0.089228
    69  H    0.095603
    70  H    0.097314
    71  H    0.105329
    72  H    0.097971
    73  H    0.113913
    74  H    0.072358
    75  H    0.092265
    76  H    0.133640
    77  H    0.132495
    78  H    0.138259
    79  H    0.115059
    80  H    0.131920
    81  H    0.078480
    82  H    0.115164
    83  H    0.090440
    84  H    0.100114
    85  H    0.110060
    86  H    0.123851
    87  H    0.098677
    88  H    0.084566
    89  H    0.082442
    90  H    0.122193
    91  H    0.123070
    92  H    0.109706
    93  H    0.124422
    94  H    0.136605
    95  H    0.168451
    96  H    0.113906
    97  H    0.146120
    98  H    0.111734
    99  H    0.150832
   100  H    0.119432
   101  H    0.094851
   102  H    0.116161
   103  H    0.104207
   104  H    0.102450
   105  H    0.090290
   106  H    0.074009
   107  H    0.083450
   108  H    0.085929
   109  H    0.074482
   110  H    0.088046
   111  H    0.078254
   112  H    0.108220
   113  H    0.077028
   114  H    0.110878
   115  H    0.091654
   116  H    0.098480
   117  H    0.107151
   118  H    0.120721
   119  H    0.085087
   120  H    0.078662
   121  H    0.088526
   122  H    0.079801
   123  H    0.121163
   124  H    0.062957
   125  H    0.058917
   126  H    0.091547
   127  H    0.061910
   128  H    0.079118
   129  H    0.084765
   130  H    0.088689
   131  H    0.081756
   132  H    0.096852
   133  H    0.094053
   134  H    0.112654
   135  H    0.091506
   136  H    0.103616
   137  H    0.080218
 Sum of Mulliken charges =  -0.00000

 Dipole moment (field-independent basis, Debye):
    X=              2.8108    Y=              3.5590    Z=             -0.1265  Tot=              4.5368
 Quadrupole moment (field-independent basis, Debye-Ang):
   XX=           -372.1511   YY=           -391.1814   ZZ=           -402.9333
   XY=             -8.4330   XZ=             10.2292   YZ=              0.7687

 Normal termination of Gaussian 16 at Wed Oct 23 00:31:38 2019.
