 Gaussian 16, Revision A.03,
 Gaussian 16:  ES64L-G16RevA.03 25-Dec-2016

 ----------------------------------------------------------------------
 # td=(NStates=10) iop(3/107=0140000000,3/108=0140000000) CAM-B3LYP/6-3
 1G(d,p)
 ----------------------------------------------------------------------

 --
 TD
 --
 Symbolic Z-matrix:
 Charge =  0 Multiplicity = 1

                         Standard orientation:
 ---------------------------------------------------------------------
 Center     Atomic      Atomic             Coordinates (Angstroms)
 Number     Number       Type             X           Y           Z
 ---------------------------------------------------------------------
      1         12           0       -7.127956    0.605933    0.072784
      2          6           0       -4.885300   -1.930872    0.469831
      3          6           0       -4.800830    2.869669    1.056950
      4          6           0       -9.492515    3.062396   -0.228996
      5          6           0       -9.448890   -1.780558   -0.787078
      6          7           0       -4.971518    0.485491    0.539831
      7          6           0       -4.285912   -0.694253    0.687076
      8          6           0       -2.846578   -0.374675    1.242867
      9          6           0       -3.002496    1.124944    1.560923
     10          6           0       -4.387175    1.536255    1.055888
     11          6           0       -2.956340    1.293017    3.095601
     12          6           0       -1.852722   -0.490300    0.059018
     13          6           0       -0.414981   -0.579881    0.609847
     14          6           0        0.583516   -0.665543   -0.530407
     15          8           0        0.287203   -0.905145   -1.675678
     16          8           0        1.843538   -0.485345   -0.116722
     17          7           0       -7.115772    2.647842    0.359829
     18          6           0       -6.030127    3.360979    0.804322
     19          6           0       -6.410172    4.774620    0.753980
     20          6           0       -7.766405    4.761465    0.500373
     21          6           0       -8.259966    3.461191    0.277634
     22          6           0       -5.706669    6.036212    1.319434
     23          6           0       -8.644977    5.953635    0.370583
     24          6           0       -8.304004    7.273487    0.213617
     25          7           0       -9.133454    0.674514   -0.381312
     26          6           0       -9.885642    1.709060   -0.621419
     27          6           0      -11.251044    1.423922   -1.115464
     28          6           0      -11.211525    0.112987   -1.251363
     29          6           0       -9.900228   -0.369444   -0.892316
     30          6           0      -12.308378    2.424100   -1.284081
     31          6           0      -12.357776   -0.791760   -1.725698
     32          6           0      -12.306701   -1.010674   -3.224105
     33          7           0       -7.209284   -1.331306   -0.258953
     34          6           0       -8.278018   -2.259106   -0.531885
     35          6           0       -7.939244   -3.584682   -0.510242
     36          6           0       -6.541993   -3.526658   -0.138264
     37          6           0       -6.169345   -2.133983    0.022075
     38          6           0       -8.714240   -4.876964   -0.786016
     39          6           0       -5.428633   -4.373730    0.334254
     40          8           0       -5.255661   -5.547337    0.248030
     41          6           0       -4.196257   -3.312341    0.645082
     42          6           0       -3.542228   -3.654956    2.002888
     43          8           0       -3.781539   -3.215100    3.080271
     44          8           0       -2.628754   -4.650542    1.668001
     45          6           0       -1.995505   -5.242192    2.864056
     46          6           0        2.794547   -0.824875   -1.099722
     47          6           0        4.163379   -0.395742   -0.590781
     48          6           0        5.114712    0.321130   -1.035280
     49          6           0        5.018305    1.058169   -2.373066
     50          6           0        6.496052    0.439475   -0.456409
     51          6           0        7.651575   -0.402293   -1.084127
     52          6           0        8.928725   -0.151345   -0.287627
     53          6           0       10.204052   -0.629736   -1.015231
     54          6           0       10.154169   -2.169286   -1.212074
     55          6           0       11.444493   -0.342619   -0.065253
     56          6           0       12.835490   -0.559425   -0.663708
     57          6           0       13.959875   -0.202889    0.198455
     58          6           0       15.354909   -0.295639   -0.449495
     59          6           0       15.720813   -1.802756   -0.703208
     60          6           0       16.432053    0.490488    0.439886
     61          6           0       17.856182    0.541699   -0.155887
     62          6           0       18.765496    1.494044    0.778217
     63          6           0       20.186760    1.474288    0.282508
     64          6           0       20.219105    2.209619   -1.000124
     65          6           0       21.108448    2.259894    1.337466
     66          1           0       -4.204806    3.618393    1.498045
     67          1           0      -10.272783    3.821939   -0.517167
     68          1           0      -10.197895   -2.336741   -0.918224
     69          1           0       -2.792018   -1.184687    2.158249
     70          1           0       -2.219013    1.568449    0.962272
     71          1           0       -2.052835    0.934070    3.404639
     72          1           0       -2.946998    2.351858    3.268736
     73          1           0       -3.797453    0.686112    3.742314
     74          1           0       -1.972052   -1.383617   -0.352978
     75          1           0       -2.281991    0.330582   -0.600185
     76          1           0       -0.086982    0.318367    1.192821
     77          1           0       -0.297085   -1.283382    1.402316
     78          1           0       -5.181305    6.388069    0.186688
     79          1           0       -6.184352    6.843293    1.887497
     80          1           0       -4.746175    5.587806    1.961963
     81          1           0       -9.646743    5.756718    0.327516
     82          1           0       -9.235588    8.011711    0.107195
     83          1           0       -7.330660    7.824416    0.210788
     84          1           0      -11.835739    3.007028   -2.112351
     85          1           0      -13.360120    1.781537   -1.812513
     86          1           0      -12.436952    3.102179   -0.398668
     87          1           0      -12.323625   -1.726984   -1.127494
     88          1           0      -13.286040   -0.333775   -1.547137
     89          1           0      -13.099067   -1.674324   -3.538032
     90          1           0      -12.388380   -0.054780   -3.855047
     91          1           0      -11.388573   -1.471332   -3.607043
     92          1           0       -8.957667   -4.728667   -1.879951
     93          1           0       -8.151362   -5.721779   -0.639230
     94          1           0       -9.664508   -4.814292   -0.214510
     95          1           0       -3.491164   -3.424343   -0.164663
     96          1           0       -1.509477   -4.431231    3.468194
     97          1           0       -2.752898   -5.701145    3.471264
     98          1           0       -1.257890   -5.925659    2.495988
     99          1           0        2.722194   -1.831936   -1.332004
    100          1           0        2.552683   -0.260912   -2.156638
    101          1           0        4.216452   -0.772256    0.456822
    102          1           0        3.926990    1.031722   -2.762155
    103          1           0        5.418085    2.121663   -2.450965
    104          1           0        5.765963    0.571036   -3.263463
    105          1           0        6.712302    1.573006   -0.495210
    106          1           0        6.522769    0.119364    0.692954
    107          1           0        7.328098   -1.617296   -1.130615
    108          1           0        7.628332    0.014949   -2.309642
    109          1           0        8.729514    1.006760   -0.064364
    110          1           0        9.063004   -0.565254    0.657931
    111          1           0       10.287783   -0.192677   -2.015649
    112          1           0        9.418313   -2.658106   -2.087696
    113          1           0       11.158185   -2.655665   -1.461171
    114          1           0       10.044995   -2.484166   -0.231905
    115          1           0       11.278216    0.827557    0.170589
    116          1           0       11.640745   -0.882379    0.859746
    117          1           0       12.948744   -1.632987   -1.177790
    118          1           0       12.926059    0.032552   -1.588159
    119          1           0       13.568175    0.805568    0.538015
    120          1           0       13.832215   -0.664730    1.140374
    121          1           0       15.474359    0.242681   -1.419798
    122          1           0       15.873312   -2.115571    0.341440
    123          1           0       15.053368   -2.260383   -1.411542
    124          1           0       16.608740   -1.776435   -1.136338
    125          1           0       16.004457    1.469984    0.502697
    126          1           0       16.294286   -0.085140    1.273789
    127          1           0       18.193417   -0.527604   -0.267197
    128          1           0       17.806793    0.899407   -1.242666
    129          1           0       18.476744    2.555164    0.753105
    130          1           0       18.840551    0.722682    1.792721
    131          1           0       20.387760    0.351963    0.297216
    132          1           0       19.760694    3.242834   -0.728668
    133          1           0       21.268964    2.417332   -1.522882
    134          1           0       19.688472    1.707042   -1.730824
    135          1           0       21.088889    1.597101    2.256425
    136          1           0       22.200137    2.314338    0.993337
    137          1           0       20.647779    3.218382    1.497479
 ---------------------------------------------------------------------

 SCF Done:  E(RCAM-B3LYP) =  -2933.47704697     A.U. after   16 cycles

 Excitation energies and oscillator strengths:

 Excited State   1:      Singlet-A      2.1255 eV  583.33 nm  f=0.1885  <S**2>=0.000
     240 -> 243        0.27307
     241 -> 242        0.64658
 This state for optimization and/or second-order correction.
 Total Energy, E(TD-HF/TD-DFT) =  -2933.39893748
 Copying the excited state density for this state as the 1-particle RhoCI density.

 Excited State   2:      Singlet-A      2.3980 eV  517.04 nm  f=0.0034  <S**2>=0.000
     240 -> 242        0.54037
     241 -> 243       -0.43925

 Excited State   3:      Singlet-A      3.0023 eV  412.97 nm  f=0.0143  <S**2>=0.000
     239 -> 242        0.66154
     239 -> 243        0.14980
     241 -> 243       -0.12473

 Excited State   4:      Singlet-A      3.2284 eV  384.04 nm  f=0.7899  <S**2>=0.000
     236 -> 242       -0.11109
     237 -> 242        0.15179
     240 -> 242        0.40281
     240 -> 243       -0.14502
     241 -> 243        0.49836

 Excited State   5:      Singlet-A      3.3807 eV  366.74 nm  f=0.4596  <S**2>=0.000
     237 -> 242        0.29326
     237 -> 244       -0.14509
     238 -> 242        0.27373
     240 -> 243        0.48862
     241 -> 242       -0.20492

 Excited State   6:      Singlet-A      3.4126 eV  363.32 nm  f=0.4313  <S**2>=0.000
     237 -> 242        0.46349
     237 -> 244       -0.19673
     238 -> 242        0.15637
     240 -> 242       -0.14455
     240 -> 243       -0.34068
     241 -> 242        0.15375
     241 -> 243       -0.16595

 Excited State   7:      Singlet-A      3.5851 eV  345.83 nm  f=0.1232  <S**2>=0.000
     236 -> 242        0.10337
     237 -> 242       -0.25338
     238 -> 242        0.58561
     238 -> 243       -0.13894
     240 -> 242        0.10143
     240 -> 243       -0.14913

 Excited State   8:      Singlet-A      3.8063 eV  325.74 nm  f=0.0174  <S**2>=0.000
     236 -> 242        0.14168
     239 -> 243        0.48242
     241 -> 244        0.45768

 Excited State   9:      Singlet-A      3.8614 eV  321.09 nm  f=0.0709  <S**2>=0.000
     236 -> 242       -0.18560
     238 -> 243        0.15173
     239 -> 242       -0.12574
     239 -> 243        0.46568
     241 -> 244       -0.42582

 Excited State  10:      Singlet-A      3.8811 eV  319.46 nm  f=0.0926  <S**2>=0.000
     236 -> 242        0.61570
     241 -> 244       -0.25993

 The electronic state is 1-A.
 Alpha  occ. eigenvalues --  -46.79830 -19.22658 -19.21644 -19.17810 -19.16731
 Alpha  occ. eigenvalues --  -19.16296 -14.37202 -14.35113 -14.34998 -14.34390
 Alpha  occ. eigenvalues --  -10.34699 -10.34501 -10.30411 -10.27839 -10.26544
 Alpha  occ. eigenvalues --  -10.26239 -10.26110 -10.25272 -10.25007 -10.24881
 Alpha  occ. eigenvalues --  -10.24486 -10.24459 -10.24394 -10.24375 -10.24296
 Alpha  occ. eigenvalues --  -10.24288 -10.23621 -10.23619 -10.23593 -10.23529
 Alpha  occ. eigenvalues --  -10.23520 -10.23167 -10.23041 -10.22849 -10.22760
 Alpha  occ. eigenvalues --  -10.22696 -10.22665 -10.22619 -10.22613 -10.22500
 Alpha  occ. eigenvalues --  -10.22293 -10.22182 -10.22135 -10.22135 -10.22037
 Alpha  occ. eigenvalues --  -10.21880 -10.21838 -10.21669 -10.21564 -10.21469
 Alpha  occ. eigenvalues --  -10.21432 -10.21337 -10.21209 -10.21157 -10.21126
 Alpha  occ. eigenvalues --  -10.21070 -10.21027 -10.20947 -10.20812 -10.20657
 Alpha  occ. eigenvalues --  -10.20631 -10.20614 -10.20118 -10.19616 -10.19107
 Alpha  occ. eigenvalues --   -3.08419  -1.83362  -1.82901  -1.82814  -1.14720
 Alpha  occ. eigenvalues --   -1.12214  -1.07436  -1.05186  -1.04942  -0.99730
 Alpha  occ. eigenvalues --   -0.99340  -0.97921  -0.97027  -0.86961  -0.86129
 Alpha  occ. eigenvalues --   -0.85495  -0.85250  -0.84603  -0.84429  -0.83639
 Alpha  occ. eigenvalues --   -0.83422  -0.83326  -0.82220  -0.82021  -0.81067
 Alpha  occ. eigenvalues --   -0.80124  -0.79174  -0.78975  -0.77981  -0.76747
 Alpha  occ. eigenvalues --   -0.76358  -0.76210  -0.75657  -0.75095  -0.73727
 Alpha  occ. eigenvalues --   -0.73106  -0.71765  -0.70995  -0.70660  -0.70429
 Alpha  occ. eigenvalues --   -0.70374  -0.69909  -0.69329  -0.69006  -0.67934
 Alpha  occ. eigenvalues --   -0.67409  -0.66181  -0.65569  -0.64263  -0.63578
 Alpha  occ. eigenvalues --   -0.62060  -0.61955  -0.61067  -0.60571  -0.60260
 Alpha  occ. eigenvalues --   -0.59995  -0.59730  -0.59117  -0.58193  -0.57907
 Alpha  occ. eigenvalues --   -0.57403  -0.56370  -0.55945  -0.55505  -0.54955
 Alpha  occ. eigenvalues --   -0.54599  -0.53995  -0.53957  -0.52937  -0.52815
 Alpha  occ. eigenvalues --   -0.52607  -0.51428  -0.51150  -0.51134  -0.50932
 Alpha  occ. eigenvalues --   -0.50603  -0.50078  -0.50002  -0.49951  -0.49418
 Alpha  occ. eigenvalues --   -0.48988  -0.48546  -0.48292  -0.47942  -0.47804
 Alpha  occ. eigenvalues --   -0.47656  -0.47577  -0.47362  -0.46960  -0.46890
 Alpha  occ. eigenvalues --   -0.46488  -0.46459  -0.45965  -0.45842  -0.45491
 Alpha  occ. eigenvalues --   -0.45423  -0.45191  -0.44934  -0.44799  -0.44711
 Alpha  occ. eigenvalues --   -0.44467  -0.44250  -0.44066  -0.43961  -0.43510
 Alpha  occ. eigenvalues --   -0.43346  -0.43145  -0.43074  -0.42775  -0.42374
 Alpha  occ. eigenvalues --   -0.42291  -0.42203  -0.42155  -0.41882  -0.41564
 Alpha  occ. eigenvalues --   -0.41437  -0.41278  -0.41185  -0.41042  -0.40946
 Alpha  occ. eigenvalues --   -0.40850  -0.40582  -0.40317  -0.40255  -0.40052
 Alpha  occ. eigenvalues --   -0.39998  -0.39728  -0.39474  -0.39412  -0.39244
 Alpha  occ. eigenvalues --   -0.38809  -0.38604  -0.38334  -0.38134  -0.37840
 Alpha  occ. eigenvalues --   -0.37573  -0.37299  -0.37244  -0.37028  -0.36830
 Alpha  occ. eigenvalues --   -0.36720  -0.36646  -0.36493  -0.35767  -0.35608
 Alpha  occ. eigenvalues --   -0.35451  -0.35175  -0.35158  -0.35105  -0.34694
 Alpha  occ. eigenvalues --   -0.34242  -0.34158  -0.33885  -0.33794  -0.33326
 Alpha  occ. eigenvalues --   -0.33320  -0.33084  -0.32970  -0.32669  -0.32562
 Alpha  occ. eigenvalues --   -0.32406  -0.32027  -0.31309  -0.31142  -0.30492
 Alpha  occ. eigenvalues --   -0.30205  -0.29846  -0.29701  -0.28053  -0.27824
 Alpha  occ. eigenvalues --   -0.27101  -0.26428  -0.26109  -0.24053  -0.21660
 Alpha  occ. eigenvalues --   -0.19930
 Alpha virt. eigenvalues --   -0.06352  -0.04042  -0.00105   0.03041   0.03944
 Alpha virt. eigenvalues --    0.04132   0.04630   0.04882   0.05415   0.05820
 Alpha virt. eigenvalues --    0.07214   0.07645   0.08549   0.09104   0.09170

 Mulliken charges:
               1
     1  Mg   0.802770
     2  C    0.063910
     3  C   -0.161521
     4  C   -0.191156
     5  C   -0.178729
     6  N   -0.610162
     7  C    0.251530
     8  C   -0.171852
     9  C   -0.161667
    10  C    0.352403
    11  C   -0.300495
    12  C   -0.148208
    13  C   -0.291489
    14  C    0.617065
    15  O   -0.466167
    16  O   -0.450082
    17  N   -0.729106
    18  C    0.329867
    19  C   -0.009187
    20  C    0.011289
    21  C    0.329404
    22  C   -0.334748
    23  C   -0.060373
    24  C   -0.253696
    25  N   -0.641019
    26  C    0.292694
    27  C    0.072458
    28  C    0.011790
    29  C    0.228802
    30  C   -0.370754
    31  C   -0.232080
    32  C   -0.312223
    33  N   -0.769107
    34  C    0.320772
    35  C    0.067263
    36  C   -0.067618
    37  C    0.354499
    38  C   -0.352985
    39  C    0.354924
    40  O   -0.431435
    41  C   -0.310914
    42  C    0.611779
    43  O   -0.455336
    44  O   -0.464790
    45  C   -0.093162
    46  C    0.011746
    47  C   -0.144569
    48  C    0.172575
    49  C   -0.363402
    50  C   -0.232842
    51  C   -0.131157
    52  C   -0.143542
    53  C   -0.066726
    54  C   -0.300491
    55  C   -0.188980
    56  C   -0.170248
    57  C   -0.161922
    58  C   -0.105240
    59  C   -0.303479
    60  C   -0.162389
    61  C   -0.198115
    62  C   -0.139412
    63  C   -0.061907
    64  C   -0.280999
    65  C   -0.297240
    66  H    0.065689
    67  H    0.079716
    68  H    0.033549
    69  H    0.108735
    70  H    0.114025
    71  H    0.116934
    72  H    0.105657
    73  H    0.110575
    74  H    0.128066
    75  H    0.117634
    76  H    0.124680
    77  H    0.147407
    78  H    0.092424
    79  H    0.141495
    80  H    0.083479
    81  H    0.081195
    82  H    0.078267
    83  H    0.107288
    84  H    0.135161
    85  H    0.076961
    86  H    0.132208
    87  H    0.101469
    88  H    0.106310
    89  H    0.104690
    90  H    0.099190
    91  H    0.110799
    92  H    0.129555
    93  H    0.156473
    94  H    0.126392
    95  H    0.161083
    96  H    0.119674
    97  H    0.140807
    98  H    0.130161
    99  H    0.135384
   100  H    0.101670
   101  H    0.080802
   102  H    0.104478
   103  H    0.114662
   104  H    0.084177
   105  H    0.092480
   106  H    0.079647
   107  H    0.078438
   108  H    0.058298
   109  H    0.077014
   110  H    0.108174
   111  H    0.092192
   112  H    0.080570
   113  H    0.096539
   114  H    0.109136
   115  H    0.074287
   116  H    0.096878
   117  H    0.064679
   118  H    0.088919
   119  H    0.078611
   120  H    0.087244
   121  H    0.074006
   122  H    0.097779
   123  H    0.111288
   124  H    0.109966
   125  H    0.098953
   126  H    0.096414
   127  H    0.092617
   128  H    0.086141
   129  H    0.092482
   130  H    0.066226
   131  H    0.076434
   132  H    0.080259
   133  H    0.079245
   134  H    0.112562
   135  H    0.091687
   136  H    0.094833
   137  H    0.102265
 Sum of Mulliken charges =  -0.00000

 Dipole moment (field-independent basis, Debye):
    X=              1.2145    Y=              2.2367    Z=              0.7717  Tot=              2.6596
 Quadrupole moment (field-independent basis, Debye-Ang):
   XX=           -343.5490   YY=           -395.7839   ZZ=           -399.4694
   XY=            -12.2173   XZ=              7.6439   YZ=             -2.1068

 Normal termination of Gaussian 16 at Wed Oct 23 18:56:51 2019.
