 Gaussian 16, Revision A.03,
 Gaussian 16:  ES64L-G16RevA.03 25-Dec-2016

 ----------------------------------------------------------------------
 # td=(NStates=10) iop(3/107=0140000000,3/108=0140000000) CAM-B3LYP/6-3
 1G(d,p)
 ----------------------------------------------------------------------

 --
 TD
 --
 Symbolic Z-matrix:
 Charge =  0 Multiplicity = 1

                         Standard orientation:
 ---------------------------------------------------------------------
 Center     Atomic      Atomic             Coordinates (Angstroms)
 Number     Number       Type             X           Y           Z
 ---------------------------------------------------------------------
      1         12           0       -7.154982    0.670552   -0.005901
      2          6           0       -4.956290   -2.002283    0.533334
      3          6           0       -4.859879    2.843437    1.121058
      4          6           0       -9.466906    3.141139   -0.363278
      5          6           0       -9.544850   -1.700112   -0.802156
      6          7           0       -5.097044    0.415977    0.736733
      7          6           0       -4.365864   -0.689399    0.849746
      8          6           0       -2.886303   -0.341089    1.306304
      9          6           0       -3.026338    1.077151    1.603282
     10          6           0       -4.451029    1.535953    1.059996
     11          6           0       -2.973508    1.335440    3.143044
     12          6           0       -1.941981   -0.634651    0.054796
     13          6           0       -0.480310   -0.554459    0.568989
     14          6           0        0.525355   -0.773549   -0.539966
     15          8           0        0.155772   -1.142476   -1.651394
     16          8           0        1.838488   -0.534292   -0.156609
     17          7           0       -7.179396    2.605054    0.422837
     18          6           0       -6.078082    3.367145    0.779349
     19          6           0       -6.416136    4.764775    0.804481
     20          6           0       -7.727594    4.820148    0.361762
     21          6           0       -8.179858    3.457437    0.211137
     22          6           0       -5.573801    5.947457    1.257224
     23          6           0       -8.593891    6.065092    0.148223
     24          6           0       -8.210746    7.301605   -0.061206
     25          7           0       -9.148337    0.701164   -0.413202
     26          6           0       -9.894115    1.806618   -0.661290
     27          6           0      -11.218779    1.475328   -1.017541
     28          6           0      -11.222185    0.091685   -1.123447
     29          6           0       -9.934937   -0.393741   -0.795336
     30          6           0      -12.331750    2.364164   -1.250235
     31          6           0      -12.420598   -0.716612   -1.552068
     32          6           0      -12.179506   -1.184078   -3.023923
     33          7           0       -7.222889   -1.438808   -0.181318
     34          6           0       -8.254487   -2.212951   -0.484671
     35          6           0       -7.843769   -3.590214   -0.468117
     36          6           0       -6.517933   -3.527223   -0.092959
     37          6           0       -6.266434   -2.203745    0.175366
     38          6           0       -8.713637   -4.732403   -0.863396
     39          6           0       -5.423398   -4.416552    0.242870
     40          8           0       -5.255381   -5.635843    0.272546
     41          6           0       -4.150219   -3.335496    0.565498
     42          6           0       -3.385224   -3.699383    1.804802
     43          8           0       -3.600655   -3.124502    2.870392
     44          8           0       -2.573453   -4.828764    1.580071
     45          6           0       -1.817423   -5.109372    2.775139
     46          6           0        2.726280   -0.839434   -1.188867
     47          6           0        3.979052   -0.493933   -0.615653
     48          6           0        5.068215    0.314167   -0.963715
     49          6           0        5.001579    1.097983   -2.196402
     50          6           0        6.410852    0.376130   -0.292901
     51          6           0        7.647103   -0.116268   -1.042039
     52          6           0        8.927752   -0.206911   -0.268942
     53          6           0       10.305528   -0.542280   -0.948359
     54          6           0       10.205003   -2.017895   -1.448913
     55          6           0       11.374841   -0.220204   -0.017876
     56          6           0       12.780923   -0.542424   -0.752984
     57          6           0       14.020045   -0.052693    0.051048
     58          6           0       15.361092   -0.192153   -0.585863
     59          6           0       15.725209   -1.697224   -0.910729
     60          6           0       16.321211    0.500371    0.421567
     61          6           0       17.795801    0.588708   -0.161313
     62          6           0       18.805733    1.263529    0.775454
     63          6           0       20.229052    1.438337    0.368679
     64          6           0       20.316745    2.186121   -0.937990
     65          6           0       21.133208    2.008897    1.529046
     66          1           0       -4.170416    3.694705    1.548125
     67          1           0      -10.124268    4.053801   -0.306297
     68          1           0      -10.241404   -2.539200   -1.143131
     69          1           0       -2.714721   -0.914212    2.038809
     70          1           0       -2.111884    1.448410    1.163683
     71          1           0       -2.052070    0.916639    3.576733
     72          1           0       -2.965738    2.468740    3.166996
     73          1           0       -3.757538    0.883868    3.629571
     74          1           0       -2.246810   -1.614069   -0.504494
     75          1           0       -2.167339    0.103670   -0.670280
     76          1           0       -0.535419    0.404256    1.066700
     77          1           0       -0.205446   -1.293810    1.369572
     78          1           0       -5.080879    6.401653    0.552672
     79          1           0       -6.122862    6.578191    1.954098
     80          1           0       -4.716916    5.568500    1.831751
     81          1           0       -9.711043    5.782136    0.331382
     82          1           0       -8.912901    8.353446   -0.073493
     83          1           0       -7.190954    7.587579   -0.106586
     84          1           0      -12.119236    2.993367   -2.195257
     85          1           0      -13.324062    1.940135   -1.558487
     86          1           0      -12.689051    3.278808   -0.555127
     87          1           0      -12.596289   -1.659632   -0.862361
     88          1           0      -13.247822   -0.081898   -1.472821
     89          1           0      -13.195096   -1.711050   -3.461128
     90          1           0      -11.910128   -0.269353   -3.625912
     91          1           0      -11.231734   -1.731913   -3.168306
     92          1           0       -9.087088   -4.626852   -1.825889
     93          1           0       -8.144897   -5.717053   -0.703544
     94          1           0       -9.581908   -4.740078   -0.157064
     95          1           0       -3.472033   -3.351484   -0.375979
     96          1           0       -1.219371   -4.374723    3.275195
     97          1           0       -2.457097   -5.603270    3.502485
     98          1           0       -1.078529   -5.966081    2.581969
     99          1           0        2.649587   -1.979657   -1.398481
    100          1           0        2.544091   -0.140350   -2.078213
    101          1           0        4.384254   -1.091044    0.335137
    102          1           0        3.897454    1.343040   -2.563626
    103          1           0        5.680672    2.080620   -2.208370
    104          1           0        5.515329    0.585060   -2.915842
    105          1           0        6.678112    1.446996    0.032477
    106          1           0        6.276614   -0.101508    0.791968
    107          1           0        7.441821   -1.144953   -1.583324
    108          1           0        7.874101    0.640307   -1.808951
    109          1           0        9.061897    0.785377    0.149841
    110          1           0        8.827601   -0.778790    0.591604
    111          1           0       10.734846    0.019188   -1.758143
    112          1           0        9.431326   -2.048787   -2.210826
    113          1           0       11.122147   -2.260128   -1.887682
    114          1           0        9.871449   -2.572533   -0.564765
    115          1           0       11.268079    0.758122    0.274631
    116          1           0       11.408828   -0.927084    0.808558
    117          1           0       12.839613   -1.670176   -1.002917
    118          1           0       12.679812    0.103630   -1.558360
    119          1           0       13.782240    0.824229    0.405508
    120          1           0       14.056184   -0.423645    1.122873
    121          1           0       15.313389    0.374939   -1.624205
    122          1           0       15.715003   -2.219112    0.256373
    123          1           0       15.105081   -2.088733   -1.664528
    124          1           0       16.677011   -1.673428   -1.472945
    125          1           0       15.925897    1.454923    0.601709
    126          1           0       16.430245   -0.112862    1.345235
    127          1           0       18.300492   -0.376974   -0.752419
    128          1           0       17.618055    1.194987   -1.192207
    129          1           0       18.667154    2.256918    0.996290
    130          1           0       18.723373    0.937897    1.846842
    131          1           0       20.514343    0.545298    0.448497
    132          1           0       19.573505    3.126033   -0.905744
    133          1           0       21.284086    2.433572   -1.048533
    134          1           0       19.859093    1.795122   -1.740807
    135          1           0       21.182639    1.303068    2.407252
    136          1           0       22.200979    2.010858    1.058436
    137          1           0       21.024929    2.842510    1.959106
 ---------------------------------------------------------------------

 SCF Done:  E(RCAM-B3LYP) =  -2933.48740740     A.U. after   16 cycles

 Excitation energies and oscillator strengths:

 Excited State   1:      Singlet-A      2.1001 eV  590.37 nm  f=0.2161  <S**2>=0.000
     240 -> 243       -0.28027
     241 -> 242        0.64570
 This state for optimization and/or second-order correction.
 Total Energy, E(TD-HF/TD-DFT) =  -2933.41023034
 Copying the excited state density for this state as the 1-particle RhoCI density.

 Excited State   2:      Singlet-A      2.2899 eV  541.44 nm  f=0.0155  <S**2>=0.000
     240 -> 242        0.57576
     241 -> 243        0.39463

 Excited State   3:      Singlet-A      3.1271 eV  396.49 nm  f=0.5717  <S**2>=0.000
     236 -> 242       -0.14548
     238 -> 242        0.11777
     240 -> 242       -0.34301
     240 -> 244        0.11049
     241 -> 243        0.54011
     241 -> 244        0.12607

 Excited State   4:      Singlet-A      3.2680 eV  379.39 nm  f=0.0957  <S**2>=0.000
     236 -> 242       -0.29129
     236 -> 244        0.13192
     238 -> 242       -0.24739
     239 -> 242        0.51286
     240 -> 243       -0.17925

 Excited State   5:      Singlet-A      3.3140 eV  374.12 nm  f=0.0684  <S**2>=0.000
     236 -> 242        0.52505
     236 -> 243       -0.10365
     236 -> 244       -0.23605
     239 -> 242        0.31313
     240 -> 242       -0.12447
     241 -> 243        0.15117

 Excited State   6:      Singlet-A      3.3782 eV  367.01 nm  f=0.5107  <S**2>=0.000
     238 -> 242        0.29611
     239 -> 242        0.32325
     239 -> 243       -0.14675
     240 -> 243        0.45148
     241 -> 242        0.20386
     241 -> 244       -0.12200

 Excited State   7:      Singlet-A      3.4417 eV  360.24 nm  f=0.2165  <S**2>=0.000
     238 -> 242        0.54613
     238 -> 243        0.12140
     239 -> 242        0.12158
     240 -> 243       -0.34663
     241 -> 242       -0.15224

 Excited State   8:      Singlet-A      3.7460 eV  330.98 nm  f=0.1639  <S**2>=0.000
     235 -> 242        0.13362
     238 -> 243        0.17490
     239 -> 243        0.60704
     240 -> 243        0.14442
     241 -> 244       -0.20609

 Excited State   9:      Singlet-A      3.7858 eV  327.50 nm  f=0.0036  <S**2>=0.000
     234 -> 242       -0.10628
     235 -> 242        0.50637
     239 -> 243       -0.21835
     240 -> 243       -0.10174
     241 -> 244       -0.37137

 Excited State  10:      Singlet-A      3.8547 eV  321.65 nm  f=0.4946  <S**2>=0.000
     235 -> 242        0.40741
     240 -> 242        0.16815
     240 -> 243        0.15038
     241 -> 243       -0.11760
     241 -> 244        0.48154

 The electronic state is 1-A.
 Alpha  occ. eigenvalues --  -46.80780 -19.22644 -19.22497 -19.17537 -19.17187
 Alpha  occ. eigenvalues --  -19.16887 -14.38159 -14.35268 -14.34903 -14.34754
 Alpha  occ. eigenvalues --  -10.35110 -10.34908 -10.31324 -10.28154 -10.26606
 Alpha  occ. eigenvalues --  -10.26539 -10.26445 -10.25022 -10.24910 -10.24727
 Alpha  occ. eigenvalues --  -10.24501 -10.24275 -10.24234 -10.23974 -10.23849
 Alpha  occ. eigenvalues --  -10.23542 -10.23406 -10.23316 -10.23276 -10.23253
 Alpha  occ. eigenvalues --  -10.23213 -10.23177 -10.23147 -10.23125 -10.22884
 Alpha  occ. eigenvalues --  -10.22806 -10.22677 -10.22650 -10.22591 -10.22493
 Alpha  occ. eigenvalues --  -10.22432 -10.22371 -10.22363 -10.22357 -10.22013
 Alpha  occ. eigenvalues --  -10.21782 -10.21757 -10.21728 -10.21670 -10.21453
 Alpha  occ. eigenvalues --  -10.21254 -10.21124 -10.21094 -10.21028 -10.20947
 Alpha  occ. eigenvalues --  -10.20878 -10.20758 -10.20334 -10.19642 -10.19632
 Alpha  occ. eigenvalues --  -10.19515 -10.19441 -10.19255 -10.19154 -10.19043
 Alpha  occ. eigenvalues --   -3.09307  -1.84246  -1.83759  -1.83722  -1.13308
 Alpha  occ. eigenvalues --   -1.11179  -1.05394  -1.05080  -1.04013  -1.02434
 Alpha  occ. eigenvalues --   -1.00113  -0.99132  -0.97925  -0.86942  -0.86549
 Alpha  occ. eigenvalues --   -0.85846  -0.85471  -0.85141  -0.84169  -0.83863
 Alpha  occ. eigenvalues --   -0.83669  -0.83429  -0.82933  -0.82528  -0.81592
 Alpha  occ. eigenvalues --   -0.80161  -0.79284  -0.78325  -0.78053  -0.77379
 Alpha  occ. eigenvalues --   -0.76874  -0.76171  -0.75475  -0.74639  -0.74054
 Alpha  occ. eigenvalues --   -0.73613  -0.72380  -0.72311  -0.71556  -0.71377
 Alpha  occ. eigenvalues --   -0.71216  -0.70914  -0.70719  -0.68450  -0.68028
 Alpha  occ. eigenvalues --   -0.67274  -0.66344  -0.65202  -0.65056  -0.64614
 Alpha  occ. eigenvalues --   -0.62697  -0.62479  -0.61857  -0.61097  -0.60943
 Alpha  occ. eigenvalues --   -0.60110  -0.59837  -0.59296  -0.59282  -0.57910
 Alpha  occ. eigenvalues --   -0.57896  -0.57067  -0.56842  -0.56021  -0.55553
 Alpha  occ. eigenvalues --   -0.54845  -0.54239  -0.53880  -0.53502  -0.52813
 Alpha  occ. eigenvalues --   -0.52395  -0.51655  -0.51583  -0.51145  -0.50695
 Alpha  occ. eigenvalues --   -0.50521  -0.50204  -0.49901  -0.49714  -0.49486
 Alpha  occ. eigenvalues --   -0.49253  -0.49194  -0.48789  -0.48613  -0.48356
 Alpha  occ. eigenvalues --   -0.48142  -0.47918  -0.47805  -0.47470  -0.47241
 Alpha  occ. eigenvalues --   -0.46982  -0.46624  -0.46349  -0.46076  -0.45907
 Alpha  occ. eigenvalues --   -0.45811  -0.45174  -0.45034  -0.44764  -0.44508
 Alpha  occ. eigenvalues --   -0.44251  -0.44163  -0.43954  -0.43815  -0.43525
 Alpha  occ. eigenvalues --   -0.43409  -0.43188  -0.42987  -0.42783  -0.42629
 Alpha  occ. eigenvalues --   -0.42553  -0.42056  -0.41927  -0.41781  -0.41623
 Alpha  occ. eigenvalues --   -0.41400  -0.41152  -0.40969  -0.40939  -0.40744
 Alpha  occ. eigenvalues --   -0.40716  -0.40548  -0.40429  -0.40187  -0.39995
 Alpha  occ. eigenvalues --   -0.39926  -0.39868  -0.39622  -0.39367  -0.39163
 Alpha  occ. eigenvalues --   -0.39045  -0.38813  -0.38708  -0.38427  -0.38361
 Alpha  occ. eigenvalues --   -0.38128  -0.38011  -0.37973  -0.37549  -0.37231
 Alpha  occ. eigenvalues --   -0.36676  -0.36511  -0.36444  -0.36239  -0.35884
 Alpha  occ. eigenvalues --   -0.35789  -0.35726  -0.35411  -0.35307  -0.34556
 Alpha  occ. eigenvalues --   -0.34292  -0.34252  -0.34223  -0.33766  -0.33563
 Alpha  occ. eigenvalues --   -0.33089  -0.32935  -0.32877  -0.32824  -0.32747
 Alpha  occ. eigenvalues --   -0.32614  -0.32406  -0.31174  -0.31038  -0.30638
 Alpha  occ. eigenvalues --   -0.30584  -0.30515  -0.30170  -0.28644  -0.27603
 Alpha  occ. eigenvalues --   -0.26593  -0.26056  -0.25981  -0.25334  -0.21499
 Alpha  occ. eigenvalues --   -0.20155
 Alpha virt. eigenvalues --   -0.06884  -0.04179  -0.00235   0.02440   0.02709
 Alpha virt. eigenvalues --    0.03001   0.03196   0.03234   0.05227   0.06061
 Alpha virt. eigenvalues --    0.07134   0.08763   0.09517   0.09662   0.10274

 Mulliken charges:
               1
     1  Mg   0.832736
     2  C    0.022912
     3  C   -0.179227
     4  C   -0.161932
     5  C   -0.195134
     6  N   -0.607272
     7  C    0.253295
     8  C   -0.098000
     9  C   -0.158967
    10  C    0.337252
    11  C   -0.304409
    12  C   -0.186460
    13  C   -0.263012
    14  C    0.610889
    15  O   -0.461269
    16  O   -0.453609
    17  N   -0.732704
    18  C    0.303470
    19  C    0.018852
    20  C   -0.013707
    21  C    0.302843
    22  C   -0.372353
    23  C   -0.040879
    24  C   -0.260787
    25  N   -0.715555
    26  C    0.293059
    27  C    0.100696
    28  C    0.000595
    29  C    0.332892
    30  C   -0.419730
    31  C   -0.217615
    32  C   -0.306874
    33  N   -0.697993
    34  C    0.282507
    35  C    0.006496
    36  C    0.023304
    37  C    0.336688
    38  C   -0.388355
    39  C    0.361422
    40  O   -0.455549
    41  C   -0.327862
    42  C    0.642098
    43  O   -0.471904
    44  O   -0.450790
    45  C   -0.100272
    46  C    0.014019
    47  C   -0.107979
    48  C    0.137884
    49  C   -0.371865
    50  C   -0.234163
    51  C   -0.164793
    52  C   -0.176565
    53  C   -0.062304
    54  C   -0.307411
    55  C   -0.174312
    56  C   -0.208323
    57  C   -0.157483
    58  C   -0.058179
    59  C   -0.285682
    60  C   -0.167825
    61  C   -0.172849
    62  C   -0.176274
    63  C   -0.034184
    64  C   -0.295360
    65  C   -0.338328
    66  H    0.080287
    67  H    0.082399
    68  H    0.088173
    69  H    0.110592
    70  H    0.091304
    71  H    0.102921
    72  H    0.098369
    73  H    0.134814
    74  H    0.106773
    75  H    0.122260
    76  H    0.133108
    77  H    0.135215
    78  H    0.141102
    79  H    0.135105
    80  H    0.099511
    81  H    0.085653
    82  H    0.086363
    83  H    0.107337
    84  H    0.116267
    85  H    0.118962
    86  H    0.107268
    87  H    0.090669
    88  H    0.105087
    89  H    0.084327
    90  H    0.105988
    91  H    0.114713
    92  H    0.137218
    93  H    0.137685
    94  H    0.125098
    95  H    0.148280
    96  H    0.130549
    97  H    0.132698
    98  H    0.108200
    99  H    0.125753
   100  H    0.110250
   101  H    0.061633
   102  H    0.097533
   103  H    0.085917
   104  H    0.144439
   105  H    0.097263
   106  H    0.077327
   107  H    0.082033
   108  H    0.099315
   109  H    0.078395
   110  H    0.101014
   111  H    0.074057
   112  H    0.104225
   113  H    0.103065
   114  H    0.100005
   115  H    0.097890
   116  H    0.087274
   117  H    0.097046
   118  H    0.099169
   119  H    0.092419
   120  H    0.064428
   121  H    0.060876
   122  H    0.075348
   123  H    0.111619
   124  H    0.101039
   125  H    0.110123
   126  H    0.095313
   127  H    0.070947
   128  H    0.062175
   129  H    0.097679
   130  H    0.068201
   131  H    0.101808
   132  H    0.071301
   133  H    0.105329
   134  H    0.117817
   135  H    0.090669
   136  H    0.080704
   137  H    0.116496
 Sum of Mulliken charges =  -0.00000

 Dipole moment (field-independent basis, Debye):
    X=              1.8239    Y=              5.0151    Z=             -0.3009  Tot=              5.3450
 Quadrupole moment (field-independent basis, Debye-Ang):
   XX=           -352.0310   YY=           -398.5036   ZZ=           -397.5880
   XY=            -17.5014   XZ=             11.6986   YZ=              0.5995

 Normal termination of Gaussian 16 at Tue Oct 22 04:19:50 2019.
