 Gaussian 16, Revision A.03,
 Gaussian 16:  ES64L-G16RevA.03 25-Dec-2016

 ----------------------------------------------------------------------
 # td=(NStates=10) iop(3/107=0140000000,3/108=0140000000) CAM-B3LYP/6-3
 1G(d,p)
 ----------------------------------------------------------------------

 --
 TD
 --
 Symbolic Z-matrix:
 Charge =  0 Multiplicity = 1

                         Standard orientation:
 ---------------------------------------------------------------------
 Center     Atomic      Atomic             Coordinates (Angstroms)
 Number     Number       Type             X           Y           Z
 ---------------------------------------------------------------------
      1         12           0       -7.182295    0.451527    0.166475
      2          6           0       -4.889336   -1.935279    0.353152
      3          6           0       -4.867640    2.843320    1.202596
      4          6           0       -9.459375    3.133488   -0.253816
      5          6           0       -9.680702   -1.760095   -0.772897
      6          7           0       -5.147883    0.433383    0.608537
      7          6           0       -4.380435   -0.681155    0.678737
      8          6           0       -2.893453   -0.376329    1.119837
      9          6           0       -3.133595    1.072308    1.573834
     10          6           0       -4.449123    1.502886    1.136166
     11          6           0       -3.025088    1.274529    3.156384
     12          6           0       -1.814869   -0.552018    0.095521
     13          6           0       -0.434917   -0.370169    0.482668
     14          6           0        0.556379   -0.560646   -0.697291
     15          8           0        0.154357   -0.961537   -1.807843
     16          8           0        1.852281   -0.381691   -0.362543
     17          7           0       -7.137879    2.557201    0.391800
     18          6           0       -6.164856    3.311593    0.813163
     19          6           0       -6.383074    4.771823    0.799572
     20          6           0       -7.694456    4.872477    0.511307
     21          6           0       -8.155488    3.491405    0.185514
     22          6           0       -5.443679    5.809069    1.192219
     23          6           0       -8.640295    6.036877    0.250361
     24          6           0       -8.113900    7.281575    0.001320
     25          7           0       -9.175129    0.776557   -0.659296
     26          6           0       -9.958568    1.817801   -0.661212
     27          6           0      -11.221928    1.499379   -1.095707
     28          6           0      -11.360110    0.100310   -1.107913
     29          6           0       -9.996516   -0.337160   -0.818434
     30          6           0      -12.361324    2.514157   -1.238273
     31          6           0      -12.364655   -0.742542   -1.522066
     32          6           0      -12.439815   -1.127781   -2.998457
     33          7           0       -7.401980   -1.460492   -0.043677
     34          6           0       -8.423511   -2.228343   -0.486037
     35          6           0       -7.894998   -3.647677   -0.544595
     36          6           0       -6.497195   -3.579453   -0.224515
     37          6           0       -6.254102   -2.240443    0.002921
     38          6           0       -8.747279   -4.778989   -0.836276
     39          6           0       -5.291683   -4.427456    0.010438
     40          8           0       -5.103038   -5.593244    0.081834
     41          6           0       -4.142958   -3.339501    0.390048
     42          6           0       -3.593591   -3.678977    1.776388
     43          8           0       -3.799509   -3.098616    2.822510
     44          8           0       -2.906755   -4.840029    1.764325
     45          6           0       -2.317117   -5.219800    2.951236
     46          6           0        2.781986   -0.613341   -1.377491
     47          6           0        4.136367   -0.472281   -0.617121
     48          6           0        5.170061    0.328821   -0.866349
     49          6           0        5.085255    1.325269   -1.964508
     50          6           0        6.482748    0.373031   -0.164437
     51          6           0        7.722720   -0.179038   -0.946751
     52          6           0        9.028846   -0.094374   -0.089194
     53          6           0       10.313289   -0.427228   -0.773358
     54          6           0       10.274696   -1.990006   -1.207944
     55          6           0       11.484060   -0.177236    0.085713
     56          6           0       12.911578   -0.520430   -0.533576
     57          6           0       14.054360   -0.119196    0.277346
     58          6           0       15.414262   -0.237332   -0.463468
     59          6           0       15.743072   -1.680458   -1.015611
     60          6           0       16.499892    0.338315    0.370340
     61          6           0       17.934289    0.412676   -0.130508
     62          6           0       18.881511    1.292113    0.729200
     63          6           0       20.312661    1.255412    0.218335
     64          6           0       20.465750    2.034542   -1.161689
     65          6           0       21.196666    1.972456    1.335466
     66          1           0       -4.233926    3.412426    1.748899
     67          1           0      -10.170932    3.899122   -0.295154
     68          1           0      -10.500504   -2.431578   -0.975585
     69          1           0       -2.686281   -0.966486    1.842919
     70          1           0       -2.296964    1.806442    0.971244
     71          1           0       -2.133867    0.864470    3.458780
     72          1           0       -2.772008    2.509432    3.328083
     73          1           0       -3.808672    0.727445    3.783184
     74          1           0       -1.918793   -1.507279   -0.366582
     75          1           0       -1.988287    0.015476   -0.809713
     76          1           0       -0.273731    0.692038    0.873376
     77          1           0       -0.279821   -1.151063    1.301228
     78          1           0       -4.829528    6.011599    0.456547
     79          1           0       -6.193134    6.540725    1.583559
     80          1           0       -4.766668    5.394731    2.072916
     81          1           0       -9.626894    5.924045    0.507929
     82          1           0       -8.858503    8.107736   -0.163820
     83          1           0       -7.168005    7.431120   -0.219245
     84          1           0      -12.342127    3.242599   -2.071750
     85          1           0      -13.310496    1.977500   -1.299951
     86          1           0      -12.679337    3.202014   -0.362899
     87          1           0      -12.194050   -1.827421   -1.057533
     88          1           0      -13.281568   -0.487922   -1.090530
     89          1           0      -13.198143   -1.697377   -3.264788
     90          1           0      -12.261322   -0.218805   -3.401049
     91          1           0      -11.486215   -1.732664   -3.205518
     92          1           0       -9.198093   -4.552362   -1.833536
     93          1           0       -8.134258   -5.543151   -0.829197
     94          1           0       -9.660411   -4.829305   -0.171040
     95          1           0       -3.226201   -3.524209   -0.266521
     96          1           0       -1.710069   -4.409484    3.421719
     97          1           0       -3.025570   -5.728344    3.554805
     98          1           0       -1.665598   -6.111991    2.791694
     99          1           0        2.768722   -1.476091   -2.011613
    100          1           0        2.670103    0.256802   -2.180437
    101          1           0        4.321235   -1.398616    0.101438
    102          1           0        3.944213    1.511910   -2.268601
    103          1           0        5.520736    2.281063   -1.636552
    104          1           0        5.638975    1.081772   -2.865234
    105          1           0        6.791018    1.393412    0.198728
    106          1           0        6.542823   -0.057532    0.791440
    107          1           0        7.533657   -1.238022   -1.444634
    108          1           0        7.961375    0.425461   -1.773571
    109          1           0        9.171098    0.946880    0.382896
    110          1           0        8.933864   -0.802597    0.844242
    111          1           0       10.290092    0.262224   -1.618690
    112          1           0        9.207634   -2.435579   -1.625908
    113          1           0       11.115884   -2.137405   -1.733008
    114          1           0       10.235466   -2.625704   -0.386408
    115          1           0       11.509749    1.085074    0.215541
    116          1           0       11.374932   -0.616226    1.244270
    117          1           0       12.788040   -1.700776   -0.870163
    118          1           0       13.005197   -0.006820   -1.622892
    119          1           0       14.088111    0.884132    0.888116
    120          1           0       14.082639   -0.715510    1.320267
    121          1           0       15.198912    0.394855   -1.175575
    122          1           0       15.931934   -2.155014    0.025294
    123          1           0       14.766913   -2.145989   -1.631313
    124          1           0       16.623811   -1.783733   -1.749904
    125          1           0       16.161388    1.322919    0.796845
    126          1           0       16.445578   -0.266898    1.387309
    127          1           0       18.341392   -0.615655   -0.235600
    128          1           0       18.028308    0.795482   -1.097805
    129          1           0       18.373811    2.162837    0.611220
    130          1           0       18.855655    1.056983    2.011025
    131          1           0       20.574417    0.244469    0.062514
    132          1           0       20.189363    3.038402   -1.183177
    133          1           0       21.437066    1.989540   -1.583901
    134          1           0       19.948972    1.392587   -1.885282
    135          1           0       21.009401    1.582436    2.307924
    136          1           0       22.331199    1.929992    0.996090
    137          1           0       21.050337    3.110127    1.535413
 ---------------------------------------------------------------------

 SCF Done:  E(RCAM-B3LYP) =  -2933.48485188     A.U. after   16 cycles

 Excitation energies and oscillator strengths:

 Excited State   1:      Singlet-A      2.1100 eV  587.60 nm  f=0.1891  <S**2>=0.000
     240 -> 243       -0.27622
     241 -> 242        0.64488
 This state for optimization and/or second-order correction.
 Total Energy, E(TD-HF/TD-DFT) =  -2933.40730999
 Copying the excited state density for this state as the 1-particle RhoCI density.

 Excited State   2:      Singlet-A      2.3640 eV  524.47 nm  f=0.0034  <S**2>=0.000
     240 -> 242        0.55455
     241 -> 243        0.42211

 Excited State   3:      Singlet-A      3.1002 eV  399.92 nm  f=0.6352  <S**2>=0.000
     240 -> 242       -0.40130
     240 -> 244        0.11159
     241 -> 243        0.54482

 Excited State   4:      Singlet-A      3.2094 eV  386.32 nm  f=0.2059  <S**2>=0.000
     239 -> 242        0.56085
     239 -> 243        0.15920
     240 -> 243       -0.33630
     241 -> 242       -0.16239

 Excited State   5:      Singlet-A      3.3214 eV  373.29 nm  f=0.5809  <S**2>=0.000
     239 -> 242        0.39610
     240 -> 243        0.51531
     241 -> 242        0.22758
     241 -> 244       -0.10723

 Excited State   6:      Singlet-A      3.5906 eV  345.30 nm  f=0.0378  <S**2>=0.000
     234 -> 242       -0.11565
     237 -> 242        0.59619
     238 -> 242        0.22015
     241 -> 244        0.21356

 Excited State   7:      Singlet-A      3.6624 eV  338.54 nm  f=0.0052  <S**2>=0.000
     236 -> 242       -0.21405
     237 -> 242       -0.14518
     238 -> 242        0.50424
     238 -> 243       -0.19896
     239 -> 243       -0.21916
     240 -> 244        0.10025
     241 -> 244       -0.19067

 Excited State   8:      Singlet-A      3.6816 eV  336.76 nm  f=0.0044  <S**2>=0.000
     236 -> 242        0.57433
     236 -> 244       -0.26635
     238 -> 242        0.16510
     239 -> 243       -0.17000

 Excited State   9:      Singlet-A      3.7406 eV  331.46 nm  f=0.0661  <S**2>=0.000
     236 -> 242        0.11101
     238 -> 242        0.11839
     239 -> 243        0.52518
     241 -> 244       -0.37922

 Excited State  10:      Singlet-A      3.7974 eV  326.50 nm  f=0.2876  <S**2>=0.000
     237 -> 242       -0.23152
     238 -> 242        0.24328
     239 -> 243        0.32709
     240 -> 242       -0.11478
     240 -> 243        0.16861
     241 -> 244        0.44256

 The electronic state is 1-A.
 Alpha  occ. eigenvalues --  -46.80194 -19.23738 -19.21458 -19.17259 -19.17178
 Alpha  occ. eigenvalues --  -19.16106 -14.37170 -14.35506 -14.35105 -14.34091
 Alpha  occ. eigenvalues --  -10.35571 -10.34150 -10.31453 -10.28681 -10.26290
 Alpha  occ. eigenvalues --  -10.26035 -10.25757 -10.25134 -10.25104 -10.24975
 Alpha  occ. eigenvalues --  -10.24820 -10.24407 -10.24367 -10.24328 -10.24202
 Alpha  occ. eigenvalues --  -10.24111 -10.23975 -10.23868 -10.23280 -10.23280
 Alpha  occ. eigenvalues --  -10.23156 -10.23142 -10.22944 -10.22926 -10.22895
 Alpha  occ. eigenvalues --  -10.22759 -10.22557 -10.22461 -10.22330 -10.22279
 Alpha  occ. eigenvalues --  -10.22268 -10.22097 -10.22070 -10.21986 -10.21853
 Alpha  occ. eigenvalues --  -10.21711 -10.21705 -10.21625 -10.21621 -10.21588
 Alpha  occ. eigenvalues --  -10.21467 -10.21402 -10.21321 -10.21240 -10.20885
 Alpha  occ. eigenvalues --  -10.20850 -10.20842 -10.20592 -10.20573 -10.20473
 Alpha  occ. eigenvalues --  -10.20422 -10.20341 -10.20102 -10.19730 -10.19129
 Alpha  occ. eigenvalues --   -3.08749  -1.83683  -1.83207  -1.83176  -1.14330
 Alpha  occ. eigenvalues --   -1.13760  -1.08600  -1.04145  -1.04042  -0.99665
 Alpha  occ. eigenvalues --   -0.98693  -0.98473  -0.97653  -0.86465  -0.86271
 Alpha  occ. eigenvalues --   -0.86064  -0.85662  -0.84920  -0.84759  -0.84631
 Alpha  occ. eigenvalues --   -0.83216  -0.83064  -0.82238  -0.81569  -0.80886
 Alpha  occ. eigenvalues --   -0.79993  -0.79263  -0.78724  -0.78266  -0.77811
 Alpha  occ. eigenvalues --   -0.76881  -0.76347  -0.75530  -0.74783  -0.73846
 Alpha  occ. eigenvalues --   -0.73124  -0.72410  -0.71464  -0.71330  -0.71166
 Alpha  occ. eigenvalues --   -0.70231  -0.69895  -0.69284  -0.69033  -0.67615
 Alpha  occ. eigenvalues --   -0.67100  -0.66273  -0.65820  -0.64954  -0.64095
 Alpha  occ. eigenvalues --   -0.63412  -0.62773  -0.61660  -0.60489  -0.60208
 Alpha  occ. eigenvalues --   -0.60067  -0.59814  -0.59747  -0.58951  -0.58126
 Alpha  occ. eigenvalues --   -0.57785  -0.56428  -0.56304  -0.55993  -0.54940
 Alpha  occ. eigenvalues --   -0.54688  -0.54309  -0.53808  -0.53404  -0.52836
 Alpha  occ. eigenvalues --   -0.52526  -0.51921  -0.51558  -0.51207  -0.50770
 Alpha  occ. eigenvalues --   -0.50346  -0.49975  -0.49841  -0.49695  -0.49575
 Alpha  occ. eigenvalues --   -0.49250  -0.48712  -0.48577  -0.48418  -0.48319
 Alpha  occ. eigenvalues --   -0.48202  -0.47570  -0.47410  -0.47108  -0.46832
 Alpha  occ. eigenvalues --   -0.46750  -0.46669  -0.46604  -0.45929  -0.45844
 Alpha  occ. eigenvalues --   -0.45775  -0.45564  -0.45378  -0.44835  -0.44792
 Alpha  occ. eigenvalues --   -0.44712  -0.44439  -0.44143  -0.44065  -0.43710
 Alpha  occ. eigenvalues --   -0.43392  -0.43234  -0.43166  -0.42920  -0.42861
 Alpha  occ. eigenvalues --   -0.42768  -0.42278  -0.42052  -0.41977  -0.41771
 Alpha  occ. eigenvalues --   -0.41389  -0.41325  -0.40950  -0.40896  -0.40822
 Alpha  occ. eigenvalues --   -0.40527  -0.40389  -0.40214  -0.40070  -0.39973
 Alpha  occ. eigenvalues --   -0.39803  -0.39644  -0.39536  -0.39258  -0.39112
 Alpha  occ. eigenvalues --   -0.38852  -0.38567  -0.38219  -0.38015  -0.37923
 Alpha  occ. eigenvalues --   -0.37809  -0.37747  -0.37562  -0.37474  -0.37176
 Alpha  occ. eigenvalues --   -0.36845  -0.36584  -0.36514  -0.36027  -0.35889
 Alpha  occ. eigenvalues --   -0.35683  -0.35527  -0.35150  -0.34504  -0.34431
 Alpha  occ. eigenvalues --   -0.34260  -0.33888  -0.33828  -0.33612  -0.33493
 Alpha  occ. eigenvalues --   -0.33465  -0.32685  -0.32621  -0.32500  -0.32379
 Alpha  occ. eigenvalues --   -0.32331  -0.32119  -0.31681  -0.31047  -0.30708
 Alpha  occ. eigenvalues --   -0.30109  -0.29766  -0.29279  -0.27757  -0.27508
 Alpha  occ. eigenvalues --   -0.27356  -0.26373  -0.26016  -0.24742  -0.21155
 Alpha  occ. eigenvalues --   -0.19697
 Alpha virt. eigenvalues --   -0.06189  -0.03935   0.00025   0.01924   0.02558
 Alpha virt. eigenvalues --    0.03995   0.04240   0.04657   0.05028   0.05543
 Alpha virt. eigenvalues --    0.06951   0.08132   0.08925   0.08986   0.09982

 Mulliken charges:
               1
     1  Mg   0.825684
     2  C    0.035198
     3  C   -0.177652
     4  C   -0.176368
     5  C   -0.163764
     6  N   -0.669225
     7  C    0.285930
     8  C   -0.070956
     9  C   -0.188665
    10  C    0.378428
    11  C   -0.303197
    12  C   -0.177508
    13  C   -0.257639
    14  C    0.607341
    15  O   -0.476278
    16  O   -0.430120
    17  N   -0.654582
    18  C    0.335815
    19  C    0.008093
    20  C    0.019408
    21  C    0.266744
    22  C   -0.365375
    23  C   -0.066264
    24  C   -0.233535
    25  N   -0.671682
    26  C    0.321847
    27  C    0.016381
    28  C    0.073982
    29  C    0.255035
    30  C   -0.393694
    31  C   -0.293168
    32  C   -0.282861
    33  N   -0.764564
    34  C    0.330596
    35  C   -0.038422
    36  C    0.036826
    37  C    0.288216
    38  C   -0.369123
    39  C    0.377187
    40  O   -0.418193
    41  C   -0.341000
    42  C    0.608384
    43  O   -0.475620
    44  O   -0.417245
    45  C   -0.082091
    46  C    0.001970
    47  C   -0.151341
    48  C    0.163076
    49  C   -0.366857
    50  C   -0.238530
    51  C   -0.168806
    52  C   -0.167785
    53  C   -0.041615
    54  C   -0.319091
    55  C   -0.145323
    56  C   -0.164211
    57  C   -0.167745
    58  C   -0.035547
    59  C   -0.293899
    60  C   -0.182192
    61  C   -0.194444
    62  C   -0.138088
    63  C   -0.045960
    64  C   -0.329252
    65  C   -0.309951
    66  H    0.053944
    67  H    0.068022
    68  H    0.085348
    69  H    0.105943
    70  H    0.077919
    71  H    0.123440
    72  H    0.078387
    73  H    0.133688
    74  H    0.118380
    75  H    0.114776
    76  H    0.120231
    77  H    0.125713
    78  H    0.142356
    79  H    0.125627
    80  H    0.100674
    81  H    0.104329
    82  H    0.096051
    83  H    0.109805
    84  H    0.116949
    85  H    0.106511
    86  H    0.100420
    87  H    0.072852
    88  H    0.106777
    89  H    0.115227
    90  H    0.123182
    91  H    0.088286
    92  H    0.125817
    93  H    0.140953
    94  H    0.127150
    95  H    0.150579
    96  H    0.116624
    97  H    0.126066
    98  H    0.108698
    99  H    0.147681
   100  H    0.095243
   101  H    0.077029
   102  H    0.091607
   103  H    0.108847
   104  H    0.127491
   105  H    0.096274
   106  H    0.108069
   107  H    0.085389
   108  H    0.102848
   109  H    0.075270
   110  H    0.069626
   111  H    0.090747
   112  H    0.073199
   113  H    0.114569
   114  H    0.117224
   115  H    0.050107
   116  H    0.072472
   117  H    0.084900
   118  H    0.073063
   119  H    0.090511
   120  H    0.063711
   121  H    0.097903
   122  H    0.100511
   123  H    0.077145
   124  H    0.102518
   125  H    0.079006
   126  H    0.067175
   127  H    0.086549
   128  H    0.103841
   129  H    0.107433
   130  H    0.039533
   131  H    0.099055
   132  H    0.116214
   133  H    0.105705
   134  H    0.098016
   135  H    0.107582
   136  H    0.078354
   137  H    0.090148
 Sum of Mulliken charges =  -0.00000

 Dipole moment (field-independent basis, Debye):
    X=              2.4602    Y=              3.7992    Z=              0.3834  Tot=              4.5424
 Quadrupole moment (field-independent basis, Debye-Ang):
   XX=           -347.2121   YY=           -389.8049   ZZ=           -400.5276
   XY=             -9.1029   XZ=             -7.0829   YZ=             -0.7644

 Normal termination of Gaussian 16 at Wed Oct 23 08:41:31 2019.
