 Gaussian 16, Revision A.03,
 Gaussian 16:  ES64L-G16RevA.03 25-Dec-2016

 ----------------------------------------------------------------------
 # td=(NStates=10) iop(3/107=0140000000,3/108=0140000000) CAM-B3LYP/6-3
 1G(d,p)
 ----------------------------------------------------------------------

 --
 TD
 --
 Symbolic Z-matrix:
 Charge =  0 Multiplicity = 1

                         Standard orientation:
 ---------------------------------------------------------------------
 Center     Atomic      Atomic             Coordinates (Angstroms)
 Number     Number       Type             X           Y           Z
 ---------------------------------------------------------------------
      1         12           0       -7.220748    0.612953    0.190719
      2          6           0       -4.879673   -1.884808    0.457115
      3          6           0       -4.839188    2.868036    1.172948
      4          6           0       -9.482052    3.055332   -0.243339
      5          6           0       -9.576097   -1.751534   -0.870782
      6          7           0       -5.131543    0.497379    0.731459
      7          6           0       -4.328484   -0.647656    0.726448
      8          6           0       -2.975542   -0.368586    1.158644
      9          6           0       -3.046698    1.131863    1.666521
     10          6           0       -4.398178    1.575073    1.155876
     11          6           0       -2.925101    1.208864    3.121903
     12          6           0       -1.865213   -0.515729    0.101330
     13          6           0       -0.470800   -0.494200    0.526366
     14          6           0        0.488215   -0.604615   -0.576798
     15          8           0        0.172220   -0.834942   -1.757645
     16          8           0        1.762191   -0.361834   -0.184356
     17          7           0       -7.089099    2.531164    0.362981
     18          6           0       -6.118351    3.363119    0.727070
     19          6           0       -6.457244    4.713243    0.798817
     20          6           0       -7.789672    4.791604    0.283600
     21          6           0       -8.128732    3.535119    0.064881
     22          6           0       -5.649650    5.987826    1.235707
     23          6           0       -8.676594    5.883608    0.213216
     24          6           0       -8.300348    7.143976   -0.024237
     25          7           0       -9.161719    0.621522   -0.525961
     26          6           0       -9.847036    1.769521   -0.649827
     27          6           0      -11.299549    1.507275   -0.922706
     28          6           0      -11.317245    0.073930   -1.142014
     29          6           0      -10.009636   -0.445197   -0.781839
     30          6           0      -12.435289    2.425499   -1.215596
     31          6           0      -12.405251   -0.886792   -1.638975
     32          6           0      -12.175177   -1.192461   -3.136211
     33          7           0       -7.272839   -1.426070   -0.080133
     34          6           0       -8.291393   -2.231698   -0.528363
     35          6           0       -7.823769   -3.607160   -0.528999
     36          6           0       -6.484507   -3.585052   -0.186515
     37          6           0       -6.289442   -2.172169    0.085186
     38          6           0       -8.645437   -4.762201   -0.934841
     39          6           0       -5.316004   -4.272736    0.170473
     40          8           0       -5.279170   -5.515318    0.131187
     41          6           0       -4.186247   -3.285099    0.486632
     42          6           0       -3.651989   -3.700008    1.814045
     43          8           0       -3.868377   -3.127428    2.884606
     44          8           0       -2.719784   -4.681668    1.725604
     45          6           0       -2.101961   -5.156739    2.937780
     46          6           0        2.776880   -0.528343   -1.265226
     47          6           0        4.037389   -0.364063   -0.597680
     48          6           0        5.232089    0.338975   -0.881512
     49          6           0        5.224771    1.148314   -2.151407
     50          6           0        6.471390    0.280565   -0.047205
     51          6           0        7.646137   -0.225144   -0.885575
     52          6           0        8.957480   -0.274922   -0.075648
     53          6           0       10.265106   -0.648859   -0.853684
     54          6           0       10.323746   -2.127648   -1.304697
     55          6           0       11.577944   -0.307091   -0.113452
     56          6           0       12.882229   -0.473852   -0.823727
     57          6           0       13.976145   -0.200637    0.120067
     58          6           0       15.453126   -0.170967   -0.481395
     59          6           0       15.822745   -1.561604   -0.993728
     60          6           0       16.496397    0.348863    0.515925
     61          6           0       17.828971    0.616458   -0.162960
     62          6           0       18.846419    1.221144    0.854826
     63          6           0       20.295722    1.402659    0.317132
     64          6           0       20.404157    2.219534   -0.985563
     65          6           0       21.186280    1.953395    1.366915
     66          1           0       -4.163173    3.611077    1.649015
     67          1           0      -10.384281    3.796121   -0.504675
     68          1           0      -10.298482   -2.578427   -1.116928
     69          1           0       -2.942644   -1.074566    2.031908
     70          1           0       -2.428560    1.845675    1.006394
     71          1           0       -2.083466    1.126044    3.674484
     72          1           0       -3.314879    2.297174    3.415376
     73          1           0       -3.726495    0.538899    3.728095
     74          1           0       -2.152596   -1.495799   -0.531807
     75          1           0       -2.356248    0.259970   -0.520883
     76          1           0       -0.332646    0.500173    1.041497
     77          1           0       -0.109614   -1.055872    1.248561
     78          1           0       -5.104243    6.514082    0.466668
     79          1           0       -6.376367    6.705112    1.959758
     80          1           0       -4.738331    5.728195    2.022552
     81          1           0       -9.731557    5.536850    0.436883
     82          1           0       -9.050115    7.919831   -0.343713
     83          1           0       -7.182279    7.309499   -0.217697
     84          1           0      -12.069871    3.021711   -2.175601
     85          1           0      -13.194099    1.722673   -1.514887
     86          1           0      -12.845513    3.073243   -0.398523
     87          1           0      -12.265559   -1.785107   -0.823498
     88          1           0      -13.435827   -0.242747   -1.411474
     89          1           0      -12.874123   -1.886361   -3.572239
     90          1           0      -12.073098   -0.229237   -3.822673
     91          1           0      -11.198843   -1.642051   -3.241186
     92          1           0       -9.327401   -4.627611   -1.875243
     93          1           0       -8.204969   -5.660442   -1.103013
     94          1           0       -9.214365   -4.791923   -0.113042
     95          1           0       -3.498690   -3.472613   -0.288051
     96          1           0       -1.094146   -4.504257    3.391894
     97          1           0       -2.715034   -5.258531    3.852636
     98          1           0       -1.728398   -6.282880    2.716766
     99          1           0        2.629063   -1.638253   -1.689996
    100          1           0        2.427647    0.209226   -2.124728
    101          1           0        3.983665   -1.029452    0.379233
    102          1           0        4.166712    1.363280   -2.521629
    103          1           0        5.788286    2.111648   -2.117486
    104          1           0        5.916849    0.642224   -3.078978
    105          1           0        6.902479    1.355149    0.133015
    106          1           0        6.402462   -0.285432    0.824095
    107          1           0        7.450789   -1.186093   -1.511355
    108          1           0        7.953434    0.414313   -1.900092
    109          1           0        9.248039    0.888881    0.272085
    110          1           0        8.596768   -0.950095    0.719796
    111          1           0       10.265847    0.051303   -1.871290
    112          1           0        9.413666   -2.343432   -1.817659
    113          1           0       11.118286   -2.380282   -1.971464
    114          1           0       10.542300   -2.850583   -0.455583
    115          1           0       11.658700    0.696936    0.153747
    116          1           0       11.571853   -1.070943    0.827915
    117          1           0       12.897212   -1.523505   -0.982917
    118          1           0       13.008072    0.139144   -1.716220
    119          1           0       13.806351    0.916862    0.523561
    120          1           0       14.068949   -0.818562    0.966593
    121          1           0       15.590123    0.474723   -1.388503
    122          1           0       15.932963   -2.439960   -0.361857
    123          1           0       14.858348   -1.994002   -1.514254
    124          1           0       16.816772   -1.652281   -1.594660
    125          1           0       15.984057    1.264768    0.884542
    126          1           0       16.527682   -0.292641    1.324609
    127          1           0       18.307082   -0.323288   -0.584709
    128          1           0       17.747271    1.275185   -1.025631
    129          1           0       18.573000    2.137306    1.173134
    130          1           0       18.886581    0.566688    1.815215
    131          1           0       20.695704    0.315219   -0.100060
    132          1           0       19.973300    3.274108   -0.958696
    133          1           0       21.367158    2.111515   -1.507645
    134          1           0       19.652536    1.784043   -1.742389
    135          1           0       21.273068    1.055106    2.046568
    136          1           0       22.181442    2.368645    1.040686
    137          1           0       20.695405    2.993399    1.833906
 ---------------------------------------------------------------------

 SCF Done:  E(RCAM-B3LYP) =  -2933.50001243     A.U. after   16 cycles

 Excitation energies and oscillator strengths:

 Excited State   1:      Singlet-A      2.0314 eV  610.33 nm  f=0.2583  <S**2>=0.000
     240 -> 242       -0.14266
     240 -> 243        0.21102
     241 -> 242        0.65065
 This state for optimization and/or second-order correction.
 Total Energy, E(TD-HF/TD-DFT) =  -2933.42535910
 Copying the excited state density for this state as the 1-particle RhoCI density.

 Excited State   2:      Singlet-A      2.1831 eV  567.92 nm  f=0.1185  <S**2>=0.000
     240 -> 242        0.62866
     241 -> 242        0.15540
     241 -> 243       -0.26549

 Excited State   3:      Singlet-A      2.8472 eV  435.46 nm  f=0.0053  <S**2>=0.000
     238 -> 242       -0.17109
     239 -> 242        0.66704

 Excited State   4:      Singlet-A      3.0346 eV  408.57 nm  f=0.0008  <S**2>=0.000
     236 -> 242        0.57155
     236 -> 243       -0.17329
     236 -> 244        0.21064
     238 -> 242       -0.28399

 Excited State   5:      Singlet-A      3.0390 eV  407.98 nm  f=0.0019  <S**2>=0.000
     236 -> 242        0.26782
     238 -> 242        0.61149
     239 -> 242        0.16505

 Excited State   6:      Singlet-A      3.2755 eV  378.52 nm  f=0.6634  <S**2>=0.000
     235 -> 242        0.12286
     240 -> 242        0.24277
     240 -> 243       -0.24446
     240 -> 244        0.11322
     241 -> 243        0.58526

 Excited State   7:      Singlet-A      3.3669 eV  368.25 nm  f=0.6458  <S**2>=0.000
     240 -> 242        0.12240
     240 -> 243        0.60104
     241 -> 242       -0.19430
     241 -> 243        0.24553

 Excited State   8:      Singlet-A      3.5922 eV  345.14 nm  f=0.1244  <S**2>=0.000
     235 -> 242        0.67094

 Excited State   9:      Singlet-A      3.8362 eV  323.20 nm  f=0.0281  <S**2>=0.000
     238 -> 243        0.39618
     239 -> 243        0.55487

 Excited State  10:      Singlet-A      3.8954 eV  318.29 nm  f=0.0267  <S**2>=0.000
     230 -> 242        0.19967
     233 -> 243        0.11570
     234 -> 242        0.64309

 The electronic state is 1-A.
 Alpha  occ. eigenvalues --  -46.79725 -19.22819 -19.21979 -19.16461 -19.16007
 Alpha  occ. eigenvalues --  -19.15122 -14.36848 -14.35328 -14.35157 -14.35009
 Alpha  occ. eigenvalues --  -10.34895 -10.34103 -10.29699 -10.29505 -10.29230
 Alpha  occ. eigenvalues --  -10.25818 -10.25239 -10.25196 -10.25148 -10.24732
 Alpha  occ. eigenvalues --  -10.24718 -10.24688 -10.24677 -10.24666 -10.24619
 Alpha  occ. eigenvalues --  -10.24493 -10.24300 -10.24282 -10.24276 -10.23742
 Alpha  occ. eigenvalues --  -10.23669 -10.23492 -10.23477 -10.23361 -10.23212
 Alpha  occ. eigenvalues --  -10.23157 -10.23112 -10.23085 -10.23041 -10.23000
 Alpha  occ. eigenvalues --  -10.22969 -10.22718 -10.22601 -10.22575 -10.22529
 Alpha  occ. eigenvalues --  -10.22438 -10.22427 -10.22401 -10.22075 -10.21949
 Alpha  occ. eigenvalues --  -10.21692 -10.21658 -10.21248 -10.21208 -10.21170
 Alpha  occ. eigenvalues --  -10.21081 -10.20958 -10.20730 -10.20677 -10.20514
 Alpha  occ. eigenvalues --  -10.20455 -10.20365 -10.20216 -10.20066 -10.19815
 Alpha  occ. eigenvalues --   -3.08422  -1.83351  -1.82917  -1.82823  -1.12699
 Alpha  occ. eigenvalues --   -1.11825  -1.04356  -1.03333  -1.02534  -1.01767
 Alpha  occ. eigenvalues --   -0.98674  -0.97750  -0.97271  -0.87362  -0.86263
 Alpha  occ. eigenvalues --   -0.85951  -0.85525  -0.85277  -0.84324  -0.84247
 Alpha  occ. eigenvalues --   -0.83121  -0.82856  -0.82523  -0.82411  -0.81768
 Alpha  occ. eigenvalues --   -0.80701  -0.79545  -0.78830  -0.78544  -0.77482
 Alpha  occ. eigenvalues --   -0.76890  -0.76358  -0.75624  -0.75309  -0.74452
 Alpha  occ. eigenvalues --   -0.73475  -0.72160  -0.71498  -0.71158  -0.70498
 Alpha  occ. eigenvalues --   -0.70355  -0.69951  -0.69884  -0.68506  -0.67759
 Alpha  occ. eigenvalues --   -0.66608  -0.65881  -0.65006  -0.64737  -0.64406
 Alpha  occ. eigenvalues --   -0.62944  -0.62092  -0.61005  -0.60118  -0.60001
 Alpha  occ. eigenvalues --   -0.59953  -0.58975  -0.58579  -0.58160  -0.57686
 Alpha  occ. eigenvalues --   -0.56828  -0.56362  -0.56019  -0.55288  -0.54888
 Alpha  occ. eigenvalues --   -0.54606  -0.54511  -0.54274  -0.53397  -0.52599
 Alpha  occ. eigenvalues --   -0.52228  -0.52067  -0.51515  -0.50985  -0.50766
 Alpha  occ. eigenvalues --   -0.50154  -0.50050  -0.49810  -0.49470  -0.49298
 Alpha  occ. eigenvalues --   -0.49001  -0.48613  -0.48066  -0.47979  -0.47755
 Alpha  occ. eigenvalues --   -0.47518  -0.47194  -0.47019  -0.46681  -0.46618
 Alpha  occ. eigenvalues --   -0.46481  -0.46387  -0.46019  -0.45937  -0.45606
 Alpha  occ. eigenvalues --   -0.45493  -0.45404  -0.45286  -0.44900  -0.44801
 Alpha  occ. eigenvalues --   -0.44493  -0.44217  -0.43933  -0.43651  -0.43506
 Alpha  occ. eigenvalues --   -0.43284  -0.43194  -0.43110  -0.42802  -0.42356
 Alpha  occ. eigenvalues --   -0.42236  -0.41999  -0.41920  -0.41725  -0.41528
 Alpha  occ. eigenvalues --   -0.41058  -0.40937  -0.40724  -0.40596  -0.40449
 Alpha  occ. eigenvalues --   -0.40322  -0.40136  -0.40025  -0.39929  -0.39792
 Alpha  occ. eigenvalues --   -0.39616  -0.39581  -0.39288  -0.39163  -0.38891
 Alpha  occ. eigenvalues --   -0.38794  -0.38709  -0.38501  -0.38146  -0.38080
 Alpha  occ. eigenvalues --   -0.37573  -0.37366  -0.37352  -0.37191  -0.36853
 Alpha  occ. eigenvalues --   -0.36602  -0.36414  -0.36273  -0.36014  -0.35984
 Alpha  occ. eigenvalues --   -0.35420  -0.35388  -0.35150  -0.35013  -0.34790
 Alpha  occ. eigenvalues --   -0.34362  -0.34130  -0.33759  -0.33450  -0.33042
 Alpha  occ. eigenvalues --   -0.32995  -0.32735  -0.32713  -0.32551  -0.32403
 Alpha  occ. eigenvalues --   -0.32285  -0.32084  -0.31687  -0.31010  -0.30715
 Alpha  occ. eigenvalues --   -0.30025  -0.29700  -0.28964  -0.28340  -0.27588
 Alpha  occ. eigenvalues --   -0.26404  -0.26027  -0.25419  -0.24833  -0.21237
 Alpha  occ. eigenvalues --   -0.20483
 Alpha virt. eigenvalues --   -0.07778  -0.03550   0.00260   0.02001   0.02529
 Alpha virt. eigenvalues --    0.03207   0.03961   0.04259   0.04836   0.05927
 Alpha virt. eigenvalues --    0.06403   0.08373   0.08669   0.09229   0.09717

 Mulliken charges:
               1
     1  Mg   0.820152
     2  C    0.046646
     3  C   -0.198118
     4  C   -0.167307
     5  C   -0.178170
     6  N   -0.632296
     7  C    0.311381
     8  C   -0.197998
     9  C   -0.134962
    10  C    0.332153
    11  C   -0.303401
    12  C   -0.146308
    13  C   -0.250015
    14  C    0.616625
    15  O   -0.493344
    16  O   -0.484223
    17  N   -0.707922
    18  C    0.331721
    19  C    0.021390
    20  C    0.072781
    21  C    0.218910
    22  C   -0.378930
    23  C   -0.058744
    24  C   -0.263587
    25  N   -0.679599
    26  C    0.294010
    27  C    0.006181
    28  C    0.009222
    29  C    0.311390
    30  C   -0.378349
    31  C   -0.227676
    32  C   -0.304733
    33  N   -0.698681
    34  C    0.265261
    35  C   -0.034649
    36  C    0.101482
    37  C    0.310246
    38  C   -0.362358
    39  C    0.313396
    40  O   -0.486614
    41  C   -0.303384
    42  C    0.631178
    43  O   -0.480070
    44  O   -0.429704
    45  C   -0.079259
    46  C    0.008466
    47  C   -0.126095
    48  C    0.153963
    49  C   -0.359911
    50  C   -0.214700
    51  C   -0.187157
    52  C   -0.144656
    53  C   -0.045230
    54  C   -0.322265
    55  C   -0.155268
    56  C   -0.161703
    57  C   -0.172994
    58  C   -0.060524
    59  C   -0.319780
    60  C   -0.156767
    61  C   -0.184803
    62  C   -0.155950
    63  C   -0.042642
    64  C   -0.315865
    65  C   -0.279850
    66  H    0.069464
    67  H    0.085172
    68  H    0.090544
    69  H    0.131425
    70  H    0.105571
    71  H    0.126564
    72  H    0.081801
    73  H    0.111660
    74  H    0.095037
    75  H    0.117823
    76  H    0.135726
    77  H    0.149119
    78  H    0.138447
    79  H    0.111235
    80  H    0.083359
    81  H    0.095435
    82  H    0.103955
    83  H    0.103731
    84  H    0.117939
    85  H    0.118813
    86  H    0.124004
    87  H    0.097346
    88  H    0.078112
    89  H    0.114025
    90  H    0.102857
    91  H    0.120604
    92  H    0.104261
    93  H    0.147700
    94  H    0.145447
    95  H    0.173437
    96  H    0.083983
    97  H    0.147169
    98  H    0.115598
    99  H    0.127180
   100  H    0.124735
   101  H    0.082084
   102  H    0.109649
   103  H    0.114814
   104  H    0.089102
   105  H    0.106694
   106  H    0.112655
   107  H    0.093437
   108  H    0.063595
   109  H    0.066306
   110  H    0.095632
   111  H    0.051040
   112  H    0.104440
   113  H    0.114146
   114  H    0.092040
   115  H    0.087496
   116  H    0.064940
   117  H    0.102554
   118  H    0.098947
   119  H    0.057233
   120  H    0.101720
   121  H    0.078613
   122  H    0.098609
   123  H    0.078716
   124  H    0.091055
   125  H    0.082536
   126  H    0.097162
   127  H    0.090305
   128  H    0.098842
   129  H    0.103139
   130  H    0.075217
   131  H    0.052838
   132  H    0.090805
   133  H    0.107636
   134  H    0.083305
   135  H    0.102337
   136  H    0.100499
   137  H    0.070587
 Sum of Mulliken charges =  -0.00000

 Dipole moment (field-independent basis, Debye):
    X=              0.9296    Y=              3.4063    Z=              0.4175  Tot=              3.5555
 Quadrupole moment (field-independent basis, Debye-Ang):
   XX=           -343.0444   YY=           -396.6801   ZZ=           -399.8320
   XY=            -19.5124   XZ=             10.6774   YZ=             -4.5778

 Normal termination of Gaussian 16 at Tue Oct 22 15:51:44 2019.
