 Gaussian 16, Revision A.03,
 Gaussian 16:  ES64L-G16RevA.03 25-Dec-2016

 ----------------------------------------------------------------------
 # td=(NStates=10) iop(3/107=0140000000,3/108=0140000000) CAM-B3LYP/6-3
 1G(d,p)
 ----------------------------------------------------------------------

 --
 TD
 --
 Symbolic Z-matrix:
 Charge =  0 Multiplicity = 1

                         Standard orientation:
 ---------------------------------------------------------------------
 Center     Atomic      Atomic             Coordinates (Angstroms)
 Number     Number       Type             X           Y           Z
 ---------------------------------------------------------------------
      1         12           0       -7.149747    0.584580    0.075204
      2          6           0       -4.954950   -1.867529    0.463269
      3          6           0       -4.892419    2.777065    1.111994
      4          6           0       -9.443067    3.068314   -0.368801
      5          6           0       -9.564442   -1.747318   -0.863072
      6          7           0       -5.060652    0.445767    0.577192
      7          6           0       -4.393704   -0.696080    0.748128
      8          6           0       -2.876298   -0.360755    1.244630
      9          6           0       -3.075010    1.101275    1.587805
     10          6           0       -4.455004    1.505534    1.090318
     11          6           0       -2.880760    1.339491    3.016762
     12          6           0       -1.916371   -0.576195    0.057307
     13          6           0       -0.407161   -0.434733    0.454619
     14          6           0        0.541266   -0.753625   -0.656327
     15          8           0        0.254802   -1.102618   -1.772321
     16          8           0        1.838102   -0.462388   -0.223139
     17          7           0       -7.131644    2.631929    0.506966
     18          6           0       -6.016414    3.377878    0.805930
     19          6           0       -6.442756    4.785338    0.738324
     20          6           0       -7.788769    4.805695    0.398780
     21          6           0       -8.224488    3.427290    0.152176
     22          6           0       -5.504054    5.817157    1.273426
     23          6           0       -8.580635    5.978425    0.174309
     24          6           0       -8.135444    7.246621    0.059425
     25          7           0       -9.190766    0.709573   -0.420909
     26          6           0       -9.934348    1.808053   -0.602131
     27          6           0      -11.302238    1.507188   -0.933545
     28          6           0      -11.374270    0.092184   -1.169820
     29          6           0       -9.998181   -0.356617   -0.940125
     30          6           0      -12.387129    2.422901   -1.285432
     31          6           0      -12.476615   -0.702830   -1.524878
     32          6           0      -12.386082   -1.109306   -2.978506
     33          7           0       -7.200593   -1.353888   -0.211522
     34          6           0       -8.343631   -2.238043   -0.465165
     35          6           0       -7.857446   -3.669209   -0.469733
     36          6           0       -6.610330   -3.540715   -0.091530
     37          6           0       -6.305035   -2.200759    0.110310
     38          6           0       -8.615634   -4.950606   -0.750158
     39          6           0       -5.331585   -4.276610    0.219617
     40          8           0       -5.184504   -5.495591    0.170371
     41          6           0       -4.166823   -3.223830    0.413911
     42          6           0       -3.613330   -3.584548    1.816200
     43          8           0       -3.725159   -3.095138    2.823372
     44          8           0       -2.786253   -4.731346    1.587926
     45          6           0       -2.204542   -5.216740    2.872400
     46          6           0        2.820799   -0.734126   -1.196421
     47          6           0        4.184203   -0.509758   -0.534991
     48          6           0        5.123676    0.317105   -0.790563
     49          6           0        5.047502    1.214919   -2.001928
     50          6           0        6.507284    0.312134   -0.107798
     51          6           0        7.641478   -0.167948   -0.983714
     52          6           0        8.976332   -0.011115   -0.173841
     53          6           0       10.223245   -0.482978   -0.926854
     54          6           0       10.097172   -1.996503   -1.363883
     55          6           0       11.440684   -0.256902   -0.019170
     56          6           0       12.822256   -0.585573   -0.688722
     57          6           0       13.990115   -0.104820    0.192173
     58          6           0       15.415517   -0.242854   -0.495134
     59          6           0       15.731981   -1.653695   -0.849034
     60          6           0       16.427307    0.315462    0.500541
     61          6           0       17.875220    0.415357   -0.112214
     62          6           0       18.918778    1.385148    0.703466
     63          6           0       20.283123    1.361687    0.288126
     64          6           0       20.432363    2.156386   -1.090996
     65          6           0       21.150085    2.008134    1.350121
     66          1           0       -4.186434    3.520629    1.525584
     67          1           0      -10.012074    3.991137   -0.717252
     68          1           0      -10.331352   -2.462793   -0.984590
     69          1           0       -2.487405   -0.976685    2.120638
     70          1           0       -2.174029    1.594681    1.048441
     71          1           0       -1.997984    0.946105    3.438936
     72          1           0       -3.000002    2.337125    3.495257
     73          1           0       -3.530473    0.833883    3.655270
     74          1           0       -2.021240   -1.554760   -0.325818
     75          1           0       -2.192281    0.210185   -0.734481
     76          1           0       -0.211096    0.538185    0.826334
     77          1           0       -0.218347   -1.137903    1.332126
     78          1           0       -4.916380    6.305496    0.419831
     79          1           0       -5.966010    6.806424    1.769879
     80          1           0       -4.649981    5.529552    1.895073
     81          1           0       -9.674034    6.009986    0.271976
     82          1           0       -8.884111    8.171049   -0.170518
     83          1           0       -6.944085    7.256449   -0.145312
     84          1           0      -11.981107    3.303621   -1.888189
     85          1           0      -13.151615    1.759512   -1.687151
     86          1           0      -12.517694    2.949506   -0.309232
     87          1           0      -12.514176   -1.610024   -0.928208
     88          1           0      -13.227670   -0.154611   -1.519038
     89          1           0      -13.235262   -1.834257   -3.183639
     90          1           0      -12.505430   -0.216425   -3.742985
     91          1           0      -11.544467   -1.500645   -3.195810
     92          1           0       -8.995897   -4.866828   -1.681642
     93          1           0       -7.636662   -5.704723   -0.599629
     94          1           0       -9.344405   -5.173752    0.057705
     95          1           0       -3.366716   -3.240806   -0.517240
     96          1           0       -1.650128   -4.400560    3.533499
     97          1           0       -2.943218   -5.783016    3.476392
     98          1           0       -1.693213   -5.920724    2.331176
     99          1           0        2.722431   -1.771518   -1.439589
    100          1           0        2.603818   -0.092600   -2.098380
    101          1           0        4.280886   -1.106315    0.304183
    102          1           0        3.931256    1.473799   -2.263588
    103          1           0        5.684492    2.009728   -1.937548
    104          1           0        5.532051    0.649744   -3.000859
    105          1           0        6.712236    1.363591    0.287294
    106          1           0        6.423238   -0.252981    0.676359
    107          1           0        7.609851   -1.232986   -1.248196
    108          1           0        7.849129    0.448852   -1.899468
    109          1           0        9.287078    0.971559    0.252494
    110          1           0        8.845817   -0.599624    0.709198
    111          1           0       10.312631   -0.038935   -2.055330
    112          1           0        9.218436   -2.110763   -1.920314
    113          1           0       10.920567   -2.306690   -1.757576
    114          1           0        9.882105   -2.629208   -0.489374
    115          1           0       11.578081    0.776472    0.410189
    116          1           0       11.350282   -0.787978    0.989060
    117          1           0       12.870871   -1.737178   -0.979762
    118          1           0       12.841839   -0.239233   -1.659514
    119          1           0       13.761069    0.986067    0.532259
    120          1           0       14.132225   -0.871014    1.025179
    121          1           0       15.341082    0.087667   -1.424062
    122          1           0       15.747436   -2.262353   -0.018189
    123          1           0       15.143892   -2.050441   -1.805209
    124          1           0       16.728179   -1.764642   -1.446137
    125          1           0       16.047734    1.366055    0.887122
    126          1           0       16.632416   -0.271635    1.513776
    127          1           0       18.360298   -0.610667   -0.309269
    128          1           0       17.823225    0.745332   -1.298139
    129          1           0       18.549860    2.367066    0.712098
    130          1           0       18.949510    0.997838    1.777257
    131          1           0       20.537436    0.294649    0.105362
    132          1           0       19.842522    3.204721   -0.829509
    133          1           0       21.480066    2.530941   -1.469712
    134          1           0       19.899642    1.761948   -1.881642
    135          1           0       21.030201    1.516190    2.358682
    136          1           0       22.051823    1.923614    1.037887
    137          1           0       20.747358    3.017412    1.573889
 ---------------------------------------------------------------------

 SCF Done:  E(RCAM-B3LYP) =  -2933.48085953     A.U. after   15 cycles

 Excitation energies and oscillator strengths:

 Excited State   1:      Singlet-A      2.1311 eV  581.79 nm  f=0.2052  <S**2>=0.000
     240 -> 243       -0.26147
     241 -> 242        0.65107
 This state for optimization and/or second-order correction.
 Total Energy, E(TD-HF/TD-DFT) =  -2933.40254383
 Copying the excited state density for this state as the 1-particle RhoCI density.

 Excited State   2:      Singlet-A      2.3906 eV  518.62 nm  f=0.0016  <S**2>=0.000
     240 -> 242        0.51936
     241 -> 243        0.46554

 Excited State   3:      Singlet-A      3.0691 eV  403.98 nm  f=0.1104  <S**2>=0.000
     238 -> 242        0.30575
     238 -> 243       -0.12255
     239 -> 242        0.52898
     239 -> 243       -0.10430
     240 -> 242       -0.13964
     241 -> 243        0.24986

 Excited State   4:      Singlet-A      3.1555 eV  392.92 nm  f=0.1513  <S**2>=0.000
     238 -> 242       -0.39882
     239 -> 242        0.44353
     240 -> 242        0.23954
     241 -> 243       -0.26757

 Excited State   5:      Singlet-A      3.2488 eV  381.63 nm  f=0.5862  <S**2>=0.000
     235 -> 242       -0.10009
     238 -> 242        0.43528
     238 -> 243       -0.10833
     240 -> 242        0.33675
     240 -> 243        0.17082
     241 -> 243       -0.34085

 Excited State   6:      Singlet-A      3.3110 eV  374.47 nm  f=0.5664  <S**2>=0.000
     238 -> 243       -0.13580
     239 -> 243        0.28331
     240 -> 242       -0.14437
     240 -> 243        0.53317
     241 -> 242        0.22473
     241 -> 243        0.13681
     241 -> 244       -0.12619

 Excited State   7:      Singlet-A      3.4006 eV  364.60 nm  f=0.0345  <S**2>=0.000
     237 -> 242        0.56034
     237 -> 243        0.24662
     237 -> 244       -0.30500

 Excited State   8:      Singlet-A      3.4634 eV  357.98 nm  f=0.1903  <S**2>=0.000
     238 -> 243       -0.23140
     239 -> 243        0.57345
     240 -> 243       -0.27068
     241 -> 242       -0.10188

 Excited State   9:      Singlet-A      3.8549 eV  321.63 nm  f=0.0232  <S**2>=0.000
     235 -> 242        0.11534
     238 -> 242       -0.10351
     238 -> 243       -0.41083
     239 -> 243       -0.18681
     241 -> 244        0.48536

 Excited State  10:      Singlet-A      3.9311 eV  315.39 nm  f=0.1806  <S**2>=0.000
     238 -> 243        0.44556
     239 -> 243        0.15348
     240 -> 243        0.11286
     241 -> 244        0.46817

 The electronic state is 1-A.
 Alpha  occ. eigenvalues --  -46.80124 -19.21313 -19.19839 -19.18660 -19.17683
 Alpha  occ. eigenvalues --  -19.16811 -14.36951 -14.35729 -14.34798 -14.34462
 Alpha  occ. eigenvalues --  -10.34747 -10.34093 -10.31244 -10.26797 -10.26060
 Alpha  occ. eigenvalues --  -10.25960 -10.25701 -10.25700 -10.25348 -10.24679
 Alpha  occ. eigenvalues --  -10.24630 -10.24572 -10.24267 -10.24230 -10.23867
 Alpha  occ. eigenvalues --  -10.23531 -10.23510 -10.23351 -10.23210 -10.23111
 Alpha  occ. eigenvalues --  -10.23060 -10.23001 -10.22885 -10.22843 -10.22767
 Alpha  occ. eigenvalues --  -10.22724 -10.22662 -10.22651 -10.22394 -10.22327
 Alpha  occ. eigenvalues --  -10.21926 -10.21917 -10.21913 -10.21820 -10.21781
 Alpha  occ. eigenvalues --  -10.21724 -10.21542 -10.21348 -10.21291 -10.21249
 Alpha  occ. eigenvalues --  -10.21206 -10.20977 -10.20834 -10.20780 -10.20684
 Alpha  occ. eigenvalues --  -10.20555 -10.20530 -10.20404 -10.20293 -10.20291
 Alpha  occ. eigenvalues --  -10.19867 -10.19854 -10.19765 -10.18996 -10.18306
 Alpha  occ. eigenvalues --   -3.08682  -1.83631  -1.83130  -1.83104  -1.15126
 Alpha  occ. eigenvalues --   -1.12660  -1.05991  -1.05245  -1.03822  -1.00747
 Alpha  occ. eigenvalues --   -0.99685  -0.97370  -0.96318  -0.86847  -0.86182
 Alpha  occ. eigenvalues --   -0.85946  -0.85548  -0.85285  -0.84830  -0.84559
 Alpha  occ. eigenvalues --   -0.84055  -0.83698  -0.83096  -0.82601  -0.81502
 Alpha  occ. eigenvalues --   -0.80019  -0.79559  -0.79061  -0.77740  -0.77476
 Alpha  occ. eigenvalues --   -0.76606  -0.75748  -0.75362  -0.74962  -0.73626
 Alpha  occ. eigenvalues --   -0.73110  -0.71995  -0.71721  -0.71536  -0.71028
 Alpha  occ. eigenvalues --   -0.70287  -0.69916  -0.69653  -0.68980  -0.68426
 Alpha  occ. eigenvalues --   -0.67556  -0.66895  -0.66062  -0.64955  -0.63267
 Alpha  occ. eigenvalues --   -0.62271  -0.61737  -0.60992  -0.60541  -0.60126
 Alpha  occ. eigenvalues --   -0.59447  -0.59261  -0.58678  -0.58367  -0.58176
 Alpha  occ. eigenvalues --   -0.57046  -0.56830  -0.56330  -0.55927  -0.55512
 Alpha  occ. eigenvalues --   -0.54581  -0.54437  -0.53960  -0.53665  -0.53028
 Alpha  occ. eigenvalues --   -0.52933  -0.52287  -0.51948  -0.51503  -0.50969
 Alpha  occ. eigenvalues --   -0.50633  -0.50417  -0.50339  -0.49714  -0.49473
 Alpha  occ. eigenvalues --   -0.49439  -0.49015  -0.48813  -0.48500  -0.48104
 Alpha  occ. eigenvalues --   -0.47840  -0.47694  -0.47386  -0.46949  -0.46612
 Alpha  occ. eigenvalues --   -0.46479  -0.46428  -0.46192  -0.45809  -0.45617
 Alpha  occ. eigenvalues --   -0.45307  -0.45227  -0.44913  -0.44704  -0.44475
 Alpha  occ. eigenvalues --   -0.44324  -0.44158  -0.43993  -0.43839  -0.43588
 Alpha  occ. eigenvalues --   -0.43502  -0.43268  -0.43014  -0.42652  -0.42505
 Alpha  occ. eigenvalues --   -0.42408  -0.42330  -0.42239  -0.42125  -0.41812
 Alpha  occ. eigenvalues --   -0.41620  -0.41302  -0.40997  -0.40938  -0.40876
 Alpha  occ. eigenvalues --   -0.40783  -0.40613  -0.40180  -0.40053  -0.39703
 Alpha  occ. eigenvalues --   -0.39565  -0.39461  -0.39312  -0.39249  -0.39075
 Alpha  occ. eigenvalues --   -0.38900  -0.38846  -0.38785  -0.38385  -0.38315
 Alpha  occ. eigenvalues --   -0.38092  -0.37776  -0.37594  -0.37230  -0.37092
 Alpha  occ. eigenvalues --   -0.36721  -0.36710  -0.36582  -0.36279  -0.36260
 Alpha  occ. eigenvalues --   -0.35768  -0.35641  -0.35620  -0.35151  -0.35046
 Alpha  occ. eigenvalues --   -0.35019  -0.34302  -0.34016  -0.33647  -0.33576
 Alpha  occ. eigenvalues --   -0.33199  -0.32913  -0.32805  -0.32567  -0.32493
 Alpha  occ. eigenvalues --   -0.32450  -0.31965  -0.31764  -0.31238  -0.31162
 Alpha  occ. eigenvalues --   -0.30489  -0.30005  -0.29549  -0.29330  -0.28140
 Alpha  occ. eigenvalues --   -0.27655  -0.27097  -0.24529  -0.24093  -0.21944
 Alpha  occ. eigenvalues --   -0.19918
 Alpha virt. eigenvalues --   -0.06379  -0.04348  -0.00007   0.01886   0.03501
 Alpha virt. eigenvalues --    0.04430   0.04856   0.05337   0.05596   0.05726
 Alpha virt. eigenvalues --    0.06142   0.08763   0.09629   0.09960   0.10293

 Mulliken charges:
               1
     1  Mg   0.800140
     2  C    0.005995
     3  C   -0.208315
     4  C   -0.192618
     5  C   -0.201644
     6  N   -0.647385
     7  C    0.291861
     8  C   -0.136867
     9  C   -0.135796
    10  C    0.399855
    11  C   -0.330999
    12  C   -0.169195
    13  C   -0.276376
    14  C    0.613992
    15  O   -0.455112
    16  O   -0.478982
    17  N   -0.741807
    18  C    0.346717
    19  C    0.046525
    20  C    0.017856
    21  C    0.336268
    22  C   -0.408319
    23  C   -0.076668
    24  C   -0.254619
    25  N   -0.670202
    26  C    0.356407
    27  C   -0.002933
    28  C    0.035513
    29  C    0.234801
    30  C   -0.361047
    31  C   -0.214062
    32  C   -0.309751
    33  N   -0.713475
    34  C    0.220443
    35  C   -0.030972
    36  C    0.085726
    37  C    0.351653
    38  C   -0.369764
    39  C    0.369928
    40  O   -0.454949
    41  C   -0.316233
    42  C    0.610675
    43  O   -0.387474
    44  O   -0.490305
    45  C   -0.095415
    46  C    0.023560
    47  C   -0.127982
    48  C    0.134259
    49  C   -0.350666
    50  C   -0.213139
    51  C   -0.179425
    52  C   -0.175489
    53  C   -0.055122
    54  C   -0.309877
    55  C   -0.172904
    56  C   -0.184373
    57  C   -0.169413
    58  C   -0.038103
    59  C   -0.313007
    60  C   -0.156329
    61  C   -0.186500
    62  C   -0.147594
    63  C   -0.056580
    64  C   -0.303682
    65  C   -0.288930
    66  H    0.065876
    67  H    0.083546
    68  H    0.080186
    69  H    0.110303
    70  H    0.093941
    71  H    0.108259
    72  H    0.101621
    73  H    0.126106
    74  H    0.117677
    75  H    0.108227
    76  H    0.143261
    77  H    0.128903
    78  H    0.114855
    79  H    0.117853
    80  H    0.122591
    81  H    0.088751
    82  H    0.098988
    83  H    0.086190
    84  H    0.119523
    85  H    0.111436
    86  H    0.124662
    87  H    0.112064
    88  H    0.097235
    89  H    0.089702
    90  H    0.088359
    91  H    0.126273
    92  H    0.138644
    93  H    0.136702
    94  H    0.135510
    95  H    0.161431
    96  H    0.113241
    97  H    0.124732
    98  H    0.139523
    99  H    0.120464
   100  H    0.106677
   101  H    0.075043
   102  H    0.100132
   103  H    0.118427
   104  H    0.086758
   105  H    0.093804
   106  H    0.102553
   107  H    0.106918
   108  H    0.095845
   109  H    0.085960
   110  H    0.094562
   111  H    0.059761
   112  H    0.103526
   113  H    0.108987
   114  H    0.089032
   115  H    0.080006
   116  H    0.086317
   117  H    0.076245
   118  H    0.100837
   119  H    0.082526
   120  H    0.088545
   121  H    0.095166
   122  H    0.109754
   123  H    0.081025
   124  H    0.089251
   125  H    0.079009
   126  H    0.083845
   127  H    0.088788
   128  H    0.056755
   129  H    0.095802
   130  H    0.073998
   131  H    0.082182
   132  H    0.062191
   133  H    0.087867
   134  H    0.117706
   135  H    0.087836
   136  H    0.109874
   137  H    0.098078
 Sum of Mulliken charges =  -0.00000

 Dipole moment (field-independent basis, Debye):
    X=              1.0698    Y=              2.5989    Z=              0.7968  Tot=              2.9213
 Quadrupole moment (field-independent basis, Debye-Ang):
   XX=           -343.0411   YY=           -399.6953   ZZ=           -396.1927
   XY=            -12.9633   XZ=             10.2038   YZ=             -3.2371

 Normal termination of Gaussian 16 at Tue Oct 22 16:07:54 2019.
