 Gaussian 16, Revision A.03,
 Gaussian 16:  ES64L-G16RevA.03 25-Dec-2016

 ----------------------------------------------------------------------
 # td=(NStates=10) iop(3/107=0140000000,3/108=0140000000) CAM-B3LYP/6-3
 1G(d,p)
 ----------------------------------------------------------------------

 --
 TD
 --
 Symbolic Z-matrix:
 Charge =  0 Multiplicity = 1

                         Standard orientation:
 ---------------------------------------------------------------------
 Center     Atomic      Atomic             Coordinates (Angstroms)
 Number     Number       Type             X           Y           Z
 ---------------------------------------------------------------------
      1         12           0       -7.118741    0.599144    0.050414
      2          6           0       -4.891523   -1.938176    0.602217
      3          6           0       -4.749898    2.850828    1.132619
      4          6           0       -9.424960    3.127252   -0.334714
      5          6           0       -9.537380   -1.763302   -0.792196
      6          7           0       -5.150632    0.408420    0.823284
      7          6           0       -4.400952   -0.731045    0.839482
      8          6           0       -2.936459   -0.417880    1.161391
      9          6           0       -2.979966    1.181904    1.497531
     10          6           0       -4.362231    1.496902    1.066468
     11          6           0       -2.921196    1.268387    3.111768
     12          6           0       -1.941820   -0.677692    0.035204
     13          6           0       -0.497621   -0.475322    0.522804
     14          6           0        0.457750   -0.787253   -0.671833
     15          8           0        0.163376   -1.061974   -1.860061
     16          8           0        1.755205   -0.546595   -0.251630
     17          7           0       -7.053483    2.590549    0.334022
     18          6           0       -5.991866    3.408392    0.810493
     19          6           0       -6.401966    4.789374    0.873895
     20          6           0       -7.742613    4.837742    0.552747
     21          6           0       -8.137833    3.390067    0.214225
     22          6           0       -5.548733    5.876605    1.356706
     23          6           0       -8.662500    5.948144    0.442532
     24          6           0       -8.365789    7.300632    0.127554
     25          7           0       -9.152835    0.709190   -0.540150
     26          6           0       -9.925863    1.869483   -0.642429
     27          6           0      -11.236532    1.444376   -1.133390
     28          6           0      -11.323979    0.152246   -1.160434
     29          6           0       -9.941512   -0.392797   -0.811371
     30          6           0      -12.277518    2.427531   -1.416061
     31          6           0      -12.417060   -0.768791   -1.691266
     32          6           0      -12.207589   -1.085759   -3.127812
     33          7           0       -7.247954   -1.392313   -0.037343
     34          6           0       -8.325623   -2.249663   -0.452985
     35          6           0       -7.892910   -3.614008   -0.466016
     36          6           0       -6.511840   -3.574310   -0.103740
     37          6           0       -6.203780   -2.205359    0.176974
     38          6           0       -8.694738   -4.784114   -0.672905
     39          6           0       -5.364275   -4.412398    0.171938
     40          8           0       -5.232295   -5.628749    0.083141
     41          6           0       -4.157170   -3.374654    0.531155
     42          6           0       -3.474075   -3.656620    1.842143
     43          8           0       -3.531206   -3.144440    2.860678
     44          8           0       -2.724437   -4.818458    1.666099
     45          6           0       -2.267905   -5.348168    2.933796
     46          6           0        2.780506   -0.629440   -1.214397
     47          6           0        4.150224   -0.340737   -0.592864
     48          6           0        5.174801    0.513878   -1.005111
     49          6           0        5.049022    1.322485   -2.217430
     50          6           0        6.389466    0.442989   -0.256533
     51          6           0        7.638210   -0.098045   -0.970223
     52          6           0        9.024813    0.007025   -0.236561
     53          6           0       10.298490   -0.489651   -1.025151
     54          6           0       10.187096   -2.055648   -1.292013
     55          6           0       11.450638   -0.250698   -0.184636
     56          6           0       12.873289   -0.436886   -0.768834
     57          6           0       14.044081   -0.149886    0.112019
     58          6           0       15.376188   -0.220095   -0.506142
     59          6           0       15.642942   -1.703517   -0.893110
     60          6           0       16.434017    0.326181    0.318294
     61          6           0       17.826053    0.554962   -0.095901
     62          6           0       18.680809    1.284976    0.823429
     63          6           0       20.257866    1.306834    0.334025
     64          6           0       20.343891    2.152799   -0.880026
     65          6           0       21.178355    1.841883    1.471322
     66          1           0       -3.837998    3.475102    1.269544
     67          1           0      -10.064511    3.859574   -0.221622
     68          1           0      -10.150849   -2.435306   -1.039076
     69          1           0       -2.597074   -1.061925    2.067160
     70          1           0       -2.367056    1.960594    1.092994
     71          1           0       -2.140107    0.956173    3.532532
     72          1           0       -3.030639    2.207695    3.369052
     73          1           0       -3.707544    0.818229    3.505523
     74          1           0       -2.211410   -1.759620   -0.395956
     75          1           0       -2.248263    0.102891   -0.751434
     76          1           0       -0.205649    0.504809    0.918632
     77          1           0       -0.150779   -1.285276    1.427942
     78          1           0       -5.012135    6.552781    0.443996
     79          1           0       -6.242431    6.664056    1.918240
     80          1           0       -4.758966    5.486713    2.205044
     81          1           0       -9.753904    5.682159    0.564121
     82          1           0       -9.119730    8.037187   -0.105547
     83          1           0       -7.223213    7.512433   -0.071875
     84          1           0      -12.084149    3.107207   -2.045314
     85          1           0      -13.142383    1.854000   -1.907234
     86          1           0      -13.087653    3.099847   -0.560056
     87          1           0      -12.407898   -1.727507   -1.150186
     88          1           0      -13.276340   -0.038698   -1.603712
     89          1           0      -13.100173   -1.605574   -3.589095
     90          1           0      -12.121014   -0.192703   -3.807065
     91          1           0      -11.259307   -1.601237   -3.473535
     92          1           0       -9.086264   -4.847163   -1.622258
     93          1           0       -8.160612   -5.596175   -0.600081
     94          1           0       -9.537065   -4.658333    0.166255
     95          1           0       -3.171492   -3.287682   -0.244660
     96          1           0       -1.671790   -4.464234    3.460577
     97          1           0       -3.129193   -5.532703    3.341569
     98          1           0       -1.486253   -6.145916    2.660130
     99          1           0        2.869486   -1.527434   -1.769155
    100          1           0        2.297855    0.162469   -1.845018
    101          1           0        4.126846   -0.962834    0.316826
    102          1           0        3.962501    1.251698   -2.673278
    103          1           0        5.333171    2.421456   -1.966180
    104          1           0        5.658251    0.920983   -3.043842
    105          1           0        6.696506    1.544107    0.286758
    106          1           0        6.063736   -0.117772    0.770078
    107          1           0        7.392016   -1.095440   -1.251154
    108          1           0        7.687108    0.180963   -2.097012
    109          1           0        9.229911    1.122109   -0.065783
    110          1           0        9.182077   -0.591776    0.704206
    111          1           0       10.195454    0.055904   -2.010029
    112          1           0        9.397646   -2.324130   -1.851416
    113          1           0       11.132076   -2.289068   -1.861753
    114          1           0        9.865530   -2.640230   -0.428858
    115          1           0       11.422754    0.896240    0.208863
    116          1           0       11.352019   -0.644531    0.818893
    117          1           0       12.868267   -1.605597   -1.072770
    118          1           0       12.990382    0.026028   -1.654128
    119          1           0       13.898382    1.136144    0.157475
    120          1           0       14.114318   -0.585033    1.151653
    121          1           0       15.427712    0.363860   -1.402320
    122          1           0       15.651038   -2.260881   -0.000894
    123          1           0       14.842534   -2.289259   -1.532911
    124          1           0       16.656703   -1.989964   -1.231098
    125          1           0       15.914122    1.178119    0.557759
    126          1           0       16.432633   -0.154863    1.401432
    127          1           0       18.428365   -0.242712   -0.383585
    128          1           0       17.940829    1.199717   -1.057355
    129          1           0       18.359406    2.291541    1.068505
    130          1           0       18.793206    0.744107    1.665362
    131          1           0       20.705811    0.339808    0.193586
    132          1           0       20.237240    3.193278   -0.758117
    133          1           0       21.584517    2.169960   -1.152302
    134          1           0       19.755331    1.799844   -1.707015
    135          1           0       20.892537    1.238116    2.549776
    136          1           0       22.266145    1.734055    1.378979
    137          1           0       20.888499    2.958940    1.501847
 ---------------------------------------------------------------------

 SCF Done:  E(RCAM-B3LYP) =  -2933.39712343     A.U. after   16 cycles

 Excitation energies and oscillator strengths:

 Excited State   1:      Singlet-A      1.9508 eV  635.56 nm  f=0.2916  <S**2>=0.000
     240 -> 243        0.20355
     241 -> 242        0.67433
 This state for optimization and/or second-order correction.
 Total Energy, E(TD-HF/TD-DFT) =  -2933.32543316
 Copying the excited state density for this state as the 1-particle RhoCI density.

 Excited State   2:      Singlet-A      2.3306 eV  532.00 nm  f=0.0068  <S**2>=0.000
     240 -> 242        0.53958
     241 -> 243       -0.43828

 Excited State   3:      Singlet-A      3.0857 eV  401.81 nm  f=0.3470  <S**2>=0.000
     236 -> 242        0.10517
     239 -> 242        0.52138
     240 -> 242       -0.29498
     241 -> 243       -0.29767

 Excited State   4:      Singlet-A      3.1366 eV  395.28 nm  f=0.3922  <S**2>=0.000
     237 -> 242       -0.14463
     239 -> 242        0.41746
     240 -> 242        0.28145
     240 -> 243       -0.11660
     241 -> 243        0.43832

 Excited State   5:      Singlet-A      3.3240 eV  373.00 nm  f=0.0020  <S**2>=0.000
     235 -> 242        0.60064
     235 -> 243       -0.15162
     235 -> 244       -0.25005
     235 -> 245       -0.10828
     236 -> 242        0.15424

 Excited State   6:      Singlet-A      3.4131 eV  363.26 nm  f=0.1794  <S**2>=0.000
     236 -> 242        0.20126
     237 -> 242        0.61408
     240 -> 242        0.15208
     241 -> 243        0.12909
     241 -> 244        0.10916

 Excited State   7:      Singlet-A      3.4440 eV  360.00 nm  f=0.4616  <S**2>=0.000
     236 -> 242        0.13417
     237 -> 242       -0.17519
     240 -> 243        0.58365
     241 -> 242       -0.18841
     241 -> 244        0.18970

 Excited State   8:      Singlet-A      3.6367 eV  340.93 nm  f=0.1095  <S**2>=0.000
     235 -> 242       -0.15588
     236 -> 242        0.61413
     237 -> 242       -0.20044
     240 -> 243       -0.18358

 Excited State   9:      Singlet-A      3.7091 eV  334.27 nm  f=0.1953  <S**2>=0.000
     240 -> 242       -0.11048
     240 -> 243       -0.18073
     241 -> 244        0.64742

 Excited State  10:      Singlet-A      4.0357 eV  307.22 nm  f=0.0106  <S**2>=0.000
     234 -> 242        0.37770
     239 -> 243        0.36873
     240 -> 244       -0.12170
     241 -> 245        0.40924

 The electronic state is 1-A.
 Alpha  occ. eigenvalues --  -46.79894 -19.21888 -19.19279 -19.17406 -19.17279
 Alpha  occ. eigenvalues --  -19.16110 -14.37716 -14.36052 -14.35535 -14.35244
 Alpha  occ. eigenvalues --  -10.35442 -10.33405 -10.30926 -10.26871 -10.26457
 Alpha  occ. eigenvalues --  -10.26152 -10.26070 -10.25952 -10.25847 -10.25756
 Alpha  occ. eigenvalues --  -10.25678 -10.25273 -10.25063 -10.24846 -10.24488
 Alpha  occ. eigenvalues --  -10.24418 -10.24393 -10.24073 -10.23975 -10.23888
 Alpha  occ. eigenvalues --  -10.23810 -10.23795 -10.23681 -10.23409 -10.23321
 Alpha  occ. eigenvalues --  -10.22919 -10.22802 -10.22737 -10.22694 -10.22490
 Alpha  occ. eigenvalues --  -10.22452 -10.22318 -10.22310 -10.22298 -10.22246
 Alpha  occ. eigenvalues --  -10.22237 -10.22219 -10.21867 -10.21774 -10.21770
 Alpha  occ. eigenvalues --  -10.21719 -10.21576 -10.21479 -10.21420 -10.21297
 Alpha  occ. eigenvalues --  -10.21238 -10.20871 -10.20744 -10.20733 -10.20114
 Alpha  occ. eigenvalues --  -10.19993 -10.19718 -10.19674 -10.19420 -10.17818
 Alpha  occ. eigenvalues --   -3.08516  -1.83458  -1.82977  -1.82933  -1.14383
 Alpha  occ. eigenvalues --   -1.12127  -1.05289  -1.04573  -1.03233  -0.99274
 Alpha  occ. eigenvalues --   -0.97785  -0.97723  -0.96533  -0.87452  -0.86903
 Alpha  occ. eigenvalues --   -0.86246  -0.85047  -0.84612  -0.84467  -0.83908
 Alpha  occ. eigenvalues --   -0.83866  -0.83843  -0.83432  -0.83142  -0.81004
 Alpha  occ. eigenvalues --   -0.80164  -0.79574  -0.79255  -0.78363  -0.77901
 Alpha  occ. eigenvalues --   -0.77165  -0.76392  -0.76208  -0.75699  -0.73879
 Alpha  occ. eigenvalues --   -0.73181  -0.72133  -0.71641  -0.71242  -0.71129
 Alpha  occ. eigenvalues --   -0.70823  -0.70245  -0.70104  -0.69557  -0.68047
 Alpha  occ. eigenvalues --   -0.67922  -0.66309  -0.65278  -0.64704  -0.63984
 Alpha  occ. eigenvalues --   -0.62968  -0.62580  -0.61275  -0.61103  -0.60652
 Alpha  occ. eigenvalues --   -0.60187  -0.59577  -0.59002  -0.58887  -0.58307
 Alpha  occ. eigenvalues --   -0.56878  -0.56196  -0.55965  -0.55801  -0.55411
 Alpha  occ. eigenvalues --   -0.55202  -0.54354  -0.54059  -0.52821  -0.52348
 Alpha  occ. eigenvalues --   -0.52218  -0.52086  -0.51248  -0.51138  -0.51005
 Alpha  occ. eigenvalues --   -0.50198  -0.50136  -0.49939  -0.49867  -0.49542
 Alpha  occ. eigenvalues --   -0.49160  -0.48873  -0.48563  -0.48346  -0.48048
 Alpha  occ. eigenvalues --   -0.47969  -0.47857  -0.47500  -0.47358  -0.47298
 Alpha  occ. eigenvalues --   -0.47018  -0.46857  -0.46479  -0.46275  -0.46162
 Alpha  occ. eigenvalues --   -0.45985  -0.45673  -0.45365  -0.45101  -0.44846
 Alpha  occ. eigenvalues --   -0.44763  -0.44597  -0.44435  -0.44123  -0.43910
 Alpha  occ. eigenvalues --   -0.43613  -0.43503  -0.43135  -0.43056  -0.42980
 Alpha  occ. eigenvalues --   -0.42710  -0.42429  -0.42227  -0.42136  -0.42044
 Alpha  occ. eigenvalues --   -0.41896  -0.41603  -0.41519  -0.41027  -0.40914
 Alpha  occ. eigenvalues --   -0.40601  -0.40455  -0.40262  -0.40162  -0.39972
 Alpha  occ. eigenvalues --   -0.39820  -0.39529  -0.39398  -0.39131  -0.38975
 Alpha  occ. eigenvalues --   -0.38640  -0.38619  -0.38497  -0.38403  -0.38162
 Alpha  occ. eigenvalues --   -0.37784  -0.37722  -0.37537  -0.37290  -0.37003
 Alpha  occ. eigenvalues --   -0.36701  -0.36651  -0.36569  -0.36436  -0.36251
 Alpha  occ. eigenvalues --   -0.35840  -0.35559  -0.35232  -0.34957  -0.34563
 Alpha  occ. eigenvalues --   -0.34459  -0.34008  -0.33945  -0.33570  -0.33398
 Alpha  occ. eigenvalues --   -0.32779  -0.32671  -0.32434  -0.32418  -0.32115
 Alpha  occ. eigenvalues --   -0.31981  -0.31528  -0.31005  -0.30845  -0.30564
 Alpha  occ. eigenvalues --   -0.30237  -0.30169  -0.30150  -0.28477  -0.27021
 Alpha  occ. eigenvalues --   -0.26996  -0.26467  -0.26305  -0.25201  -0.22364
 Alpha  occ. eigenvalues --   -0.19753
 Alpha virt. eigenvalues --   -0.07423  -0.04164  -0.00504   0.01273   0.02479
 Alpha virt. eigenvalues --    0.03035   0.03992   0.04167   0.04774   0.05932
 Alpha virt. eigenvalues --    0.06637   0.07728   0.08328   0.09152   0.09514

 Mulliken charges:
               1
     1  Mg   0.809756
     2  C    0.081879
     3  C   -0.203668
     4  C   -0.129578
     5  C   -0.119510
     6  N   -0.641635
     7  C    0.308879
     8  C   -0.173750
     9  C   -0.172442
    10  C    0.344894
    11  C   -0.295895
    12  C   -0.140369
    13  C   -0.247555
    14  C    0.604997
    15  O   -0.479965
    16  O   -0.480151
    17  N   -0.713496
    18  C    0.295687
    19  C    0.079975
    20  C    0.021521
    21  C    0.314295
    22  C   -0.387615
    23  C   -0.105109
    24  C   -0.246877
    25  N   -0.687010
    26  C    0.293782
    27  C    0.052234
    28  C    0.016193
    29  C    0.279786
    30  C   -0.355752
    31  C   -0.218679
    32  C   -0.309554
    33  N   -0.751902
    34  C    0.282479
    35  C    0.022782
    36  C    0.022957
    37  C    0.298859
    38  C   -0.359394
    39  C    0.359673
    40  O   -0.460965
    41  C   -0.327416
    42  C    0.609643
    43  O   -0.417601
    44  O   -0.483219
    45  C   -0.062993
    46  C    0.025931
    47  C   -0.154271
    48  C    0.164159
    49  C   -0.365955
    50  C   -0.212697
    51  C   -0.185346
    52  C   -0.162915
    53  C   -0.068479
    54  C   -0.313813
    55  C   -0.151041
    56  C   -0.156158
    57  C   -0.153077
    58  C   -0.047815
    59  C   -0.323197
    60  C   -0.147298
    61  C   -0.166748
    62  C   -0.163477
    63  C   -0.071414
    64  C   -0.289421
    65  C   -0.298040
    66  H    0.079813
    67  H    0.063741
    68  H    0.038514
    69  H    0.120003
    70  H    0.102492
    71  H    0.113783
    72  H    0.104572
    73  H    0.131753
    74  H    0.095209
    75  H    0.112221
    76  H    0.149092
    77  H    0.114347
    78  H    0.099056
    79  H    0.117612
    80  H    0.101187
    81  H    0.095658
    82  H    0.117236
    83  H    0.096279
    84  H    0.137740
    85  H    0.092292
    86  H    0.059199
    87  H    0.112268
    88  H    0.104017
    89  H    0.099548
    90  H    0.103388
    91  H    0.107597
    92  H    0.132183
    93  H    0.148774
    94  H    0.113297
    95  H    0.143321
    96  H    0.101727
    97  H    0.138917
    98  H    0.119837
    99  H    0.135565
   100  H    0.105633
   101  H    0.095662
   102  H    0.103325
   103  H    0.110626
   104  H    0.124863
   105  H    0.056410
   106  H    0.087941
   107  H    0.106253
   108  H    0.082917
   109  H    0.087888
   110  H    0.089850
   111  H    0.081792
   112  H    0.105646
   113  H    0.102952
   114  H    0.099052
   115  H    0.050971
   116  H    0.099255
   117  H    0.067348
   118  H    0.107371
   119  H    0.038951
   120  H    0.092609
   121  H    0.088853
   122  H    0.102509
   123  H    0.085021
   124  H    0.094185
   125  H    0.095640
   126  H    0.056464
   127  H    0.103013
   128  H    0.065988
   129  H    0.088997
   130  H    0.097273
   131  H    0.096493
   132  H    0.114217
   133  H    0.047877
   134  H    0.112144
   135  H    0.063743
   136  H    0.110020
   137  H    0.090911
 Sum of Mulliken charges =  -0.00000

 Dipole moment (field-independent basis, Debye):
    X=              0.5630    Y=              4.1340    Z=              0.0463  Tot=              4.1724
 Quadrupole moment (field-independent basis, Debye-Ang):
   XX=           -348.1710   YY=           -399.1533   ZZ=           -399.2943
   XY=            -19.5725   XZ=             10.8523   YZ=             -4.5834

 Normal termination of Gaussian 16 at Tue Oct 22 10:57:19 2019.
