 Gaussian 16, Revision A.03,
 Gaussian 16:  ES64L-G16RevA.03 25-Dec-2016

 ----------------------------------------------------------------------
 # td=(NStates=10) iop(3/107=0140000000,3/108=0140000000) CAM-B3LYP/6-3
 1G(d,p)
 ----------------------------------------------------------------------

 --
 TD
 --
 Symbolic Z-matrix:
 Charge =  0 Multiplicity = 1

                         Standard orientation:
 ---------------------------------------------------------------------
 Center     Atomic      Atomic             Coordinates (Angstroms)
 Number     Number       Type             X           Y           Z
 ---------------------------------------------------------------------
      1         12           0       -7.106977    0.612477    0.186285
      2          6           0       -4.768203   -1.946262    0.551046
      3          6           0       -4.893501    2.774565    1.279855
      4          6           0       -9.386714    3.075636   -0.390354
      5          6           0       -9.540972   -1.778078   -0.885086
      6          7           0       -5.079573    0.364249    0.773988
      7          6           0       -4.238677   -0.718855    0.887646
      8          6           0       -2.793427   -0.350675    1.215757
      9          6           0       -2.968862    1.169143    1.769099
     10          6           0       -4.438795    1.508637    1.336914
     11          6           0       -2.986983    1.144704    3.251169
     12          6           0       -1.905211   -0.495282    0.104975
     13          6           0       -0.416358   -0.347897    0.564583
     14          6           0        0.468714   -0.597645   -0.687911
     15          8           0        0.162608   -1.067297   -1.739378
     16          8           0        1.768731   -0.430584   -0.288843
     17          7           0       -7.120186    2.618943    0.331376
     18          6           0       -6.054151    3.322802    0.831387
     19          6           0       -6.433093    4.738837    0.831869
     20          6           0       -7.713852    4.826322    0.386425
     21          6           0       -8.160147    3.522833    0.093556
     22          6           0       -5.644363    5.761324    1.284863
     23          6           0       -8.569680    6.030745    0.162907
     24          6           0       -8.200477    7.340717    0.044975
     25          7           0       -9.144146    0.618755   -0.446415
     26          6           0       -9.954826    1.733138   -0.608886
     27          6           0      -11.272463    1.493858   -1.060016
     28          6           0      -11.293113    0.105801   -1.313510
     29          6           0       -9.971008   -0.428561   -0.809207
     30          6           0      -12.346270    2.489569   -1.188951
     31          6           0      -12.367075   -0.671920   -1.897321
     32          6           0      -12.164405   -1.138541   -3.394537
     33          7           0       -7.199159   -1.377024   -0.113463
     34          6           0       -8.307759   -2.272826   -0.521927
     35          6           0       -7.768868   -3.613067   -0.584054
     36          6           0       -6.460991   -3.531342   -0.074476
     37          6           0       -6.174570   -2.177334    0.149022
     38          6           0       -8.581654   -4.758099   -0.929211
     39          6           0       -5.228085   -4.332883    0.171956
     40          8           0       -5.149045   -5.566869   -0.044536
     41          6           0       -4.192679   -3.309561    0.543096
     42          6           0       -3.516565   -3.631478    1.863653
     43          8           0       -3.754101   -3.146328    2.995898
     44          8           0       -2.631332   -4.689670    1.735457
     45          6           0       -2.015316   -5.168077    2.929669
     46          6           0        2.868967   -0.757195   -1.320616
     47          6           0        4.058385   -0.647106   -0.545940
     48          6           0        5.018756    0.251574   -0.908003
     49          6           0        5.065982    1.324341   -2.085100
     50          6           0        6.353945    0.346726   -0.176855
     51          6           0        7.558265   -0.232115   -0.916585
     52          6           0        8.878303   -0.188341   -0.173820
     53          6           0       10.161100   -0.527624   -0.972618
     54          6           0       10.270826   -2.061905   -1.264848
     55          6           0       11.370642   -0.195476    0.005808
     56          6           0       12.745845   -0.427008   -0.725592
     57          6           0       13.968686   -0.115718    0.228894
     58          6           0       15.248250   -0.180139   -0.520944
     59          6           0       15.658131   -1.546253   -1.028669
     60          6           0       16.310187    0.403421    0.483818
     61          6           0       17.730097    0.435588   -0.039012
     62          6           0       18.768432    1.234573    0.787490
     63          6           0       20.159789    1.367795    0.103507
     64          6           0       20.156984    2.317742   -1.144764
     65          6           0       21.156532    1.850745    1.275184
     66          1           0       -4.117711    3.505454    1.718522
     67          1           0       -9.971209    3.841450   -0.837961
     68          1           0      -10.164034   -2.765019   -1.099691
     69          1           0       -2.430257   -0.977220    2.054073
     70          1           0       -2.211452    1.819569    1.405066
     71          1           0       -2.036321    0.951817    3.548481
     72          1           0       -3.339596    2.072015    3.642615
     73          1           0       -3.607203    0.330442    3.779227
     74          1           0       -2.140900   -1.440133   -0.191862
     75          1           0       -2.186868    0.146986   -0.641938
     76          1           0        0.014710    0.740494    1.048485
     77          1           0        0.011133   -1.062972    1.334202
     78          1           0       -4.909160    6.166949    0.394356
     79          1           0       -6.066395    6.548243    1.637205
     80          1           0       -5.014623    5.659138    2.199956
     81          1           0       -9.622979    5.633415    0.284434
     82          1           0       -8.982801    8.137544    0.013897
     83          1           0       -7.247989    7.628518   -0.185784
     84          1           0      -12.171967    3.280239   -1.766365
     85          1           0      -13.211881    1.950713   -1.696420
     86          1           0      -12.443729    2.811384   -0.273764
     87          1           0      -12.598134   -1.671693   -1.210405
     88          1           0      -13.247872   -0.123451   -1.746470
     89          1           0      -13.112808   -1.764671   -3.733173
     90          1           0      -11.907610   -0.213838   -4.040437
     91          1           0      -11.224746   -1.824871   -3.247259
     92          1           0       -8.693418   -4.880330   -1.952292
     93          1           0       -8.246371   -5.894517   -0.701860
     94          1           0       -9.663589   -4.937143   -0.460190
     95          1           0       -3.612380   -3.308276   -0.283026
     96          1           0       -1.532981   -4.294225    3.507080
     97          1           0       -2.682816   -5.611948    3.749355
     98          1           0       -1.362788   -6.018724    2.672240
     99          1           0        2.686833   -1.943265   -1.337888
    100          1           0        2.820130   -0.448570   -2.247982
    101          1           0        4.137293   -1.089102    0.486587
    102          1           0        4.127817    1.595843   -2.664764
    103          1           0        5.456636    2.306328   -1.513982
    104          1           0        6.018752    1.139624   -2.692828
    105          1           0        6.467113    1.381748    0.257228
    106          1           0        6.267966   -0.336577    0.806698
    107          1           0        7.263914   -1.414579   -1.078216
    108          1           0        7.893912    0.237596   -1.867233
    109          1           0        9.028197    1.021013   -0.007201
    110          1           0        8.855066   -0.728518    0.963911
    111          1           0       10.115819    0.318595   -1.680912
    112          1           0        9.288496   -2.314320   -1.854250
    113          1           0       11.062522   -2.347149   -1.920206
    114          1           0       10.261803   -2.552624   -0.440752
    115          1           0       11.357738    0.801691    0.367622
    116          1           0       11.196484   -0.884799    0.696232
    117          1           0       12.764119   -1.551899   -1.001587
    118          1           0       12.931000    0.194254   -1.618718
    119          1           0       13.711001    0.932430    0.608377
    120          1           0       14.124351   -0.763929    1.106139
    121          1           0       15.384724    0.560554   -1.334455
    122          1           0       15.929805   -2.157405   -0.210838
    123          1           0       14.809893   -1.976840   -1.476662
    124          1           0       16.692177   -1.358071   -1.744266
    125          1           0       16.150946    1.425327    0.968268
    126          1           0       16.333351   -0.305638    1.348008
    127          1           0       18.258002   -0.574946   -0.448724
    128          1           0       17.794689    0.995430   -1.024917
    129          1           0       18.326120    2.268300    0.886274
    130          1           0       18.804689    0.669119    1.777661
    131          1           0       20.504617    0.279975   -0.498300
    132          1           0       20.151794    3.419968   -0.918188
    133          1           0       21.189620    2.029878   -1.524100
    134          1           0       19.568637    2.185636   -2.023426
    135          1           0       21.266704    1.070880    2.080211
    136          1           0       22.219621    2.249358    1.001688
    137          1           0       20.938435    2.967905    1.710737
 ---------------------------------------------------------------------

 SCF Done:  E(RCAM-B3LYP) =  -2933.46565621     A.U. after   16 cycles

 Excitation energies and oscillator strengths:

 Excited State   1:      Singlet-A      2.0775 eV  596.80 nm  f=0.2041  <S**2>=0.000
     240 -> 243        0.25843
     241 -> 242        0.65123
 This state for optimization and/or second-order correction.
 Total Energy, E(TD-HF/TD-DFT) =  -2933.38931007
 Copying the excited state density for this state as the 1-particle RhoCI density.

 Excited State   2:      Singlet-A      2.2568 eV  549.38 nm  f=0.0428  <S**2>=0.000
     240 -> 242        0.61461
     241 -> 243       -0.32874

 Excited State   3:      Singlet-A      3.0694 eV  403.93 nm  f=0.0494  <S**2>=0.000
     239 -> 242        0.64104
     239 -> 243        0.10586
     241 -> 243       -0.22127

 Excited State   4:      Singlet-A      3.1039 eV  399.45 nm  f=0.4157  <S**2>=0.000
     236 -> 242        0.24405
     237 -> 242       -0.16225
     239 -> 242        0.15828
     240 -> 242        0.24051
     240 -> 243       -0.22133
     240 -> 244        0.10971
     241 -> 243        0.48815

 Excited State   5:      Singlet-A      3.1919 eV  388.43 nm  f=0.0267  <S**2>=0.000
     236 -> 242       -0.41577
     236 -> 243        0.12361
     236 -> 244       -0.18799
     237 -> 242       -0.22402
     238 -> 242        0.41706
     241 -> 243        0.10869

 Excited State   6:      Singlet-A      3.2184 eV  385.23 nm  f=0.1746  <S**2>=0.000
     236 -> 242        0.33272
     236 -> 244        0.12314
     238 -> 242        0.43899
     240 -> 243        0.34644
     241 -> 242       -0.14654

 Excited State   7:      Singlet-A      3.2830 eV  377.66 nm  f=0.6972  <S**2>=0.000
     236 -> 242       -0.14971
     238 -> 242       -0.25722
     239 -> 242        0.15246
     240 -> 242        0.18843
     240 -> 243        0.47592
     241 -> 242       -0.19709
     241 -> 243        0.24491

 Excited State   8:      Singlet-A      3.4679 eV  357.52 nm  f=0.2165  <S**2>=0.000
     236 -> 242       -0.11202
     237 -> 242        0.62330
     238 -> 242        0.17422
     240 -> 242        0.11655
     240 -> 243       -0.12501
     241 -> 243        0.10532

 Excited State   9:      Singlet-A      3.7278 eV  332.60 nm  f=0.0616  <S**2>=0.000
     238 -> 243        0.49114
     239 -> 243       -0.46637

 Excited State  10:      Singlet-A      3.9480 eV  314.04 nm  f=0.0519  <S**2>=0.000
     234 -> 242        0.21341
     238 -> 243       -0.11875
     239 -> 243       -0.15582
     240 -> 244        0.16034
     241 -> 244        0.59870

 The electronic state is 1-A.
 Alpha  occ. eigenvalues --  -46.79685 -19.22190 -19.20563 -19.17141 -19.16672
 Alpha  occ. eigenvalues --  -19.15815 -14.37166 -14.35329 -14.35066 -14.34734
 Alpha  occ. eigenvalues --  -10.35456 -10.33795 -10.30520 -10.27364 -10.27096
 Alpha  occ. eigenvalues --  -10.26242 -10.26037 -10.25558 -10.25204 -10.25047
 Alpha  occ. eigenvalues --  -10.25021 -10.24807 -10.24682 -10.24554 -10.24265
 Alpha  occ. eigenvalues --  -10.24198 -10.24191 -10.24128 -10.23991 -10.23889
 Alpha  occ. eigenvalues --  -10.23842 -10.23540 -10.23328 -10.23258 -10.23233
 Alpha  occ. eigenvalues --  -10.22992 -10.22954 -10.22782 -10.22707 -10.22484
 Alpha  occ. eigenvalues --  -10.22424 -10.22384 -10.22314 -10.22214 -10.22114
 Alpha  occ. eigenvalues --  -10.22086 -10.21989 -10.21794 -10.21791 -10.21547
 Alpha  occ. eigenvalues --  -10.21416 -10.21242 -10.21084 -10.21070 -10.20986
 Alpha  occ. eigenvalues --  -10.20934 -10.20925 -10.20809 -10.20789 -10.20771
 Alpha  occ. eigenvalues --  -10.20600 -10.20197 -10.20060 -10.19924 -10.19571
 Alpha  occ. eigenvalues --   -3.08222  -1.83167  -1.82695  -1.82626  -1.11584
 Alpha  occ. eigenvalues --   -1.11450  -1.03676  -1.03317  -1.02655  -0.98363
 Alpha  occ. eigenvalues --   -0.97459  -0.96783  -0.95984  -0.88259  -0.86125
 Alpha  occ. eigenvalues --   -0.85824  -0.85262  -0.84757  -0.84263  -0.84212
 Alpha  occ. eigenvalues --   -0.83900  -0.82541  -0.82309  -0.82140  -0.81044
 Alpha  occ. eigenvalues --   -0.80635  -0.79114  -0.79073  -0.77913  -0.77574
 Alpha  occ. eigenvalues --   -0.76431  -0.75874  -0.75520  -0.74724  -0.73935
 Alpha  occ. eigenvalues --   -0.73571  -0.72576  -0.71715  -0.71327  -0.70953
 Alpha  occ. eigenvalues --   -0.70596  -0.70351  -0.69310  -0.68454  -0.67782
 Alpha  occ. eigenvalues --   -0.67241  -0.66295  -0.64832  -0.64309  -0.64066
 Alpha  occ. eigenvalues --   -0.62658  -0.61439  -0.61276  -0.60401  -0.60072
 Alpha  occ. eigenvalues --   -0.59565  -0.59314  -0.58353  -0.57391  -0.57387
 Alpha  occ. eigenvalues --   -0.57076  -0.56897  -0.56329  -0.55830  -0.55215
 Alpha  occ. eigenvalues --   -0.54804  -0.54504  -0.54085  -0.53692  -0.52546
 Alpha  occ. eigenvalues --   -0.51560  -0.51456  -0.51235  -0.50832  -0.50418
 Alpha  occ. eigenvalues --   -0.50229  -0.50007  -0.49691  -0.49362  -0.49006
 Alpha  occ. eigenvalues --   -0.48819  -0.48569  -0.48227  -0.48058  -0.47851
 Alpha  occ. eigenvalues --   -0.47661  -0.47501  -0.47354  -0.46982  -0.46858
 Alpha  occ. eigenvalues --   -0.46643  -0.46283  -0.46152  -0.46061  -0.45936
 Alpha  occ. eigenvalues --   -0.45726  -0.45478  -0.45367  -0.45027  -0.44859
 Alpha  occ. eigenvalues --   -0.44664  -0.44155  -0.44115  -0.43566  -0.43457
 Alpha  occ. eigenvalues --   -0.43325  -0.42905  -0.42716  -0.42548  -0.42472
 Alpha  occ. eigenvalues --   -0.42321  -0.42170  -0.41883  -0.41676  -0.41619
 Alpha  occ. eigenvalues --   -0.41244  -0.40949  -0.40836  -0.40449  -0.40412
 Alpha  occ. eigenvalues --   -0.40269  -0.40125  -0.39995  -0.39805  -0.39671
 Alpha  occ. eigenvalues --   -0.39569  -0.39027  -0.38887  -0.38868  -0.38850
 Alpha  occ. eigenvalues --   -0.38492  -0.38395  -0.38278  -0.37995  -0.37882
 Alpha  occ. eigenvalues --   -0.37653  -0.37382  -0.37297  -0.37174  -0.36917
 Alpha  occ. eigenvalues --   -0.36551  -0.36484  -0.36456  -0.36242  -0.35965
 Alpha  occ. eigenvalues --   -0.35890  -0.35378  -0.34955  -0.34513  -0.34289
 Alpha  occ. eigenvalues --   -0.34149  -0.33839  -0.33811  -0.33651  -0.33243
 Alpha  occ. eigenvalues --   -0.33133  -0.32911  -0.32664  -0.32434  -0.32377
 Alpha  occ. eigenvalues --   -0.32168  -0.32017  -0.31670  -0.30599  -0.30380
 Alpha  occ. eigenvalues --   -0.30050  -0.29698  -0.29637  -0.28116  -0.26775
 Alpha  occ. eigenvalues --   -0.26582  -0.26436  -0.25407  -0.24908  -0.21352
 Alpha  occ. eigenvalues --   -0.20415
 Alpha virt. eigenvalues --   -0.07099  -0.04219  -0.00151   0.01727   0.02797
 Alpha virt. eigenvalues --    0.02930   0.04507   0.04587   0.05406   0.05607
 Alpha virt. eigenvalues --    0.06368   0.08801   0.09223   0.09540   0.09796

 Mulliken charges:
               1
     1  Mg   0.803036
     2  C    0.014291
     3  C   -0.202803
     4  C   -0.215788
     5  C   -0.161601
     6  N   -0.641489
     7  C    0.315081
     8  C   -0.156787
     9  C   -0.143760
    10  C    0.329384
    11  C   -0.309824
    12  C   -0.125834
    13  C   -0.277847
    14  C    0.608760
    15  O   -0.456343
    16  O   -0.506478
    17  N   -0.742172
    18  C    0.363342
    19  C    0.047023
    20  C    0.035109
    21  C    0.310374
    22  C   -0.405125
    23  C   -0.057527
    24  C   -0.254387
    25  N   -0.645866
    26  C    0.286058
    27  C    0.030972
    28  C    0.035493
    29  C    0.268345
    30  C   -0.354885
    31  C   -0.264095
    32  C   -0.288591
    33  N   -0.737407
    34  C    0.231950
    35  C    0.059630
    36  C    0.002850
    37  C    0.352731
    38  C   -0.420936
    39  C    0.361105
    40  O   -0.475602
    41  C   -0.293555
    42  C    0.618084
    43  O   -0.483151
    44  O   -0.441317
    45  C   -0.083657
    46  C    0.028094
    47  C   -0.125979
    48  C    0.133020
    49  C   -0.362956
    50  C   -0.227148
    51  C   -0.140666
    52  C   -0.155783
    53  C   -0.073006
    54  C   -0.307407
    55  C   -0.156589
    56  C   -0.191822
    57  C   -0.160209
    58  C   -0.059319
    59  C   -0.291459
    60  C   -0.168592
    61  C   -0.184999
    62  C   -0.151689
    63  C   -0.029711
    64  C   -0.320586
    65  C   -0.309450
    66  H    0.076289
    67  H    0.082139
    68  H    0.096421
    69  H    0.111865
    70  H    0.102219
    71  H    0.110190
    72  H    0.106364
    73  H    0.123880
    74  H    0.123511
    75  H    0.125743
    76  H    0.108160
    77  H    0.145544
    78  H    0.093989
    79  H    0.130873
    80  H    0.107165
    81  H    0.085376
    82  H    0.102528
    83  H    0.109807
    84  H    0.130961
    85  H    0.103572
    86  H    0.141561
    87  H    0.076587
    88  H    0.104897
    89  H    0.098900
    90  H    0.108844
    91  H    0.106328
    92  H    0.144922
    93  H    0.129028
    94  H    0.112284
    95  H    0.183195
    96  H    0.114841
    97  H    0.120326
    98  H    0.126223
    99  H    0.105229
   100  H    0.133106
   101  H    0.101689
   102  H    0.116485
   103  H    0.101678
   104  H    0.124318
   105  H    0.098956
   106  H    0.078147
   107  H    0.079049
   108  H    0.090529
   109  H    0.055603
   110  H    0.050796
   111  H    0.085546
   112  H    0.084617
   113  H    0.117740
   114  H    0.121766
   115  H    0.086925
   116  H    0.100680
   117  H    0.080340
   118  H    0.094812
   119  H    0.082315
   120  H    0.087566
   121  H    0.084648
   122  H    0.108571
   123  H    0.107828
   124  H    0.079850
   125  H    0.083653
   126  H    0.080053
   127  H    0.066201
   128  H    0.073718
   129  H    0.088505
   130  H    0.082242
   131  H    0.052288
   132  H    0.097529
   133  H    0.099398
   134  H    0.117477
   135  H    0.114122
   136  H    0.086349
   137  H    0.084611
 Sum of Mulliken charges =  -0.00000

 Dipole moment (field-independent basis, Debye):
    X=              2.1629    Y=              5.3269    Z=              0.2297  Tot=              5.7539
 Quadrupole moment (field-independent basis, Debye-Ang):
   XX=           -351.6471   YY=           -391.8901   ZZ=           -398.9745
   XY=            -19.9362   XZ=              9.1933   YZ=             -3.3405

 Normal termination of Gaussian 16 at Thu Oct 24 00:34:12 2019.
