 Gaussian 16, Revision A.03,
 Gaussian 16:  ES64L-G16RevA.03 25-Dec-2016

 ----------------------
 #n wB97XD/Def2TZVP Opt
 ----------------------

 ------
 cla-s0
 ------
 Symbolic Z-matrix:
 Charge =  0 Multiplicity = 1

 SCF Done:  E(RwB97XD) =  -2934.75534017     A.U. after   18 cycles
 SCF Done:  E(RwB97XD) =  -2934.76064432     A.U. after   14 cycles
 SCF Done:  E(RwB97XD) =  -2934.76099924     A.U. after   14 cycles
 SCF Done:  E(RwB97XD) =  -2934.76098032     A.U. after   15 cycles
 SCF Done:  E(RwB97XD) =  -2934.76145446     A.U. after   14 cycles
 SCF Done:  E(RwB97XD) =  -2934.76151263     A.U. after   14 cycles
 SCF Done:  E(RwB97XD) =  -2934.76154870     A.U. after   13 cycles
 SCF Done:  E(RwB97XD) =  -2934.76156439     A.U. after   12 cycles
 SCF Done:  E(RwB97XD) =  -2934.76158189     A.U. after   14 cycles
 SCF Done:  E(RwB97XD) =  -2934.76159877     A.U. after   10 cycles
 SCF Done:  E(RwB97XD) =  -2934.76164343     A.U. after   10 cycles
 SCF Done:  E(RwB97XD) =  -2934.76164361     A.U. after    8 cycles
 SCF Done:  E(RwB97XD) =  -2934.76164385     A.U. after    8 cycles
 SCF Done:  E(RwB97XD) =  -2934.76164406     A.U. after   10 cycles
 SCF Done:  E(RwB97XD) =  -2934.76164421     A.U. after   10 cycles
 SCF Done:  E(RwB97XD) =  -2934.76164430     A.U. after   10 cycles
 SCF Done:  E(RwB97XD) =  -2934.76164434     A.U. after    8 cycles
 SCF Done:  E(RwB97XD) =  -2934.76164436     A.U. after    8 cycles
 SCF Done:  E(RwB97XD) =  -2934.76164436     A.U. after    7 cycles
 SCF Done:  E(RwB97XD) =  -2934.76164437     A.U. after    7 cycles
 Optimization completed.
    -- Stationary point found.

                         Standard orientation:
 ---------------------------------------------------------------------
 Center     Atomic      Atomic             Coordinates (Angstroms)
 Number     Number       Type             X           Y           Z
 ---------------------------------------------------------------------
      1         12           0       -7.193104    0.486516    0.135702
      2          6           0       -4.716348   -1.858831    0.463745
      3          6           0       -4.969493    2.898781    0.986155
      4          6           0       -9.627604    2.797493   -0.248956
      5          6           0       -9.457064   -2.032666   -0.560352
      6          7           0       -5.122786    0.498237    0.627746
      7          6           0       -4.283284   -0.591024    0.687856
      8          6           0       -2.872164   -0.175589    1.028414
      9          6           0       -3.043775    1.303947    1.418311
     10          6           0       -4.462324    1.609066    0.976979
     11          6           0       -2.854015    1.553887    2.913567
     12          6           0       -1.903256   -0.391464   -0.136947
     13          6           0       -0.460054   -0.157612    0.276464
     14          6           0        0.515484   -0.311026   -0.863860
     15          8           0        0.217235   -0.487700   -2.014196
     16          8           0        1.776343   -0.214780   -0.430042
     17          7           0       -7.276259    2.490737    0.320186
     18          6           0       -6.268346    3.310217    0.670798
     19          6           0       -6.728797    4.691853    0.686308
     20          6           0       -8.040353    4.666052    0.325141
     21          6           0       -8.392621    3.267025    0.108157
     22          6           0       -5.890792    5.860922    1.074989
     23          6           0       -8.977743    5.776257    0.194306
     24          6           0       -8.684023    6.987132   -0.267931
     25          7           0       -9.197334    0.393884   -0.328301
     26          6           0      -10.021301    1.450331   -0.450300
     27          6           0      -11.345961    1.020509   -0.800882
     28          6           0      -11.300926   -0.345755   -0.878067
     29          6           0       -9.946033   -0.729492   -0.584260
     30          6           0      -12.512322    1.923157   -1.034401
     31          6           0      -12.409244   -1.276964   -1.253077
     32          6           0      -12.444130   -1.574015   -2.753690
     33          7           0       -7.148882   -1.504918   -0.040421
     34          6           0       -8.149793   -2.427995   -0.301267
     35          6           0       -7.619437   -3.760747   -0.252055
     36          6           0       -6.276772   -3.595123    0.042959
     37          6           0       -6.051131   -2.210009    0.159149
     38          6           0       -8.371392   -5.029777   -0.458960
     39          6           0       -5.023288   -4.293058    0.289751
     40          8           0       -4.772996   -5.468711    0.327345
     41          6           0       -3.938500   -3.159782    0.506686
     42          6           0       -3.194578   -3.409439    1.797369
     43          8           0       -3.590489   -3.111286    2.891369
     44          8           0       -2.028992   -4.021873    1.571829
     45          6           0       -1.288777   -4.390095    2.731898
     46          6           0        2.802584   -0.338971   -1.431817
     47          6           0        4.119937   -0.273763   -0.742357
     48          6           0        5.123675    0.561115   -1.002210
     49          6           0        5.090020    1.636110   -2.051782
     50          6           0        6.417251    0.450422   -0.239016
     51          6           0        7.616484    0.075369   -1.112788
     52          6           0        8.891131   -0.098258   -0.295812
     53          6           0       10.165117   -0.324962   -1.114441
     54          6           0       10.082993   -1.601186   -1.948671
     55          6           0       11.383200   -0.326405   -0.186384
     56          6           0       12.736691   -0.355785   -0.887176
     57          6           0       13.900686   -0.242327    0.090760
     58          6           0       15.287628   -0.142178   -0.550412
     59          6           0       15.634804   -1.392203   -1.355562
     60          6           0       16.336862    0.150063    0.525722
     61          6           0       17.743179    0.428893    0.007172
     62          6           0       18.691779    0.877592    1.112977
     63          6           0       20.155359    1.027443    0.692552
     64          6           0       20.339207    2.078804   -0.398834
     65          6           0       21.025748    1.354876    1.902464
     66          1           0       -4.273362    3.676466    1.271534
     67          1           0      -10.403142    3.539046   -0.393287
     68          1           0      -10.170727   -2.821889   -0.767135
     69          1           0       -2.523417   -0.755279    1.888176
     70          1           0       -2.348567    1.938891    0.862897
     71          1           0       -1.832905    1.308310    3.211850
     72          1           0       -3.044372    2.596734    3.170023
     73          1           0       -3.536342    0.930056    3.494398
     74          1           0       -1.998555   -1.407715   -0.520245
     75          1           0       -2.169757    0.270488   -0.964072
     76          1           0       -0.316810    0.844225    0.692136
     77          1           0       -0.165493   -0.851419    1.068312
     78          1           0       -5.260453    6.195956    0.246772
     79          1           0       -6.515631    6.701338    1.377083
     80          1           0       -5.230638    5.611541    1.907206
     81          1           0      -10.001331    5.574081    0.495858
     82          1           0       -9.440068    7.759490   -0.325244
     83          1           0       -7.693379    7.239642   -0.624774
     84          1           0      -12.329614    2.601121   -1.871719
     85          1           0      -13.412736    1.354385   -1.264779
     86          1           0      -12.725186    2.538498   -0.156891
     87          1           0      -12.312153   -2.213189   -0.698279
     88          1           0      -13.365230   -0.847060   -0.946443
     89          1           0      -13.259345   -2.256583   -3.000054
     90          1           0      -12.583045   -0.654354   -3.324672
     91          1           0      -11.506672   -2.027160   -3.080875
     92          1           0       -8.921217   -5.015744   -1.402345
     93          1           0       -7.689935   -5.878419   -0.468039
     94          1           0       -9.098089   -5.186844    0.341693
     95          1           0       -3.233998   -3.259248   -0.321378
     96          1           0       -1.031704   -3.508537    3.319896
     97          1           0       -1.868718   -5.072899    3.352095
     98          1           0       -0.390250   -4.879511    2.366195
     99          1           0        2.669859   -1.298539   -1.937988
    100          1           0        2.665171    0.441745   -2.178391
    101          1           0        4.255195   -1.014896    0.040315
    102          1           0        4.082771    1.878552   -2.384217
    103          1           0        5.549152    2.549930   -1.667022
    104          1           0        5.666614    1.337746   -2.930976
    105          1           0        6.624803    1.410235    0.248761
    106          1           0        6.309894   -0.290747    0.556810
    107          1           0        7.378566   -0.845958   -1.650780
    108          1           0        7.780329    0.847148   -1.871550
    109          1           0        9.031336    0.793779    0.324390
    110          1           0        8.763025   -0.935286    0.401282
    111          1           0       10.272782    0.523949   -1.802070
    112          1           0        9.235200   -1.581126   -2.634184
    113          1           0       10.979998   -1.746602   -2.551102
    114          1           0        9.969311   -2.474740   -1.299546
    115          1           0       11.338069    0.566440    0.446574
    116          1           0       11.309549   -1.183787    0.493933
    117          1           0       12.831272   -1.277419   -1.464769
    118          1           0       12.788421    0.468572   -1.608150
    119          1           0       13.744539    0.642120    0.717835
    120          1           0       13.885873   -1.102468    0.771440
    121          1           0       15.273423    0.712069   -1.239748
    122          1           0       15.660048   -2.271035   -0.703979
    123          1           0       14.904779   -1.580422   -2.143380
    124          1           0       16.610072   -1.303122   -1.835077
    125          1           0       16.003837    1.016099    1.108122
    126          1           0       16.369759   -0.692102    1.227799
    127          1           0       18.155005   -0.466547   -0.468130
    128          1           0       17.687159    1.194678   -0.772729
    129          1           0       18.342558    1.832153    1.525780
    130          1           0       18.638144    0.154950    1.934678
    131          1           0       20.485248    0.061945    0.290679
    132          1           0       19.970446    3.051519   -0.059556
    133          1           0       21.394388    2.194088   -0.654858
    134          1           0       19.804175    1.817846   -1.312794
    135          1           0       20.926994    0.594662    2.680192
    136          1           0       22.080168    1.420274    1.626443
    137          1           0       20.735088    2.315988    2.336442
 ---------------------------------------------------------------------

 The electronic state is 1-A.
 Alpha  occ. eigenvalues --  -46.89932 -19.29766 -19.29537 -19.23474 -19.23202
 Alpha  occ. eigenvalues --  -19.22950 -14.44250 -14.42244 -14.41919 -14.41918
 Alpha  occ. eigenvalues --  -10.41295 -10.41214 -10.37548 -10.34195 -10.33793
 Alpha  occ. eigenvalues --  -10.33441 -10.33153 -10.32940 -10.32288 -10.31543
 Alpha  occ. eigenvalues --  -10.31210 -10.31052 -10.30912 -10.30876 -10.30871
 Alpha  occ. eigenvalues --  -10.30493 -10.30388 -10.30148 -10.30120 -10.30101
 Alpha  occ. eigenvalues --  -10.30067 -10.29997 -10.29906 -10.29481 -10.29111
 Alpha  occ. eigenvalues --  -10.29095 -10.28894 -10.28859 -10.28744 -10.28546
 Alpha  occ. eigenvalues --  -10.28516 -10.28468 -10.28398 -10.28371 -10.28322
 Alpha  occ. eigenvalues --  -10.28277 -10.28201 -10.28149 -10.28142 -10.28127
 Alpha  occ. eigenvalues --  -10.28106 -10.28040 -10.27698 -10.27486 -10.27381
 Alpha  occ. eigenvalues --  -10.27370 -10.27339 -10.27221 -10.27199 -10.27150
 Alpha  occ. eigenvalues --  -10.27130 -10.26836 -10.26600 -10.26581 -10.26574
 Alpha  occ. eigenvalues --   -3.16221  -1.89700  -1.89136  -1.89078  -1.21494
 Alpha  occ. eigenvalues --   -1.21393  -1.14086  -1.12261  -1.12126  -1.07342
 Alpha  occ. eigenvalues --   -1.06538  -1.06157  -1.05206  -0.94851  -0.93918
 Alpha  occ. eigenvalues --   -0.92980  -0.92727  -0.92080  -0.91964  -0.91451
 Alpha  occ. eigenvalues --   -0.90700  -0.90565  -0.90004  -0.89629  -0.88714
 Alpha  occ. eigenvalues --   -0.87668  -0.86876  -0.86151  -0.85759  -0.85373
 Alpha  occ. eigenvalues --   -0.84238  -0.83897  -0.83229  -0.82491  -0.80818
 Alpha  occ. eigenvalues --   -0.80626  -0.79714  -0.78884  -0.78691  -0.77916
 Alpha  occ. eigenvalues --   -0.77758  -0.77632  -0.77028  -0.75989  -0.75052
 Alpha  occ. eigenvalues --   -0.74266  -0.73082  -0.72259  -0.71583  -0.70794
 Alpha  occ. eigenvalues --   -0.69908  -0.69057  -0.67932  -0.67561  -0.66955
 Alpha  occ. eigenvalues --   -0.66669  -0.65855  -0.65697  -0.65167  -0.64960
 Alpha  occ. eigenvalues --   -0.64463  -0.63231  -0.63009  -0.62464  -0.61817
 Alpha  occ. eigenvalues --   -0.61387  -0.61008  -0.60502  -0.59988  -0.59703
 Alpha  occ. eigenvalues --   -0.58915  -0.58267  -0.57912  -0.57692  -0.57558
 Alpha  occ. eigenvalues --   -0.57080  -0.57062  -0.56756  -0.56415  -0.55878
 Alpha  occ. eigenvalues --   -0.55520  -0.55171  -0.54909  -0.54506  -0.54340
 Alpha  occ. eigenvalues --   -0.53874  -0.53630  -0.53596  -0.53275  -0.53190
 Alpha  occ. eigenvalues --   -0.52885  -0.52787  -0.52592  -0.52432  -0.52228
 Alpha  occ. eigenvalues --   -0.52195  -0.51625  -0.51460  -0.51338  -0.51122
 Alpha  occ. eigenvalues --   -0.50871  -0.50655  -0.50460  -0.50318  -0.49819
 Alpha  occ. eigenvalues --   -0.49664  -0.49483  -0.49088  -0.48793  -0.48644
 Alpha  occ. eigenvalues --   -0.48541  -0.48280  -0.48045  -0.47942  -0.47876
 Alpha  occ. eigenvalues --   -0.47785  -0.47608  -0.47388  -0.47044  -0.46790
 Alpha  occ. eigenvalues --   -0.46655  -0.46606  -0.46422  -0.46103  -0.45986
 Alpha  occ. eigenvalues --   -0.45897  -0.45705  -0.45632  -0.45478  -0.45334
 Alpha  occ. eigenvalues --   -0.45175  -0.44883  -0.44660  -0.44453  -0.44402
 Alpha  occ. eigenvalues --   -0.44199  -0.43886  -0.43792  -0.43553  -0.43402
 Alpha  occ. eigenvalues --   -0.43298  -0.42850  -0.42483  -0.42465  -0.42382
 Alpha  occ. eigenvalues --   -0.42193  -0.41689  -0.41579  -0.41279  -0.40724
 Alpha  occ. eigenvalues --   -0.40286  -0.40241  -0.40052  -0.39941  -0.39767
 Alpha  occ. eigenvalues --   -0.39740  -0.39624  -0.39380  -0.39229  -0.39081
 Alpha  occ. eigenvalues --   -0.38783  -0.38744  -0.38473  -0.36845  -0.36605
 Alpha  occ. eigenvalues --   -0.36443  -0.36170  -0.35295  -0.34067  -0.32844
 Alpha  occ. eigenvalues --   -0.32721  -0.32470  -0.31315  -0.30804  -0.25891
 Alpha  occ. eigenvalues --   -0.24041
 Alpha virt. eigenvalues --   -0.04972  -0.01734   0.03437   0.05483   0.06683
 Alpha virt. eigenvalues --    0.07492   0.07869   0.08149   0.08487   0.09057
 Alpha virt. eigenvalues --    0.09642   0.09951   0.10017   0.10119   0.10625

 Mulliken charges:
               1
     1  Mg   0.762847
     2  C   -0.192210
     3  C   -0.526900
     4  C   -0.353969
     5  C   -0.301627
     6  N   -0.405855
     7  C    0.277614
     8  C    0.000536
     9  C    0.061908
    10  C    0.216844
    11  C   -0.399041
    12  C   -0.309797
    13  C   -0.223503
    14  C    0.342679
    15  O   -0.365271
    16  O   -0.268432
    17  N   -0.383825
    18  C    0.313992
    19  C   -0.016348
    20  C    0.010165
    21  C    0.260763
    22  C   -0.423078
    23  C   -0.175495
    24  C   -0.285122
    25  N   -0.375887
    26  C    0.222008
    27  C   -0.028112
    28  C   -0.042883
    29  C    0.298437
    30  C   -0.389949
    31  C   -0.278095
    32  C   -0.328272
    33  N   -0.393577
    34  C    0.218901
    35  C   -0.075720
    36  C   -0.074714
    37  C    0.176764
    38  C   -0.415660
    39  C    0.136831
    40  O   -0.319695
    41  C    0.055080
    42  C    0.291117
    43  O   -0.352529
    44  O   -0.262261
    45  C   -0.201404
    46  C   -0.047923
    47  C   -0.161468
    48  C    0.053288
    49  C   -0.376257
    50  C   -0.186772
    51  C   -0.254248
    52  C   -0.202083
    53  C    0.052285
    54  C   -0.409873
    55  C   -0.203287
    56  C   -0.226830
    57  C   -0.205037
    58  C    0.057478
    59  C   -0.409847
    60  C   -0.201718
    61  C   -0.231284
    62  C   -0.203883
    63  C    0.013861
    64  C   -0.378318
    65  C   -0.341919
    66  H    0.126470
    67  H    0.135891
    68  H    0.143413
    69  H    0.125610
    70  H    0.090691
    71  H    0.123459
    72  H    0.120705
    73  H    0.143308
    74  H    0.131307
    75  H    0.135498
    76  H    0.131903
    77  H    0.133125
    78  H    0.150302
    79  H    0.154558
    80  H    0.128309
    81  H    0.125455
    82  H    0.131994
    83  H    0.148154
    84  H    0.140654
    85  H    0.120491
    86  H    0.134975
    87  H    0.109612
    88  H    0.112557
    89  H    0.116301
    90  H    0.116926
    91  H    0.119757
    92  H    0.131565
    93  H    0.163664
    94  H    0.141643
    95  H    0.116332
    96  H    0.125019
    97  H    0.142805
    98  H    0.134329
    99  H    0.126629
   100  H    0.100864
   101  H    0.113853
   102  H    0.121045
   103  H    0.125539
   104  H    0.143229
   105  H    0.112803
   106  H    0.105095
   107  H    0.114730
   108  H    0.103284
   109  H    0.094696
   110  H    0.098880
   111  H    0.061637
   112  H    0.125110
   113  H    0.124936
   114  H    0.108190
   115  H    0.093523
   116  H    0.095195
   117  H    0.099088
   118  H    0.091948
   119  H    0.093277
   120  H    0.094558
   121  H    0.060671
   122  H    0.107075
   123  H    0.123081
   124  H    0.125834
   125  H    0.093832
   126  H    0.095334
   127  H    0.096987
   128  H    0.099748
   129  H    0.094306
   130  H    0.093261
   131  H    0.063495
   132  H    0.105531
   133  H    0.116354
   134  H    0.122853
   135  H    0.112570
   136  H    0.116167
   137  H    0.104590
 Sum of Mulliken charges =  -0.00000

 Dipole moment (field-independent basis, Debye):
    X=              1.8092    Y=              5.2234    Z=              0.1121  Tot=              5.5290
 Quadrupole moment (field-independent basis, Debye-Ang):
   XX=           -339.7000   YY=           -393.7866   ZZ=           -405.9430
   XY=            -22.9003   XZ=              8.8008   YZ=              1.2564

 Normal termination of Gaussian 16 at Sun Nov 17 10:29:50 2019.
