 Gaussian 09, Revision D.01,
 Gaussian 09:  ES64L-G09RevD.01 24-Apr-2013

 ----------------------------------------------------------------------
 #n iop(3/107=0140000000,3/108=0140000000) CAM-B3LYP/6-31G(d,p) Td Opt
 Freq=savenormalmodes
 ----------------------------------------------------------------------

 ----------------------------------
 chlorophyll-b-s1-geom-freq-wTunado
 ----------------------------------
 Symbolic Z-matrix:
 Charge =  0 Multiplicity = 1

 SCF Done:  E(RCAM-B3LYP) =  -3008.06111132     A.U. after   15 cycles
 SCF Done:  E(RCAM-B3LYP) =  -3007.95051465     A.U. after   14 cycles
 SCF Done:  E(RCAM-B3LYP) =  -3008.06047631     A.U. after   11 cycles
 SCF Done:  E(RCAM-B3LYP) =  -3008.06103809     A.U. after    5 cycles
 SCF Done:  E(RCAM-B3LYP) =  -3008.05716831     A.U. after   13 cycles
 SCF Done:  E(RCAM-B3LYP) =  -3007.84219479     A.U. after   15 cycles
 SCF Done:  E(RCAM-B3LYP) =  -3008.05684567     A.U. after   11 cycles
 SCF Done:  E(RCAM-B3LYP) =  -3008.05737985     A.U. after    7 cycles
 SCF Done:  E(RCAM-B3LYP) =  -3008.05444909     A.U. after   15 cycles
 SCF Done:  E(RCAM-B3LYP) =  -3008.05763801     A.U. after    9 cycles
 Optimization completed.
    -- Stationary point found.
 Normal termination of Gaussian 09 at Mon Jul  8 11:44:24 2019.

 ----------------------------------------------------------------------
 #N Geom=AllCheck Guess=TCheck SCRF=Check Test GenChk RCAM-B3LYP TD(FC)
 /6-31G(d,p) Freq
 ----------------------------------------------------------------------

 Structure from the checkpoint file:  "chlorophyll-b-s1-geom-freq-wTunado.chk"
 ----------------------------------
 chlorophyll-b-s1-geom-freq-wTunado
 ----------------------------------
 Charge =  0 Multiplicity = 1

                         Standard orientation:
 ---------------------------------------------------------------------
 Center     Atomic      Atomic             Coordinates (Angstroms)
 Number     Number       Type             X           Y           Z
 ---------------------------------------------------------------------
      1         12           0       -1.952469   -0.553361    1.112604
      2          6           0        1.258864   -1.547192    1.966806
      3          6           0       -1.489051    2.344866    2.831086
      4          6           0       -5.092336    0.405324    0.182453
      5          6           0       -2.367844   -3.564552   -0.614821
      6          7           0       -0.325800    0.263835    2.233123
      7          6           0        0.909464   -0.303774    2.469806
      8          6           0        1.765597    0.572829    3.361819
      9          6           0        0.892518    1.831456    3.566515
     10          6           0       -0.400384    1.483430    2.848853
     11          6           0        0.707238    2.209076    5.040508
     12          6           0        3.179150    0.856768    2.823834
     13          6           0        3.210542    1.451910    1.406946
     14          6           0        4.429851    1.005735    0.629111
     15          8           0        4.917196   -0.107143    0.697519
     16          8           0        4.890092    1.971433   -0.181534
     17          7           0       -3.111384    1.067441    1.480118
     18          6           0       -2.744496    2.173908    2.205799
     19          6           0       -3.817492    3.131451    2.227864
     20          6           0       -4.866271    2.575344    1.511179
     21          6           0       -4.390478    1.280689    1.027082
     22          6           0       -3.771406    4.446056    2.940435
     23          6           0       -6.165319    3.196393    1.300103
     24          6           0       -7.342833    2.599983    1.057255
     25          7           0       -3.464436   -1.431089   -0.010538
     26          6           0       -4.675877   -0.846845   -0.280270
     27          6           0       -5.463786   -1.742725   -1.119801
     28          6           0       -4.695483   -2.872020   -1.340566
     29          6           0       -3.443087   -2.654689   -0.640977
     30          6           0       -6.815507   -1.516548   -1.612201
     31          8           0       -7.500356   -0.526914   -1.390004
     32          6           0       -5.015501   -4.078247   -2.171229
     33          6           0       -4.412796   -3.999305   -3.585394
     34          7           0       -0.850515   -2.197149    0.724017
     35          6           0       -1.141952   -3.365996    0.029059
     36          6           0       -0.011444   -4.283393    0.087137
     37          6           0        0.946953   -3.616021    0.834576
     38          6           0        0.395752   -2.354496    1.194773
     39          6           0        0.068891   -5.641213   -0.525500
     40          6           0        2.285698   -3.725121    1.399232
     41          8           0        3.076116   -4.647554    1.365815
     42          6           0        2.558927   -2.330921    2.117494
     43          6           0        2.990859   -2.558460    3.550578
     44          8           0        2.294185   -2.399759    4.533830
     45          8           0        4.266806   -2.971692    3.602072
     46          6           0        4.748499   -3.299129    4.912972
     47          6           0        6.006791    1.590787   -1.049827
     48          6           0        5.571682    0.685569   -2.159317
     49          6           0        5.139083    1.071965   -3.368820
     50          6           0        5.049156    2.507604   -3.817188
     51          6           0        4.710623    0.081506   -4.433159
     52          6           0        4.440496   -1.368856   -4.010935
     53          6           0        3.254248   -1.582711   -3.055117
     54          6           0        1.902162   -1.003635   -3.509096
     55          6           0        1.497189   -1.516408   -4.896719
     56          6           0        0.821109   -1.329906   -2.459819
     57          6           0       -0.476798   -0.516350   -2.568532
     58          6           0       -0.348687    0.924214   -2.055960
     59          6           0       -1.653540    1.739682   -2.126220
     60          6           0       -2.070921    2.028197   -3.574729
     61          6           0       -1.618583    3.029681   -1.278447
     62          6           0       -0.577935    4.105366   -1.651201
     63          6           0        0.773177    3.979613   -0.933486
     64          6           0        1.714829    5.178205   -1.141031
     65          6           0        2.939035    5.074698   -0.225277
     66          6           0        2.152911    5.325860   -2.602666
     67          1           0       -1.356135    3.280692    3.365164
     68          1           0       -6.063702    0.720223   -0.172751
     69          1           0       -2.503049   -4.502220   -1.144499
     70          1           0        1.879030    0.041571    4.317160
     71          1           0        1.347613    2.688446    3.048005
     72          1           0        1.678587    2.406698    5.506356
     73          1           0        0.225483    1.394363    5.590521
     74          1           0        0.093409    3.107177    5.156553
     75          1           0        3.766721   -0.064398    2.823215
     76          1           0        3.683137    1.537519    3.520969
     77          1           0        3.150541    2.542631    1.399779
     78          1           0        2.351133    1.085266    0.826677
     79          1           0       -2.942846    5.069672    2.583168
     80          1           0       -3.631834    4.313754    4.020666
     81          1           0       -4.695528    5.011555    2.801475
     82          1           0       -6.165493    4.283134    1.382214
     83          1           0       -7.466228    1.524383    1.001242
     84          1           0       -8.239417    3.196253    0.921754
     85          1           0       -7.225577   -2.338518   -2.236899
     86          1           0       -6.100199   -4.204775   -2.245650
     87          1           0       -4.640035   -4.976188   -1.665495
     88          1           0       -3.325113   -3.886640   -3.542521
     89          1           0       -4.814822   -3.139469   -4.129647
     90          1           0       -4.642533   -4.904707   -4.155599
     91          1           0        1.034021   -6.098653   -0.297831
     92          1           0       -0.043546   -5.598470   -1.616315
     93          1           0       -0.722790   -6.300265   -0.147891
     94          1           0        3.400327   -1.872987    1.579018
     95          1           0        5.781758   -3.615378    4.775124
     96          1           0        4.153820   -4.105969    5.348091
     97          1           0        4.694809   -2.427860    5.570930
     98          1           0        6.758832    1.101965   -0.426038
     99          1           0        6.391933    2.548348   -1.399708
    100          1           0        5.584544   -0.370418   -1.911376
    101          1           0        4.005751    2.769953   -4.033907
    102          1           0        5.604919    2.654385   -4.752030
    103          1           0        5.422782    3.222972   -3.082485
    104          1           0        5.485028    0.083622   -5.215821
    105          1           0        3.817971    0.487631   -4.929606
    106          1           0        5.342966   -1.793741   -3.553967
    107          1           0        4.276252   -1.951438   -4.925407
    108          1           0        3.492441   -1.163506   -2.070445
    109          1           0        3.134294   -2.664794   -2.900259
    110          1           0        2.003228    0.091034   -3.562684
    111          1           0        0.510702   -1.146382   -5.193471
    112          1           0        1.455998   -2.613198   -4.902029
    113          1           0        2.204821   -1.207953   -5.672993
    114          1           0        1.240328   -1.185335   -1.453424
    115          1           0        0.585676   -2.401556   -2.530566
    116          1           0       -1.261174   -1.024006   -1.991510
    117          1           0       -0.827703   -0.512748   -3.608001
    118          1           0        0.439441    1.450456   -2.612783
    119          1           0       -0.002003    0.888764   -1.010024
    120          1           0       -2.447957    1.118453   -1.682142
    121          1           0       -2.999967    2.607650   -3.604819
    122          1           0       -2.240822    1.106353   -4.139262
    123          1           0       -1.302789    2.600988   -4.107751
    124          1           0       -1.481592    2.756124   -0.223493
    125          1           0       -2.619977    3.475193   -1.338246
    126          1           0       -0.994069    5.090309   -1.398258
    127          1           0       -0.428164    4.122014   -2.737969
    128          1           0        1.293887    3.062946   -1.243987
    129          1           0        0.580358    3.868012    0.144330
    130          1           0        1.158623    6.086902   -0.862455
    131          1           0        3.595820    5.944433   -0.339490
    132          1           0        3.529417    4.178504   -0.453058
    133          1           0        2.641318    5.021298    0.829132
    134          1           0        1.302406    5.472299   -3.275288
    135          1           0        2.693370    4.429736   -2.934006
    136          1           0        2.824903    6.182096   -2.727347
 ---------------------------------------------------------------------

 SCF Done:  E(RCAM-B3LYP) =  -3007.20443100     A.U. after    6 cycles
 SCF Done:  E(RCAM-B3LYP) =  -3007.20443110     A.U. after    7 cycles
 SCF Done:  E(RCAM-B3LYP) =  -3007.20443218     A.U. after    6 cycles
 SCF Done:  E(RCAM-B3LYP) =  -3007.20443026     A.U. after    7 cycles
 SCF Done:  E(RCAM-B3LYP) =  -3007.20442238     A.U. after    7 cycles
 SCF Done:  E(RCAM-B3LYP) =  -3007.20443848     A.U. after    9 cycles
 SCF Done:  E(RCAM-B3LYP) =  -3007.20444710     A.U. after    9 cycles
 SCF Done:  E(RCAM-B3LYP) =  -3007.20441339     A.U. after   10 cycles
 SCF Done:  E(RCAM-B3LYP) =  -3007.20443692     A.U. after    9 cycles

 Excitation energies and oscillator strengths:

 Excited state symmetry could not be determined.
 Excited State   1:      Singlet-?Sym    2.0826 eV  595.32 nm  f=0.1629  <S**2>=0.000
     243 -> 246        0.27770
     244 -> 245        0.63971
 This state for optimization and/or second-order correction.
 Total Energy, E(TD-HF/TD-KS) =  -3007.12790107
 Copying the excited state density for this state as the 1-particle RhoCI density.

 Excited state symmetry could not be determined.
 Excited State   2:      Singlet-?Sym    2.4060 eV  515.31 nm  f=0.0023  <S**2>=0.000
     243 -> 245        0.52804
     244 -> 246       -0.45105

 Excited state symmetry could not be determined.
 Excited State   3:      Singlet-?Sym    3.1593 eV  392.44 nm  f=0.6284  <S**2>=0.000
     242 -> 245       -0.26032
     243 -> 245        0.39384
     244 -> 246        0.49846

 Alpha  occ. eigenvalues --  -46.84886 -19.26736 -19.26066 -19.21243 -19.20914
 Alpha  occ. eigenvalues --  -19.20616 -19.20538 -14.42187 -14.40431 -14.39930
 Alpha  occ. eigenvalues --  -14.39770 -10.39507 -10.38854 -10.35328 -10.34506
 Alpha  occ. eigenvalues --  -10.31822 -10.31389 -10.31089 -10.30778 -10.30389
 Alpha  occ. eigenvalues --  -10.29782 -10.29714 -10.29658 -10.29489 -10.29295
 Alpha  occ. eigenvalues --  -10.29035 -10.28623 -10.28125 -10.27943 -10.27819
 Alpha  occ. eigenvalues --  -10.27583 -10.27525 -10.27480 -10.27307 -10.27305
 Alpha  occ. eigenvalues --  -10.26952 -10.26941 -10.26932 -10.26840 -10.26599
 Alpha  occ. eigenvalues --  -10.26434 -10.26428 -10.26233 -10.26111 -10.26109
 Alpha  occ. eigenvalues --  -10.25995 -10.25914 -10.25904 -10.25624 -10.25543
 Alpha  occ. eigenvalues --  -10.25491 -10.25168 -10.25099 -10.25077 -10.25058
 Alpha  occ. eigenvalues --  -10.24468 -10.24415 -10.24392 -10.24233 -10.24224
 Alpha  occ. eigenvalues --  -10.24183 -10.24136 -10.24064 -10.24025 -10.23992
 Alpha  occ. eigenvalues --  -10.23714  -3.13786  -1.88503  -1.88023  -1.87978
 Alpha  occ. eigenvalues --   -1.18473  -1.18136  -1.11159  -1.10973  -1.09357
 Alpha  occ. eigenvalues --   -1.08827  -1.04855  -1.03881  -1.03686  -1.02782
 Alpha  occ. eigenvalues --   -0.92603  -0.91276  -0.90361  -0.90002  -0.89793
 Alpha  occ. eigenvalues --   -0.89024  -0.89018  -0.88616  -0.87852  -0.87753
 Alpha  occ. eigenvalues --   -0.87662  -0.86235  -0.84901  -0.84153  -0.83480
 Alpha  occ. eigenvalues --   -0.82917  -0.82678  -0.81664  -0.81405  -0.80832
 Alpha  occ. eigenvalues --   -0.79864  -0.78746  -0.77793  -0.76892  -0.76465
 Alpha  occ. eigenvalues --   -0.75913  -0.75658  -0.74853  -0.74498  -0.74193
 Alpha  occ. eigenvalues --   -0.73534  -0.73162  -0.71682  -0.70707  -0.70517
 Alpha  occ. eigenvalues --   -0.69861  -0.68425  -0.67650  -0.67518  -0.65369
 Alpha  occ. eigenvalues --   -0.64982  -0.64638  -0.64296  -0.63511  -0.62533
 Alpha  occ. eigenvalues --   -0.62436  -0.61725  -0.61586  -0.60789  -0.60101
 Alpha  occ. eigenvalues --   -0.59542  -0.58983  -0.58798  -0.58028  -0.57768
 Alpha  occ. eigenvalues --   -0.57269  -0.56896  -0.56035  -0.55808  -0.55375
 Alpha  occ. eigenvalues --   -0.55316  -0.54865  -0.54800  -0.54313  -0.53955
 Alpha  occ. eigenvalues --   -0.53879  -0.53498  -0.53195  -0.52964  -0.52549
 Alpha  occ. eigenvalues --   -0.52195  -0.52106  -0.51479  -0.51344  -0.50930
 Alpha  occ. eigenvalues --   -0.50793  -0.50642  -0.50597  -0.50332  -0.50219
 Alpha  occ. eigenvalues --   -0.49964  -0.49807  -0.49387  -0.49332  -0.49039
 Alpha  occ. eigenvalues --   -0.48816  -0.48771  -0.48264  -0.48152  -0.48088
 Alpha  occ. eigenvalues --   -0.47858  -0.47513  -0.47393  -0.47327  -0.46906
 Alpha  occ. eigenvalues --   -0.46498  -0.46385  -0.46306  -0.46030  -0.45852
 Alpha  occ. eigenvalues --   -0.45830  -0.45489  -0.45367  -0.45197  -0.45060
 Alpha  occ. eigenvalues --   -0.44824  -0.44612  -0.44555  -0.44373  -0.44323
 Alpha  occ. eigenvalues --   -0.44296  -0.44024  -0.43768  -0.43513  -0.43391
 Alpha  occ. eigenvalues --   -0.43290  -0.43190  -0.42777  -0.42521  -0.42323
 Alpha  occ. eigenvalues --   -0.42178  -0.42008  -0.41654  -0.41424  -0.41370
 Alpha  occ. eigenvalues --   -0.41181  -0.41125  -0.40918  -0.40700  -0.40631
 Alpha  occ. eigenvalues --   -0.40345  -0.40248  -0.39946  -0.39428  -0.39190
 Alpha  occ. eigenvalues --   -0.38764  -0.38309  -0.37663  -0.37577  -0.37544
 Alpha  occ. eigenvalues --   -0.37446  -0.36983  -0.36872  -0.36294  -0.36087
 Alpha  occ. eigenvalues --   -0.36026  -0.35883  -0.35782  -0.35678  -0.34850
 Alpha  occ. eigenvalues --   -0.34629  -0.34414  -0.34157  -0.33516  -0.32641
 Alpha  occ. eigenvalues --   -0.31442  -0.30930  -0.30402  -0.30203  -0.30150
 Alpha  occ. eigenvalues --   -0.29920  -0.27482  -0.23490  -0.21962
 Alpha virt. eigenvalues --   -0.06761  -0.04678   0.01064   0.02800   0.04497
 Alpha virt. eigenvalues --    0.05264   0.05912   0.06429   0.06809   0.07520
 Alpha virt. eigenvalues --    0.08237   0.09120   0.10452   0.11034   0.11551

 Mulliken charges:
               1
     1  Mg   0.825959
     2  C    0.072307
     3  C   -0.206311
     4  C   -0.192560
     5  C   -0.192108
     6  N   -0.653341
     7  C    0.294043
     8  C   -0.154412
     9  C   -0.153183
    10  C    0.356626
    11  C   -0.315571
    12  C   -0.199158
    13  C   -0.274333
    14  C    0.606571
    15  O   -0.478443
    16  O   -0.462386
    17  N   -0.724114
    18  C    0.317333
    19  C    0.014639
    20  C    0.015892
    21  C    0.311654
    22  C   -0.374119
    23  C   -0.084084
    24  C   -0.248586
    25  N   -0.705396
    26  C    0.307421
    27  C   -0.028948
    28  C    0.027615
    29  C    0.303188
    30  C    0.251733
    31  O   -0.429825
    32  C   -0.248268
    33  C   -0.311682
    34  N   -0.734841
    35  C    0.276325
    36  C    0.018589
    37  C    0.029732
    38  C    0.296111
    39  C   -0.384841
    40  C    0.357827
    41  O   -0.457779
    42  C   -0.351957
    43  C    0.631501
    44  O   -0.486399
    45  O   -0.447026
    46  C   -0.084084
    47  C   -0.008080
    48  C   -0.148514
    49  C    0.135958
    50  C   -0.371768
    51  C   -0.223500
    52  C   -0.202508
    53  C   -0.170526
    54  C   -0.058276
    55  C   -0.314441
    56  C   -0.173411
    57  C   -0.200980
    58  C   -0.183746
    59  C   -0.075424
    60  C   -0.313389
    61  C   -0.193195
    62  C   -0.182708
    63  C   -0.165220
    64  C   -0.057146
    65  C   -0.325338
    66  C   -0.314842
    67  H    0.080425
    68  H    0.136366
    69  H    0.091401
    70  H    0.154281
    71  H    0.120475
    72  H    0.110738
    73  H    0.125463
    74  H    0.109566
    75  H    0.137183
    76  H    0.107472
    77  H    0.133382
    78  H    0.151765
    79  H    0.120793
    80  H    0.125201
    81  H    0.114975
    82  H    0.088445
    83  H    0.121579
    84  H    0.101990
    85  H    0.068661
    86  H    0.112859
    87  H    0.115158
    88  H    0.115747
    89  H    0.116990
    90  H    0.111763
    91  H    0.150771
    92  H    0.123705
    93  H    0.126046
    94  H    0.195611
    95  H    0.127619
    96  H    0.134167
    97  H    0.124306
    98  H    0.132765
    99  H    0.114545
   100  H    0.115749
   101  H    0.127358
   102  H    0.117212
   103  H    0.110536
   104  H    0.108510
   105  H    0.101961
   106  H    0.099950
   107  H    0.094119
   108  H    0.099318
   109  H    0.090544
   110  H    0.079780
   111  H    0.099547
   112  H    0.097922
   113  H    0.098425
   114  H    0.089610
   115  H    0.083108
   116  H    0.107304
   117  H    0.089031
   118  H    0.091764
   119  H    0.091519
   120  H    0.103217
   121  H    0.101870
   122  H    0.099810
   123  H    0.096803
   124  H    0.101095
   125  H    0.091553
   126  H    0.087109
   127  H    0.091440
   128  H    0.088740
   129  H    0.079412
   130  H    0.080754
   131  H    0.093802
   132  H    0.119412
   133  H    0.087395
   134  H    0.102770
   135  H    0.098258
   136  H    0.096827
 Sum of Mulliken charges =   0.00000

 Dipole moment (field-independent basis, Debye):
    X=              2.0363    Y=              2.5769    Z=             -1.1423  Tot=              3.4773
 Quadrupole moment (field-independent basis, Debye-Ang):
   XX=           -411.4970   YY=           -383.1288   ZZ=           -380.1322
   XY=             25.6959   XZ=              1.5085   YZ=             19.6633

 SCF Done:  E(RCAM-B3LYP) =  -3007.20442465     A.U. after   10 cycles
