 Gaussian 16, Revision A.03,
 Gaussian 16:  ES64L-G16RevA.03 25-Dec-2016

 --------------------------
 #n B3LYP/6-31G(d,p) Opt td
 --------------------------

 ------------------
 b-carotene-s1-geom
 ------------------
 Symbolic Z-matrix:
 Charge =  0 Multiplicity = 1

 SCF Done:  E(RB3LYP) =  -1557.97691580     A.U. after   14 cycles
 Total Energy, E(TD-HF/TD-DFT) =  -1557.89335967
 SCF Done:  E(RB3LYP) =  -1557.97398825     A.U. after   13 cycles
 Total Energy, E(TD-HF/TD-DFT) =  -1557.89902641
 SCF Done:  E(RB3LYP) =  -1557.97122340     A.U. after   13 cycles
 Total Energy, E(TD-HF/TD-DFT) =  -1557.90007307
 SCF Done:  E(RB3LYP) =  -1557.97039768     A.U. after   11 cycles
 Total Energy, E(TD-HF/TD-DFT) =  -1557.90007654
 SCF Done:  E(RB3LYP) =  -1557.97092585     A.U. after   10 cycles
 Total Energy, E(TD-HF/TD-DFT) =  -1557.90023649
 SCF Done:  E(RB3LYP) =  -1557.97096213     A.U. after   10 cycles
 Total Energy, E(TD-HF/TD-DFT) =  -1557.90027764
 SCF Done:  E(RB3LYP) =  -1557.97095457     A.U. after   10 cycles
 Total Energy, E(TD-HF/TD-DFT) =  -1557.90028872
 SCF Done:  E(RB3LYP) =  -1557.97101908     A.U. after    9 cycles
 Total Energy, E(TD-HF/TD-DFT) =  -1557.90029307
 SCF Done:  E(RB3LYP) =  -1557.97105746     A.U. after    9 cycles
 Total Energy, E(TD-HF/TD-DFT) =  -1557.90029565
 SCF Done:  E(RB3LYP) =  -1557.97104551     A.U. after    9 cycles
 Total Energy, E(TD-HF/TD-DFT) =  -1557.90029705
 Total Energy, E(TD-HF/TD-DFT) =  -1557.90029803
 Total Energy, E(TD-HF/TD-DFT) =  -1557.90029848
 Total Energy, E(TD-HF/TD-DFT) =  -1557.90029876
 Total Energy, E(TD-HF/TD-DFT) =  -1557.90029890
 Total Energy, E(TD-HF/TD-DFT) =  -1557.90029896
 Total Energy, E(TD-HF/TD-DFT) =  -1557.90029903
 Total Energy, E(TD-HF/TD-DFT) =  -1557.90029907
 SCF Done:  E(RB3LYP) =  -1557.97101452     A.U. after    6 cycles
 Total Energy, E(TD-HF/TD-DFT) =  -1557.90029907
 SCF Done:  E(RB3LYP) =  -1557.97101002     A.U. after    6 cycles
 Total Energy, E(TD-HF/TD-DFT) =  -1557.90029910
 SCF Done:  E(RB3LYP) =  -1557.97100637     A.U. after    6 cycles
 Total Energy, E(TD-HF/TD-DFT) =  -1557.90029912
 SCF Done:  E(RB3LYP) =  -1557.97100527     A.U. after    6 cycles
 Total Energy, E(TD-HF/TD-DFT) =  -1557.90029917
 SCF Done:  E(RB3LYP) =  -1557.97100733     A.U. after    6 cycles
 Total Energy, E(TD-HF/TD-DFT) =  -1557.90029922
 SCF Done:  E(RB3LYP) =  -1557.97101116     A.U. after    6 cycles
 Total Energy, E(TD-HF/TD-DFT) =  -1557.90029925
 SCF Done:  E(RB3LYP) =  -1557.97101440     A.U. after    6 cycles
 Total Energy, E(TD-HF/TD-DFT) =  -1557.90029927
 SCF Done:  E(RB3LYP) =  -1557.97101556     A.U. after    6 cycles
 Total Energy, E(TD-HF/TD-DFT) =  -1557.90029929
 SCF Done:  E(RB3LYP) =  -1557.97101273     A.U. after    6 cycles
 Total Energy, E(TD-HF/TD-DFT) =  -1557.90029928
 SCF Done:  E(RB3LYP) =  -1557.97100956     A.U. after    5 cycles

 Excitation energies and oscillator strengths:

 Excited State   1:      Singlet-A      1.9241 eV  644.37 nm  f=3.4545  <S**2>=0.000
     148 ->149         0.71529
     148 <-149        -0.14428
 This state for optimization and/or second-order correction.
 Total Energy, E(TD-HF/TD-DFT) =  -1557.90029930
 Copying the excited state density for this state as the 1-particle RhoCI density.

 Excited State   2:      Singlet-A      2.2578 eV  549.14 nm  f=0.0186  <S**2>=0.000
     147 ->149         0.54485
     148 ->150         0.44157

 Excited State   3:      Singlet-A      2.9762 eV  416.59 nm  f=0.0719  <S**2>=0.000
     146 ->149         0.61902
     147 ->150        -0.10159
     148 ->151         0.29995

 Optimization completed.
    -- Stationary point found.

                         Standard orientation:
 ---------------------------------------------------------------------
 Center     Atomic      Atomic             Coordinates (Angstroms)
 Number     Number       Type             X           Y           Z
 ---------------------------------------------------------------------
      1          6           0       12.248205    0.601368   -0.520847
      2          6           0      -12.203575   -0.060890    0.783954
      3          6           0       13.511590   -0.282442   -0.392974
      4          6           0      -13.091813    1.110456    1.262991
      5          6           0       13.208978   -1.771021   -0.532732
      6          6           0      -13.380278    2.128748    0.165296
      7          6           0       11.049375   -0.005507    0.255527
      8          6           0      -10.991038    0.457323   -0.034777
      9          6           0       12.273395   -2.193631    0.596710
     10          6           0      -12.067333    2.727419   -0.338362
     11          6           0       11.109758   -1.251833    0.813735
     12          6           0      -10.967017    1.712724   -0.575092
     13          6           0       11.864831    0.756602   -2.011850
     14          6           0       12.618306    1.997295    0.036586
     15          6           0      -13.039192   -1.030964   -0.086447
     16          6           0      -11.726924   -0.814991    2.046808
     17          6           0        9.871762    0.853599    0.337048
     18          6           0       -9.927782   -0.526475   -0.218743
     19          6           0       10.069146   -1.821210    1.746908
     20          6           0       -9.865800    2.228228   -1.470172
     21          6           0        8.559857    0.461819    0.285917
     22          6           0       -8.575791   -0.310993   -0.225189
     23          6           0        7.415117    1.323529    0.347944
     24          6           0       -7.559642   -1.311630   -0.385523
     25          6           0        7.621950    2.805571    0.536849
     26          6           0       -7.968651   -2.742676   -0.628399
     27          6           0        6.154557    0.751230    0.227857
     28          6           0       -6.231158   -0.914775   -0.305043
     29          6           0        4.893476    1.385577    0.258288
     30          6           0       -5.066280   -1.704993   -0.422000
     31          6           0        3.696609    0.693765    0.125765
     32          6           0       -3.787343   -1.175194   -0.320684
     33          6           0        2.398874    1.257459    0.149633
     34          6           0       -2.563152   -1.880598   -0.419610
     35          6           0        2.249615    2.750408    0.341402
     36          6           0       -2.588300   -3.370792   -0.662754
     37          6           0        1.226373    0.493757    0.003926
     38          6           0       -1.370001   -1.157702   -0.282468
     39          6           0        1.122093   -0.891765   -0.196433
     40          6           0       -0.054534   -1.643385   -0.333066
     41          1           0       13.969801   -0.111296    0.591129
     42          1           0       14.246907    0.043953   -1.138750
     43          1           0      -12.584467    1.621733    2.092745
     44          1           0      -14.023825    0.702305    1.673939
     45          1           0       14.132689   -2.360348   -0.504627
     46          1           0       12.737751   -1.973221   -1.502373
     47          1           0      -14.039993    2.921276    0.537058
     48          1           0      -13.909664    1.649187   -0.666806
     49          1           0       12.840162   -2.280747    1.538925
     50          1           0       11.876347   -3.203027    0.413416
     51          1           0      -11.700202    3.473120    0.387217
     52          1           0      -12.237754    3.293106   -1.263750
     53          1           0       11.668660   -0.212398   -2.481092
     54          1           0       12.671731    1.247369   -2.568851
     55          1           0       10.959152    1.360762   -2.121632
     56          1           0       12.771625    1.964134    1.120357
     57          1           0       11.860094    2.755172   -0.178956
     58          1           0       13.551631    2.339551   -0.424662
     59          1           0      -13.449355   -0.531859   -0.968952
     60          1           0      -13.874336   -1.440463    0.493910
     61          1           0      -12.440093   -1.876686   -0.438353
     62          1           0      -11.072690   -0.184233    2.657319
     63          1           0      -11.176749   -1.728342    1.805218
     64          1           0      -12.590073   -1.100251    2.659487
     65          1           0       10.064086    1.922406    0.365457
     66          1           0      -10.260339   -1.560713   -0.279627
     67          1           0        9.425708   -1.056280    2.183438
     68          1           0       10.566002   -2.363827    2.562126
     69          1           0        9.424390   -2.555982    1.244005
     70          1           0       -9.277604    1.427764   -1.920598
     71          1           0       -9.171306    2.883636   -0.924807
     72          1           0      -10.291363    2.839658   -2.275067
     73          1           0        8.342286   -0.595243    0.152234
     74          1           0       -8.213227    0.700032   -0.056016
     75          1           0        8.187798    3.009614    1.453728
     76          1           0        6.682992    3.356480    0.597432
     77          1           0        8.201021    3.230403   -0.293062
     78          1           0       -8.611993   -2.822756   -1.512718
     79          1           0       -8.544232   -3.137165    0.218850
     80          1           0       -7.114215   -3.402692   -0.780215
     81          1           0        6.132700   -0.330947    0.093054
     82          1           0       -6.060570    0.147770   -0.126805
     83          1           0        4.855637    2.462734    0.391222
     84          1           0       -5.172175   -2.771689   -0.595912
     85          1           0        3.775111   -0.383191   -0.006924
     86          1           0       -3.711780   -0.101868   -0.143810
     87          1           0        2.694784    3.081900    1.287719
     88          1           0        1.197874    3.046810    0.346499
     89          1           0        2.750059    3.311193   -0.457875
     90          1           0       -3.138281   -3.608859   -1.580949
     91          1           0       -3.093841   -3.895063    0.157388
     92          1           0       -1.589750   -3.797299   -0.759637
     93          1           0        0.295947    1.055267    0.051202
     94          1           0       -1.495056   -0.089538   -0.113328
     95          1           0        2.045153   -1.462829   -0.258068
     96          1           0        0.087273   -2.708990   -0.490713
 ---------------------------------------------------------------------

 The electronic state is 1-A.
 Alpha  occ. eigenvalues --  -10.19837 -10.19824 -10.19766 -10.19605 -10.19577
 Alpha  occ. eigenvalues --  -10.19524 -10.18869 -10.18850 -10.18806 -10.18797
 Alpha  occ. eigenvalues --  -10.18745 -10.18627 -10.18563 -10.18549 -10.18524
 Alpha  occ. eigenvalues --  -10.18516 -10.18466 -10.18391 -10.18247 -10.18216
 Alpha  occ. eigenvalues --  -10.18206 -10.18180 -10.18160 -10.18154 -10.18142
 Alpha  occ. eigenvalues --  -10.18086 -10.18078 -10.18056 -10.18018 -10.17994
 Alpha  occ. eigenvalues --  -10.17620 -10.17603 -10.17384 -10.17350 -10.17349
 Alpha  occ. eigenvalues --  -10.17216 -10.17135 -10.17014 -10.16735 -10.16713
 Alpha  occ. eigenvalues --   -0.84653  -0.84555  -0.83341  -0.82883  -0.81933
 Alpha  occ. eigenvalues --   -0.81298  -0.78662  -0.78266  -0.78133  -0.77428
 Alpha  occ. eigenvalues --   -0.76743  -0.75143  -0.74194  -0.71915  -0.71722
 Alpha  occ. eigenvalues --   -0.70255  -0.68723  -0.68698  -0.67947  -0.67913
 Alpha  occ. eigenvalues --   -0.67817  -0.67540  -0.66907  -0.66860  -0.65815
 Alpha  occ. eigenvalues --   -0.63163  -0.62033  -0.59728  -0.59100  -0.57133
 Alpha  occ. eigenvalues --   -0.56669  -0.55697  -0.55092  -0.53888  -0.53158
 Alpha  occ. eigenvalues --   -0.52671  -0.52100  -0.50603  -0.49811  -0.49003
 Alpha  occ. eigenvalues --   -0.48149  -0.47472  -0.47105  -0.46516  -0.46153
 Alpha  occ. eigenvalues --   -0.45379  -0.44779  -0.44602  -0.44214  -0.43974
 Alpha  occ. eigenvalues --   -0.43439  -0.42509  -0.42096  -0.42010  -0.41866
 Alpha  occ. eigenvalues --   -0.41768  -0.41610  -0.41589  -0.41371  -0.41339
 Alpha  occ. eigenvalues --   -0.41158  -0.41065  -0.39937  -0.39710  -0.39391
 Alpha  occ. eigenvalues --   -0.39333  -0.39286  -0.38941  -0.38738  -0.38440
 Alpha  occ. eigenvalues --   -0.38413  -0.38191  -0.37492  -0.37210  -0.36795
 Alpha  occ. eigenvalues --   -0.36704  -0.36504  -0.36402  -0.35750  -0.35526
 Alpha  occ. eigenvalues --   -0.35155  -0.34964  -0.34681  -0.34573  -0.34432
 Alpha  occ. eigenvalues --   -0.34154  -0.33884  -0.33707  -0.33433  -0.33386
 Alpha  occ. eigenvalues --   -0.33329  -0.32501  -0.32452  -0.31834  -0.31505
 Alpha  occ. eigenvalues --   -0.31411  -0.30469  -0.30333  -0.29589  -0.29248
 Alpha  occ. eigenvalues --   -0.28921  -0.28322  -0.26677  -0.24401  -0.22814
 Alpha  occ. eigenvalues --   -0.20816  -0.18385  -0.15404
 Alpha virt. eigenvalues --   -0.08724  -0.05118  -0.01673   0.01064   0.03353
 Alpha virt. eigenvalues --    0.05265   0.07469   0.08147   0.08341   0.08684
 Alpha virt. eigenvalues --    0.08922   0.09139   0.09601   0.10133   0.10349

 Mulliken charges:
               1
     1  C   -0.011976
     2  C   -0.014877
     3  C   -0.169747
     4  C   -0.168339
     5  C   -0.192586
     6  C   -0.190768
     7  C    0.095355
     8  C    0.092880
     9  C   -0.222328
    10  C   -0.217999
    11  C    0.052586
    12  C    0.052454
    13  C   -0.296556
    14  C   -0.309500
    15  C   -0.299974
    16  C   -0.300206
    17  C   -0.143531
    18  C   -0.146015
    19  C   -0.371646
    20  C   -0.371275
    21  C   -0.097147
    22  C   -0.098456
    23  C    0.125483
    24  C    0.124412
    25  C   -0.383207
    26  C   -0.383798
    27  C   -0.126812
    28  C   -0.124889
    29  C   -0.077181
    30  C   -0.081293
    31  C   -0.108138
    32  C   -0.118452
    33  C    0.111578
    34  C    0.129689
    35  C   -0.382591
    36  C   -0.383203
    37  C   -0.120171
    38  C   -0.107554
    39  C   -0.080688
    40  C   -0.104722
    41  H    0.087805
    42  H    0.082987
    43  H    0.088826
    44  H    0.081759
    45  H    0.086762
    46  H    0.097841
    47  H    0.086561
    48  H    0.097251
    49  H    0.103248
    50  H    0.098167
    51  H    0.105357
    52  H    0.092769
    53  H    0.100976
    54  H    0.092572
    55  H    0.102206
    56  H    0.103642
    57  H    0.096790
    58  H    0.097272
    59  H    0.103009
    60  H    0.095996
    61  H    0.097812
    62  H    0.103728
    63  H    0.094035
    64  H    0.092948
    65  H    0.075355
    66  H    0.077675
    67  H    0.122839
    68  H    0.100680
    69  H    0.111889
    70  H    0.123525
    71  H    0.112707
    72  H    0.098712
    73  H    0.079840
    74  H    0.080436
    75  H    0.123142
    76  H    0.106846
    77  H    0.121699
    78  H    0.122026
    79  H    0.121778
    80  H    0.106699
    81  H    0.070938
    82  H    0.070454
    83  H    0.076899
    84  H    0.075240
    85  H    0.074713
    86  H    0.072490
    87  H    0.120317
    88  H    0.106203
    89  H    0.120647
    90  H    0.122302
    91  H    0.123531
    92  H    0.108997
    93  H    0.074016
    94  H    0.074497
    95  H    0.077855
    96  H    0.075920
 Sum of Mulliken charges =  -0.00000

 Dipole moment (field-independent basis, Debye):
    X=              0.2710    Y=              0.0690    Z=              0.0787  Tot=              0.2905
 Quadrupole moment (field-independent basis, Debye-Ang):
   XX=           -215.8265   YY=           -231.1989   ZZ=           -255.1262
   XY=             -1.9423   XZ=              0.8175   YZ=              1.8223

 Normal termination of Gaussian 16 at Tue Apr  2 12:35:43 2019.
