 Gaussian 16, Revision A.03,
 Gaussian 16:  ES64L-G16RevA.03 25-Dec-2016

 --------------------------------------------------
 #n B3LYP/6-31G(d,p) freq=savenormalmodes nosymm td
 --------------------------------------------------

 --------------
 AlQ3S1Freq.com
 --------------
 Symbolic Z-matrix:
 Charge =  0 Multiplicity = 1

                          Input orientation:
 ---------------------------------------------------------------------
 Center     Atomic      Atomic             Coordinates (Angstroms)
 Number     Number       Type             X           Y           Z
 ---------------------------------------------------------------------
      1         13           0       -0.630320   -0.988460    0.249590
      2          8           0        0.713330   -2.407970    0.118940
      3          8           0       -2.014560   -2.068940   -0.353040
      4          8           0       -0.946230   -1.332660    2.054530
      5          6           0       -0.222560   -0.701160    2.945010
      6          6           0       -0.319900   -0.856390    4.327600
      7          6           0        0.522420   -0.122430    5.188920
      8          6           0        1.471140    0.774080    4.727170
      9          6           0        1.606320    0.970650    3.331250
     10          6           0        0.754130    0.233430    2.460250
     11          6           0        2.525530    1.849330    2.705020
     12          6           0        2.557670    1.953600    1.328720
     13          6           0        1.670660    1.181430    0.550480
     14          7           0        0.795390    0.350990    1.104350
     15          6           0        1.317850   -2.478960   -1.010180
     16          6           0        2.271490   -3.498400   -1.308270
     17          6           0        2.884890   -3.508870   -2.559600
     18          6           0        2.569110   -2.531990   -3.500850
     19          6           0        1.611400   -1.478830   -3.235000
     20          6           0        1.005650   -1.471060   -1.999270
     21          6           0        1.264220   -0.455780   -4.186660
     22          6           0        0.291760    0.472560   -3.767010
     23          6           0       -0.275380    0.414530   -2.508930
     24          7           0        0.069540   -0.537790   -1.568020
     25          6           0       -3.178870   -1.484900   -0.497110
     26          6           0       -4.349110   -2.120080   -0.913850
     27          6           0       -5.553600   -1.397940   -1.032120
     28          6           0       -5.646130   -0.046020   -0.748710
     29          6           0       -3.265610   -0.078660   -0.208210
     30          6           0       -4.487000    0.646810   -0.324420
     31          6           0       -4.430240    2.025150    0.000830
     32          6           0       -3.239720    2.595140    0.402860
     33          6           0       -2.081340    1.796770    0.483160
     34          7           0       -2.096150    0.503830    0.184300
     35          1           0       -4.314670   -3.180520   -1.138870
     36          1           0       -6.443520   -1.930650   -1.357120
     37          1           0       -6.587110    0.486030   -0.844810
     38          1           0       -5.333380    2.625980   -0.068330
     39          1           0       -3.178200    3.647360    0.658310
     40          1           0       -1.130210    2.216210    0.793590
     41          1           0       -1.048100   -1.554010    4.726850
     42          1           0        0.418760   -0.273450    6.260290
     43          1           0        2.107590    1.322620    5.414110
     44          1           0        3.203740    2.437240    3.318200
     45          1           0        3.255540    2.619810    0.833150
     46          1           0        1.667630    1.235890   -0.532960
     47          1           0        2.482760   -4.242010   -0.548140
     48          1           0        3.608080   -4.279540   -2.804980
     49          1           0        3.051030   -2.551500   -4.474050
     50          1           0       -1.032310    1.127930   -2.205190
     51          1           0        1.711490   -0.424200   -5.171150
     52          1           0       -0.036700    1.259330   -4.439740
 ---------------------------------------------------------------------

 SCF Done:  E(RB3LYP) =  -1672.36834646     A.U. after   16 cycles

 Excitation energies and oscillator strengths:

 Excited state symmetry could not be determined.
 Excited State   1:      Singlet-?Sym    2.0202 eV  613.73 nm  f=0.0205  <S**2>=0.000
     119 ->120         0.70303
 This state for optimization and/or second-order correction.
 Total Energy, E(TD-HF/TD-DFT) =  -1672.29410626
 Copying the excited state density for this state as the 1-particle RhoCI density.

 Excited state symmetry could not be determined.
 Excited State   2:      Singlet-?Sym    2.5559 eV  485.09 nm  f=0.0007  <S**2>=0.000
     118 ->120         0.70406

 Excited state symmetry could not be determined.
 Excited State   3:      Singlet-?Sym    2.5727 eV  481.92 nm  f=0.0027  <S**2>=0.000
     117 ->120        -0.19551
     119 ->121         0.64147
     119 ->122         0.21745

 Alpha  occ. eigenvalues --  -56.04326 -19.10969 -19.10502 -19.10218 -14.38173
 Alpha  occ. eigenvalues --  -14.37576 -14.37023 -10.25291 -10.24825 -10.24376
 Alpha  occ. eigenvalues --  -10.23798 -10.23365 -10.23358 -10.23259 -10.22845
 Alpha  occ. eigenvalues --  -10.22589 -10.22370 -10.22338 -10.22017 -10.21846
 Alpha  occ. eigenvalues --  -10.21498 -10.21188 -10.21168 -10.21133 -10.20833
 Alpha  occ. eigenvalues --  -10.19269 -10.18973 -10.18585 -10.18241 -10.17916
 Alpha  occ. eigenvalues --  -10.17508 -10.17420 -10.17089 -10.16590  -4.11476
 Alpha  occ. eigenvalues --   -2.66899  -2.66874  -2.66848  -1.01049  -1.00153
 Alpha  occ. eigenvalues --   -0.99821  -0.96428  -0.95883  -0.95252  -0.84599
 Alpha  occ. eigenvalues --   -0.84197  -0.83816  -0.81200  -0.80954  -0.80784
 Alpha  occ. eigenvalues --   -0.75969  -0.75881  -0.75573  -0.72187  -0.71765
 Alpha  occ. eigenvalues --   -0.70256  -0.66195  -0.65393  -0.64972  -0.64311
 Alpha  occ. eigenvalues --   -0.63915  -0.63294  -0.59410  -0.58943  -0.58748
 Alpha  occ. eigenvalues --   -0.54551  -0.53555  -0.53303  -0.52579  -0.52025
 Alpha  occ. eigenvalues --   -0.51663  -0.51366  -0.50774  -0.50524  -0.47471
 Alpha  occ. eigenvalues --   -0.46273  -0.46116  -0.45882  -0.44760  -0.44722
 Alpha  occ. eigenvalues --   -0.44201  -0.43891  -0.43707  -0.43443  -0.43061
 Alpha  occ. eigenvalues --   -0.42891  -0.42459  -0.42117  -0.41859  -0.41381
 Alpha  occ. eigenvalues --   -0.41061  -0.40151  -0.38605  -0.37355  -0.37262
 Alpha  occ. eigenvalues --   -0.36877  -0.36192  -0.36072  -0.35947  -0.35626
 Alpha  occ. eigenvalues --   -0.35281  -0.34587  -0.33602  -0.33174  -0.32589
 Alpha  occ. eigenvalues --   -0.32067  -0.31224  -0.29516  -0.28908  -0.28701
 Alpha  occ. eigenvalues --   -0.28002  -0.27007  -0.26125  -0.25903  -0.25611
 Alpha  occ. eigenvalues --   -0.25248  -0.19307  -0.18934  -0.17723
 Alpha virt. eigenvalues --   -0.07757  -0.06495  -0.06005  -0.02334  -0.01694
 Alpha virt. eigenvalues --   -0.01220   0.03164   0.03576   0.03816   0.07952
 Alpha virt. eigenvalues --    0.08467   0.08717   0.08965   0.09121   0.09292

 Mulliken charges:
               1
     1  Al   0.995999
     2  O   -0.621492
     3  O   -0.630544
     4  O   -0.632426
     5  C    0.448190
     6  C   -0.149351
     7  C   -0.077930
     8  C   -0.168896
     9  C    0.162836
    10  C    0.185102
    11  C   -0.092298
    12  C   -0.126205
    13  C    0.101652
    14  N   -0.572029
    15  C    0.433264
    16  C   -0.150686
    17  C   -0.066673
    18  C   -0.182085
    19  C    0.151526
    20  C    0.194312
    21  C   -0.082915
    22  C   -0.124372
    23  C    0.107816
    24  N   -0.578486
    25  C    0.451385
    26  C   -0.149101
    27  C   -0.077370
    28  C   -0.167968
    29  C    0.188077
    30  C    0.160316
    31  C   -0.090497
    32  C   -0.126570
    33  C    0.101027
    34  N   -0.570881
    35  H    0.098977
    36  H    0.087909
    37  H    0.077520
    38  H    0.106427
    39  H    0.102438
    40  H    0.119196
    41  H    0.096485
    42  H    0.086116
    43  H    0.075957
    44  H    0.104667
    45  H    0.099844
    46  H    0.113684
    47  H    0.095010
    48  H    0.087234
    49  H    0.065411
    50  H    0.120486
    51  H    0.117132
    52  H    0.102779
 Sum of Mulliken charges =  -0.00000

 Dipole moment (field-independent basis, Debye):
    X=              0.6906    Y=              7.9027    Z=             -2.9866  Tot=              8.4764
 Quadrupole moment (field-independent basis, Debye-Ang):
   XX=           -178.5659   YY=           -193.7294   ZZ=           -178.8662
   XY=             -4.9990   XZ=              2.2301   YZ=              4.0910

  Exact polarizability: 356.598  -3.517 306.712 -10.837  18.344 348.586
 Approx polarizability: 562.973   6.614 603.242 -11.861 -14.182 574.934

                      1                      2                      3
                      A                      A                      A
 Frequencies --     22.6250                24.3567                39.8234
 Red. masses --      5.9072                 5.9420                 5.5939
 Frc consts  --      0.0018                 0.0021                 0.0052
 IR Inten    --      0.3523                 0.2740                 0.6649

                      4                      5                      6
                      A                      A                      A
 Frequencies --     45.3450                46.6419                51.9660
 Red. masses --      5.4586                 5.4103                 5.3571
 Frc consts  --      0.0066                 0.0069                 0.0085
 IR Inten    --      0.1773                 0.1790                 0.7715

                      7                      8                      9
                      A                      A                      A
 Frequencies --    126.6638               139.8182               149.8844
 Red. masses --      4.5938                 5.7582                 6.2586
 Frc consts  --      0.0434                 0.0663                 0.0828
 IR Inten    --      0.3608                 0.2295                 0.3492

                     10                     11                     12
                      A                      A                      A
 Frequencies --    154.1721               163.4183               176.9697
 Red. masses --      4.8063                 5.4500                 5.9347
 Frc consts  --      0.0673                 0.0858                 0.1095
 IR Inten    --      0.0784                 0.3726                 2.6419

                     13                     14                     15
                      A                      A                      A
 Frequencies --    181.6786               187.3324               194.7029
 Red. masses --      5.4339                 5.8260                 6.4692
 Frc consts  --      0.1057                 0.1205                 0.1445
 IR Inten    --      3.3019                 5.0887                 1.0608

                     16                     17                     18
                      A                      A                      A
 Frequencies --    206.9381               217.0939               223.4064
 Red. masses --      4.9747                 5.8448                 4.7459
 Frc consts  --      0.1255                 0.1623                 0.1396
 IR Inten    --      1.7383                 5.4247                 0.6431

                     19                     20                     21
                      A                      A                      A
 Frequencies --    260.3777               288.5488               289.8866
 Red. masses --      4.7973                 5.3843                 5.8229
 Frc consts  --      0.1916                 0.2641                 0.2883
 IR Inten    --      0.0248                 0.5516                 0.3778

                     22                     23                     24
                      A                      A                      A
 Frequencies --    347.5630               382.3824               392.7913
 Red. masses --      8.6330                 6.9384                 5.6608
 Frc consts  --      0.6144                 0.5977                 0.5146
 IR Inten    --      6.0444                 7.1152                20.2527

                     25                     26                     27
                      A                      A                      A
 Frequencies --    404.2059               416.6611               433.7137
 Red. masses --      6.6444                 7.1357                 6.0833
 Frc consts  --      0.6396                 0.7299                 0.6742
 IR Inten    --     26.0938                72.8461                38.4748

                     28                     29                     30
                      A                      A                      A
 Frequencies --    439.5685               462.1537               469.8432
 Red. masses --      6.6174                 4.7328                 4.7798
 Frc consts  --      0.7533                 0.5956                 0.6217
 IR Inten    --     65.1946                17.4205                26.4331

                     31                     32                     33
                      A                      A                      A
 Frequencies --    480.0931               480.6040               483.7654
 Red. masses --      3.6191                 3.5585                 3.5303
 Frc consts  --      0.4915                 0.4843                 0.4868
 IR Inten    --      1.4080                 0.5095                 0.2341

                     34                     35                     36
                      A                      A                      A
 Frequencies --    504.0826               506.7835               509.8495
 Red. masses --      8.0722                 7.9324                 7.9472
 Frc consts  --      1.2085                 1.2003                 1.2172
 IR Inten    --     11.2232                 0.3464                 5.8904

                     37                     38                     39
                      A                      A                      A
 Frequencies --    524.1789               524.9352               549.2407
 Red. masses --      8.0850                 3.2718                 8.4185
 Frc consts  --      1.3088                 0.5312                 1.4963
 IR Inten    --     23.7666                 2.5521                71.5049

                     40                     41                     42
                      A                      A                      A
 Frequencies --    553.7634               566.7175               580.9321
 Red. masses --      8.3045                 1.1759                 7.2723
 Frc consts  --      1.5004                 0.2225                 1.4460
 IR Inten    --    104.3018                29.7509                 0.6208

                     43                     44                     45
                      A                      A                      A
 Frequencies --    586.1834               587.7297               605.1472
 Red. masses --      7.3310                 7.3332                 4.0544
 Frc consts  --      1.4842                 1.4924                 0.8748
 IR Inten    --      7.5509                 9.3449                 0.4243

                     46                     47                     48
                      A                      A                      A
 Frequencies --    606.2617               619.1549               639.4339
 Red. masses --      4.0717                 7.3345                 4.6698
 Frc consts  --      0.8818                 1.6566                 1.1250
 IR Inten    --      0.4876                37.9845                 0.4659

                     49                     50                     51
                      A                      A                      A
 Frequencies --    655.0466               658.4734               659.9110
 Red. masses --      7.1128                 3.7173                 3.5103
 Frc consts  --      1.7982                 0.9496                 0.9007
 IR Inten    --     48.4635                31.7201                 9.1122

                     52                     53                     54
                      A                      A                      A
 Frequencies --    662.4629               702.2333               755.9964
 Red. masses --      8.3718                 1.9987                 6.6871
 Frc consts  --      2.1647                 0.5807                 2.2518
 IR Inten    --     37.0056                23.5922                53.8074

                     55                     56                     57
                      A                      A                      A
 Frequencies --    759.2440               760.3421               767.9370
 Red. masses --      1.2471                 1.2489                 7.1345
 Frc consts  --      0.4235                 0.4254                 2.4789
 IR Inten    --     18.7854                27.9138               121.5667

                     58                     59                     60
                      A                      A                      A
 Frequencies --    768.6101               776.4058               793.7971
 Red. masses --      7.1645                 1.3294                 3.0033
 Frc consts  --      2.4937                 0.4721                 1.1150
 IR Inten    --     61.8879                27.1381                22.0766

                     61                     62                     63
                      A                      A                      A
 Frequencies --    794.7881               796.9937               804.7418
 Red. masses --      2.4895                 2.7601                 5.3309
 Frc consts  --      0.9265                 1.0330                 2.0341
 IR Inten    --     13.9843                 9.7755                 3.9068

                     64                     65                     66
                      A                      A                      A
 Frequencies --    816.8179               817.7033               830.0527
 Red. masses --      5.3820                 5.3443                 1.9676
 Frc consts  --      2.1157                 2.1054                 0.7987
 IR Inten    --     17.1745                15.1625                29.3757

                     67                     68                     69
                      A                      A                      A
 Frequencies --    833.5493               877.2620               879.9565
 Red. masses --      1.7995                 1.4896                 1.4857
 Frc consts  --      0.7366                 0.6754                 0.6778
 IR Inten    --     33.7459                 4.3260                 4.1163

                     70                     71                     72
                      A                      A                      A
 Frequencies --    890.3987               920.6295               927.1844
 Red. masses --      1.4759                 6.0391                 5.8716
 Frc consts  --      0.6894                 3.0157                 2.9740
 IR Inten    --      0.2137                24.8035                 2.6225

                     73                     74                     75
                      A                      A                      A
 Frequencies --    930.1958               935.4096               946.1519
 Red. masses --      5.8943                 1.2650                 1.3819
 Frc consts  --      3.0049                 0.6522                 0.7289
 IR Inten    --      0.5631                 0.7285                 0.9363

                     76                     77                     78
                      A                      A                      A
 Frequencies --    948.8792               964.5127               976.3880
 Red. masses --      1.2863                 1.3620                 1.2829
 Frc consts  --      0.6823                 0.7465                 0.7206
 IR Inten    --      0.1875                 0.3566                 0.1715

                     79                     80                     81
                      A                      A                      A
 Frequencies --    977.4599               992.4910               995.4131
 Red. masses --      1.2842                 1.3263                 1.3259
 Frc consts  --      0.7229                 0.7697                 0.7740
 IR Inten    --      0.1400                 0.7893                 0.6687

                     82                     83                     84
                      A                      A                      A
 Frequencies --   1064.3556              1065.2012              1066.9033
 Red. masses --      2.7449                 2.9056                 2.6445
 Frc consts  --      1.8321                 1.9425                 1.7736
 IR Inten    --      5.7120                 0.5861                 3.7149

                     85                     86                     87
                      A                      A                      A
 Frequencies --   1085.2414              1088.0734              1094.5372
 Red. masses --      1.8563                 1.8708                 1.7768
 Frc consts  --      1.2881                 1.3049                 1.2541
 IR Inten    --      7.3880                 3.2216                30.6557

                     88                     89                     90
                      A                      A                      A
 Frequencies --   1109.4742              1132.5336              1138.1533
 Red. masses --      1.8959                 2.3215                 2.1582
 Frc consts  --      1.3750                 1.7544                 1.6472
 IR Inten    --     98.2834                 4.1903                72.6903

                     91                     92                     93
                      A                      A                      A
 Frequencies --   1140.3693              1166.5527              1166.8562
 Red. masses --      2.1132                 1.2635                 1.2625
 Frc consts  --      1.6191                 1.0130                 1.0128
 IR Inten    --     29.7801                 0.0301                 0.2042

                     94                     95                     96
                      A                      A                      A
 Frequencies --   1185.7627              1202.3706              1203.0423
 Red. masses --      1.5543                 1.4860                 1.5020
 Frc consts  --      1.2876                 1.2657                 1.2808
 IR Inten    --     10.9924                 4.3343                 3.5701

                     97                     98                     99
                      A                      A                      A
 Frequencies --   1223.7704              1230.9460              1254.8068
 Red. masses --      2.3716                 1.4893                 2.1466
 Frc consts  --      2.0926                 1.3296                 1.9914
 IR Inten    --     12.1113                 6.6720                 0.3166

                    100                    101                    102
                      A                      A                      A
 Frequencies --   1255.3859              1260.6642              1265.1655
 Red. masses --      2.0879                 1.8498                 1.8715
 Frc consts  --      1.9387                 1.7321                 1.7650
 IR Inten    --      0.4327                40.7830                 9.9414

                    103                    104                    105
                      A                      A                      A
 Frequencies --   1299.9881              1335.1461              1336.5119
 Red. masses --      2.3175                 3.6050                 3.6528
 Frc consts  --      2.3076                 3.7862                 3.8443
 IR Inten    --     18.6931                39.9194                12.6634

                    106                    107                    108
                      A                      A                      A
 Frequencies --   1363.9400              1375.2455              1378.0051
 Red. masses --      2.4034                 2.2649                 2.1988
 Frc consts  --      2.6343                 2.5238                 2.4601
 IR Inten    --      4.3513                67.6641                30.8402

                    109                    110                    111
                      A                      A                      A
 Frequencies --   1391.1477              1417.5550              1420.6485
 Red. masses --      4.0944                 7.4633                 7.6021
 Frc consts  --      4.6686                 8.8361                 9.0398
 IR Inten    --    132.6019               104.7685               183.2828

                    112                    113                    114
                      A                      A                      A
 Frequencies --   1430.6024              1435.1428              1437.1578
 Red. masses --      3.0483                 3.3700                 2.3475
 Frc consts  --      3.6758                 4.0895                 2.8567
 IR Inten    --     50.7175                36.6791                 6.1112

                    115                    116                    117
                      A                      A                      A
 Frequencies --   1463.9155              1467.6458              1468.7055
 Red. masses --      2.4299                 2.0046                 2.0182
 Frc consts  --      3.0681                 2.5440                 2.5649
 IR Inten    --     37.6832                 4.4951                 5.1285

                    118                    119                    120
                      A                      A                      A
 Frequencies --   1502.0604              1510.7410              1522.0136
 Red. masses --      3.2273                 3.8548                 3.9507
 Frc consts  --      4.2900                 5.1836                 5.3922
 IR Inten    --    190.6295               365.7831                93.3132

                    121                    122                    123
                      A                      A                      A
 Frequencies --   1545.3915              1546.2937              1549.6910
 Red. masses --      3.8065                 3.9181                 4.4760
 Frc consts  --      5.3561                 5.5196                 6.3333
 IR Inten    --    106.5535               100.7457                 6.1212

                    124                    125                    126
                      A                      A                      A
 Frequencies --   1565.2757              1627.3946              1629.5381
 Red. masses --      4.2630                 5.4836                 5.2451
 Frc consts  --      6.1538                 8.5567                 8.2060
 IR Inten    --     16.0120                57.8339                77.2541

                    127                    128                    129
                      A                      A                      A
 Frequencies --   1633.1367              1633.5871              1645.7669
 Red. masses --      5.8082                 5.8164                 7.2808
 Frc consts  --      9.1272                 9.1451                11.6189
 IR Inten    --      2.8590                 1.0751                33.5687

                    130                    131                    132
                      A                      A                      A
 Frequencies --   1653.7407              1658.1292              1685.0622
 Red. masses --      6.9207                 7.0528                 8.2537
 Frc consts  --     11.1515                11.4249                13.8080
 IR Inten    --    134.4976                82.9296               127.3884

                    133                    134                    135
                      A                      A                      A
 Frequencies --   3178.0266              3178.2088              3184.3697
 Red. masses --      1.0868                 1.0869                 1.0893
 Frc consts  --      6.4674                 6.4683                 6.5077
 IR Inten    --     13.2993                12.0642                 5.2150

                    136                    137                    138
                      A                      A                      A
 Frequencies --   3184.8949              3189.5850              3191.8659
 Red. masses --      1.0892                 1.0877                 1.0867
 Frc consts  --      6.5094                 6.5200                 6.5233
 IR Inten    --      3.8083                 7.5874                 1.4370

                    139                    140                    141
                      A                      A                      A
 Frequencies --   3200.2976              3200.3701              3205.9929
 Red. masses --      1.0932                 1.0933                 1.0896
 Frc consts  --      6.5969                 6.5975                 6.5986
 IR Inten    --     32.9343                16.2288                 8.3651

                    142                    143                    144
                      A                      A                      A
 Frequencies --   3208.8697              3209.0360              3214.7225
 Red. masses --      1.0906                 1.0924                 1.0932
 Frc consts  --      6.6161                 6.6282                 6.6566
 IR Inten    --      5.9947                15.2766                 9.9711

                    145                    146                    147
                      A                      A                      A
 Frequencies --   3215.2704              3220.6942              3221.2848
 Red. masses --      1.0932                 1.0959                 1.0917
 Frc consts  --      6.6586                 6.6974                 6.6744
 IR Inten    --      9.0132                 5.2052                16.8172

                    148                    149                    150
                      A                      A                      A
 Frequencies --   3222.4465              3228.3004              3236.0633
 Red. masses --      1.0955                 1.0946                 1.0932
 Frc consts  --      6.7022                 6.7215                 6.7448
 IR Inten    --     10.8662                 1.8131                14.8320

 - Thermochemistry -
 -------------------
 Temperature   298.150 Kelvin.  Pressure   1.00000 Atm.
 Atom     1 has atomic number 13 and mass  26.98154

 Molecular mass:   459.11636 amu.
 Principal axes and moments of inertia in atomic units:
                           1         2         3
     Eigenvalues --  ******************************
           X            0.98140   0.10316   0.16190
           Y           -0.18777   0.34039   0.92134
           Z           -0.03993   0.93461  -0.35343
 This molecule is an asymmetric top.
 Rotational symmetry number  1.
 Warning -- assumption of classical behavior for rotation
           may cause significant error
 Rotational temperatures (Kelvin)      0.00677     0.00663     0.00443
 Rotational constants (GHZ):           0.14098     0.13806     0.09223
 Zero-point vibrational energy    1025477.6 (Joules/Mol)
                                  245.09504 (Kcal/Mol)
 Warning -- explicit consideration of  47 degrees of freedom as
           vibrations may cause significant error
 Vibrational temperatures:     32.55    35.04    57.30    65.24    67.11
          (Kelvin)             74.77   182.24   201.17   215.65   221.82
                              235.12   254.62   261.40   269.53   280.13
                              297.74   312.35   321.43   374.63   415.16
                              417.08   500.07   550.16   565.14   581.56
                              599.48   624.02   632.44   664.94   676.00
                              690.75   691.48   696.03   725.26   729.15
                              733.56   754.18   755.26   790.23   796.74
                              815.38   835.83   843.39   845.61   870.67
                              872.28   890.83   920.00   942.47   947.40
                              949.46   953.14  1010.36  1087.71  1092.38
                             1093.96  1104.89  1105.86  1117.07  1142.10
                             1143.52  1146.70  1157.84  1175.22  1176.49
                             1194.26  1199.29  1262.18  1266.06  1281.09
                             1324.58  1334.01  1338.34  1345.85  1361.30
                             1365.23  1387.72  1404.80  1406.35  1427.97
                             1432.18  1531.37  1532.59  1535.04  1561.42
                             1565.49  1574.79  1596.29  1629.46  1637.55
                             1640.74  1678.41  1678.85  1706.05  1729.94
                             1730.91  1760.73  1771.06  1805.39  1806.22
                             1813.81  1820.29  1870.39  1920.98  1922.94
                             1962.41  1978.67  1982.64  2001.55  2039.55
                             2044.00  2058.32  2064.85  2067.75  2106.25
                             2111.61  2113.14  2161.13  2173.62  2189.84
                             2223.47  2224.77  2229.66  2252.08  2341.46
                             2344.54  2349.72  2350.37  2367.89  2379.36
                             2385.68  2424.43  4572.47  4572.73  4581.60
                             4582.35  4589.10  4592.38  4604.51  4604.62
                             4612.71  4616.85  4617.09  4625.27  4626.06
                             4633.86  4634.71  4636.38  4644.80  4655.97

 Zero-point correction=                           0.390584 (Hartree/Particle)
 Thermal correction to Energy=                    0.416229
 Thermal correction to Enthalpy=                  0.417174
 Thermal correction to Gibbs Free Energy=         0.335129
 Sum of electronic and zero-point Energies=          -1671.903522
 Sum of electronic and thermal Energies=             -1671.877877
 Sum of electronic and thermal Enthalpies=           -1671.876933
 Sum of electronic and thermal Free Energies=        -1671.958977

                     E (Thermal)             CV                S
                      KCal/Mol        Cal/Mol-Kelvin    Cal/Mol-Kelvin
 Total                  261.188            106.276            172.678
 Electronic               0.000              0.000              0.000
 Translational            0.889              2.981             44.261
 Rotational               0.889              2.981             36.436
 Vibrational            259.410            100.315             91.981
 Vibration     1          0.593              1.985              6.389
 Vibration     2          0.593              1.985              6.243
 Vibration     3          0.594              1.981              5.268
 Vibration     4          0.595              1.979              5.011
 Vibration     5          0.595              1.979              4.955
 Vibration     6          0.596              1.977              4.741
 Vibration     7          0.611              1.926              2.996
 Vibration     8          0.615              1.914              2.806
 Vibration     9          0.618              1.903              2.674
 Vibration    10          0.620              1.898              2.620
 Vibration    11          0.623              1.887              2.510
 Vibration    12          0.628              1.871              2.360
 Vibration    13          0.630              1.865              2.311
 Vibration    14          0.632              1.857              2.254
 Vibration    15          0.635              1.847              2.183
 Vibration    16          0.641              1.830              2.071
 Vibration    17          0.646              1.815              1.983
 Vibration    18          0.649              1.805              1.931
 Vibration    19          0.668              1.745              1.659
 Vibration    20          0.685              1.695              1.482
 Vibration    21          0.686              1.693              1.475
 Vibration    22          0.725              1.580              1.177
 Vibration    23          0.752              1.508              1.030
 Vibration    24          0.760              1.486              0.990
 Vibration    25          0.769              1.461              0.947
 Vibration    26          0.780              1.434              0.903
 Vibration    27          0.794              1.397              0.847
 Vibration    28          0.800              1.384              0.828
 Vibration    29          0.820              1.334              0.760
 Vibration    30          0.827              1.317              0.738
 Vibration    31          0.836              1.294              0.710
 Vibration    32          0.837              1.293              0.708
 Vibration    33          0.840              1.286              0.700
 Vibration    34          0.859              1.241              0.648
 Vibration    35          0.862              1.235              0.641
 Vibration    36          0.865              1.228              0.634
 Vibration    37          0.879              1.196              0.600
 Vibration    38          0.880              1.195              0.599
 Vibration    39          0.905              1.141              0.546
 Vibration    40          0.909              1.131              0.536
 Vibration    41          0.923              1.103              0.511
 Vibration    42          0.938              1.073              0.484
 Vibration    43          0.943              1.061              0.474
 Vibration    44          0.945              1.058              0.471
 Vibration    45          0.964              1.021              0.441
 Vibration    46          0.965              1.019              0.439
 Vibration    47          0.979              0.991              0.418

 Normal termination of Gaussian 16 at Wed Jan 30 17:25:17 2019.
