 Gaussian 16, Revision A.03,

 -------------------------------------------------
 #n wB97XD/Def2TZVP Opt Geom=Checkpoint Guess=Read
 -------------------------------------------------

 -----------
 cla-charged
 -----------
 Structure from the checkpoint file:  "cla-charged.chk"
 Charge =  1 Multiplicity = 2

 SCF Done:  E(UwB97XD) =  -2934.53510160     A.U. after   26 cycles
 SCF Done:  E(UwB97XD) =  -2934.53898194     A.U. after   21 cycles
 SCF Done:  E(UwB97XD) =  -2934.53957742     A.U. after   20 cycles
 SCF Done:  E(UwB97XD) =  -2934.53908006     A.U. after   19 cycles
 SCF Done:  E(UwB97XD) =  -2934.53986194     A.U. after   17 cycles
 SCF Done:  E(UwB97XD) =  -2934.53993089     A.U. after   16 cycles
 SCF Done:  E(UwB97XD) =  -2934.53995936     A.U. after   18 cycles
 SCF Done:  E(UwB97XD) =  -2934.53999200     A.U. after   15 cycles
 SCF Done:  E(UwB97XD) =  -2934.54000196     A.U. after   14 cycles
 SCF Done:  E(UwB97XD) =  -2934.54000931     A.U. after   16 cycles
 SCF Done:  E(UwB97XD) =  -2934.54001166     A.U. after   13 cycles
 SCF Done:  E(UwB97XD) =  -2934.54001293     A.U. after   12 cycles
 SCF Done:  E(UwB97XD) =  -2934.54001468     A.U. after   12 cycles
 SCF Done:  E(UwB97XD) =  -2934.54001586     A.U. after   12 cycles
 SCF Done:  E(UwB97XD) =  -2934.54001650     A.U. after   12 cycles
 SCF Done:  E(UwB97XD) =  -2934.54001683     A.U. after   11 cycles
 SCF Done:  E(UwB97XD) =  -2934.54001701     A.U. after   11 cycles
 SCF Done:  E(UwB97XD) =  -2934.54001712     A.U. after   11 cycles
 SCF Done:  E(UwB97XD) =  -2934.54001716     A.U. after   10 cycles
 Optimization completed.
    -- Stationary point found.
 Normal termination of Gaussian 16 at Mon Nov 25 10:11:40 2019.
 Gaussian 16:  ES64L-G16RevA.03 25-Dec-2016

 ----------------------------------
 #n wB97XD/Def2TZVP Geom=Checkpoint
 ----------------------------------

 --------------
 cla-charged-SP
 --------------
 Structure from the checkpoint file:  "cla-charged-SP.chk"
 Charge =  0 Multiplicity = 1

                         Standard orientation:
 ---------------------------------------------------------------------
 Center     Atomic      Atomic             Coordinates (Angstroms)
 Number     Number       Type             X           Y           Z
 ---------------------------------------------------------------------
      1         12           0       -7.160859    0.516927    0.114457
      2          6           0       -4.714422   -1.861961    0.477880
      3          6           0       -4.964033    2.908267    1.043076
      4          6           0       -9.595082    2.825703   -0.291603
      5          6           0       -9.409766   -1.992533   -0.676406
      6          7           0       -5.116375    0.503884    0.654145
      7          6           0       -4.280247   -0.581595    0.726654
      8          6           0       -2.881114   -0.177751    1.097275
      9          6           0       -3.048289    1.301668    1.480989
     10          6           0       -4.454243    1.609040    1.028265
     11          6           0       -2.865282    1.563438    2.977454
     12          6           0       -1.895381   -0.406539   -0.055039
     13          6           0       -0.455476   -0.171919    0.369195
     14          6           0        0.514181   -0.381100   -0.773066
     15          8           0        0.187040   -0.637293   -1.901334
     16          8           0        1.768958   -0.240926   -0.362823
     17          7           0       -7.255299    2.506366    0.326633
     18          6           0       -6.245348    3.323033    0.713571
     19          6           0       -6.710177    4.713584    0.745421
     20          6           0       -8.010134    4.691148    0.360341
     21          6           0       -8.350603    3.286703    0.110009
     22          6           0       -5.876989    5.871100    1.166522
     23          6           0       -8.953295    5.796992    0.228331
     24          6           0       -8.655195    6.994025   -0.263330
     25          7           0       -9.147433    0.429406   -0.400320
     26          6           0       -9.970741    1.500326   -0.523398
     27          6           0      -11.305866    1.066717   -0.922978
     28          6           0      -11.256866   -0.284329   -1.021617
     29          6           0       -9.889369   -0.671203   -0.693433
     30          6           0      -12.453540    1.983697   -1.164372
     31          6           0      -12.337223   -1.230071   -1.431801
     32          6           0      -12.242253   -1.621736   -2.908755
     33          7           0       -7.122684   -1.467603   -0.088179
     34          6           0       -8.115385   -2.372252   -0.387658
     35          6           0       -7.574122   -3.746228   -0.339503
     36          6           0       -6.266340   -3.583567   -0.007028
     37          6           0       -6.030180   -2.183999    0.135253
     38          6           0       -8.339693   -4.989852   -0.597271
     39          6           0       -5.007365   -4.292488    0.277460
     40          8           0       -4.785420   -5.466205    0.300150
     41          6           0       -3.940268   -3.165058    0.562994
     42          6           0       -3.289605   -3.411674    1.912287
     43          8           0       -3.673202   -2.926417    2.942837
     44          8           0       -2.261826   -4.237259    1.797321
     45          6           0       -1.630712   -4.638458    3.017751
     46          6           0        2.799457   -0.424622   -1.363193
     47          6           0        4.117571   -0.330120   -0.681960
     48          6           0        5.106690    0.516013   -0.963820
     49          6           0        5.049537    1.572545   -2.030210
     50          6           0        6.408552    0.433239   -0.212281
     51          6           0        7.602795    0.057959   -1.093377
     52          6           0        8.884860   -0.098631   -0.284523
     53          6           0       10.153084   -0.328075   -1.111338
     54          6           0       10.068719   -1.611563   -1.934075
     55          6           0       11.377648   -0.318054   -0.191819
     56          6           0       12.726227   -0.348714   -0.901886
     57          6           0       13.896348   -0.225420    0.067538
     58          6           0       15.278819   -0.128699   -0.583740
     59          6           0       15.621733   -1.384235   -1.382074
     60          6           0       16.334635    0.172117    0.483606
     61          6           0       17.737293    0.448609   -0.045932
     62          6           0       18.692334    0.905841    1.050805
     63          6           0       20.152931    1.054839    0.619821
     64          6           0       20.328271    2.099486   -0.479369
     65          6           0       21.030505    1.391022    1.822075
     66          1           0       -4.270035    3.679096    1.349301
     67          1           0      -10.362165    3.573750   -0.439873
     68          1           0      -10.118950   -2.775557   -0.910762
     69          1           0       -2.563063   -0.765697    1.961941
     70          1           0       -2.352038    1.933770    0.924284
     71          1           0       -1.845249    1.316994    3.273585
     72          1           0       -3.047515    2.608978    3.226063
     73          1           0       -3.548041    0.945557    3.563393
     74          1           0       -1.986340   -1.424751   -0.432854
     75          1           0       -2.150509    0.247026   -0.892475
     76          1           0       -0.301722    0.840788    0.751710
     77          1           0       -0.172287   -0.844992    1.182531
     78          1           0       -5.203817    6.186679    0.365425
     79          1           0       -6.503920    6.722084    1.428989
     80          1           0       -5.262517    5.619587    2.032108
     81          1           0       -9.970666    5.604079    0.554701
     82          1           0       -9.403441    7.773064   -0.324164
     83          1           0       -7.667833    7.229214   -0.640845
     84          1           0      -12.225757    2.693848   -1.962301
     85          1           0      -13.346490    1.434006   -1.455276
     86          1           0      -12.692166    2.561302   -0.268668
     87          1           0      -12.297563   -2.126723   -0.808374
     88          1           0      -13.308982   -0.774835   -1.237028
     89          1           0      -13.037424   -2.318539   -3.173661
     90          1           0      -12.332187   -0.742270   -3.547656
     91          1           0      -11.285419   -2.097240   -3.132196
     92          1           0       -8.768948   -4.978314   -1.601690
     93          1           0       -7.698159   -5.862886   -0.502150
     94          1           0       -9.166702   -5.086075    0.109944
     95          1           0       -3.178700   -3.267857   -0.212337
     96          1           0       -1.225424   -3.771387    3.538176
     97          1           0       -2.347840   -5.143918    3.662681
     98          1           0       -0.835442   -5.317010    2.725483
     99          1           0        2.653980   -1.408749   -1.814139
    100          1           0        2.659777    0.318663   -2.146021
    101          1           0        4.271600   -1.059073    0.108368
    102          1           0        4.037918    1.793810   -2.364507
    103          1           0        5.495380    2.499367   -1.662206
    104          1           0        5.629693    1.268535   -2.904782
    105          1           0        6.608818    1.403443    0.257004
    106          1           0        6.318666   -0.296025    0.596483
    107          1           0        7.367653   -0.870677   -1.619886
    108          1           0        7.755112    0.823187   -1.860913
    109          1           0        9.025179    0.801194    0.324173
    110          1           0        8.767066   -0.928525    0.422800
    111          1           0       10.253044    0.515429   -1.806641
    112          1           0        9.218210   -1.599598   -2.616692
    113          1           0       10.963179   -1.759942   -2.539107
    114          1           0        9.960767   -2.479911   -1.277043
    115          1           0       11.334215    0.579655    0.434354
    116          1           0       11.311611   -1.170278    0.495722
    117          1           0       12.819759   -1.274204   -1.473363
    118          1           0       12.770916    0.470590   -1.628989
    119          1           0       13.743114    0.663890    0.688442
    120          1           0       13.887345   -1.080156    0.755064
    121          1           0       15.259380    0.720608   -1.278998
    122          1           0       15.651250   -2.258537   -0.724646
    123          1           0       14.888116   -1.578362   -2.165234
    124          1           0       16.594332   -1.297903   -1.867129
    125          1           0       16.004629    1.041995    1.062047
    126          1           0       16.372886   -0.665058    1.191348
    127          1           0       18.147023   -0.449733   -0.517429
    128          1           0       17.675741    1.208869   -0.830787
    129          1           0       18.344538    1.862720    1.459461
    130          1           0       18.645037    0.188545    1.877563
    131          1           0       20.481481    0.087224    0.222054
    132          1           0       19.960586    3.073931   -0.143888
    133          1           0       21.381573    2.214482   -0.742687
    134          1           0       19.788189    1.832102   -1.388540
    135          1           0       20.937904    0.635625    2.605210
    136          1           0       22.082928    1.455844    1.538852
    137          1           0       20.741647    2.354596    2.251743
 ---------------------------------------------------------------------

 SCF Done:  E(RwB97XD) =  -2934.75690360     A.U. after   18 cycles

 The electronic state is 1-A.
 Alpha  occ. eigenvalues --  -46.89622 -19.30105 -19.29700 -19.23488 -19.23398
 Alpha  occ. eigenvalues --  -19.23391 -14.44366 -14.42001 -14.42000 -14.41723
 Alpha  occ. eigenvalues --  -10.41461 -10.41244 -10.37951 -10.34393 -10.33799
 Alpha  occ. eigenvalues --  -10.33496 -10.33062 -10.32555 -10.31795 -10.31399
 Alpha  occ. eigenvalues --  -10.31186 -10.31148 -10.31039 -10.30938 -10.30860
 Alpha  occ. eigenvalues --  -10.30241 -10.30200 -10.30059 -10.29890 -10.29752
 Alpha  occ. eigenvalues --  -10.29727 -10.29459 -10.29382 -10.29117 -10.29054
 Alpha  occ. eigenvalues --  -10.29020 -10.28619 -10.28594 -10.28526 -10.28510
 Alpha  occ. eigenvalues --  -10.28500 -10.28364 -10.28235 -10.28222 -10.28219
 Alpha  occ. eigenvalues --  -10.28216 -10.28174 -10.28173 -10.28170 -10.28073
 Alpha  occ. eigenvalues --  -10.27996 -10.27962 -10.27768 -10.27619 -10.27430
 Alpha  occ. eigenvalues --  -10.27378 -10.27256 -10.27256 -10.27221 -10.27177
 Alpha  occ. eigenvalues --  -10.27150 -10.26894 -10.26630 -10.26599 -10.26590
 Alpha  occ. eigenvalues --   -3.15955  -1.89432  -1.88872  -1.88820  -1.21937
 Alpha  occ. eigenvalues --   -1.21523  -1.14976  -1.12460  -1.12291  -1.07266
 Alpha  occ. eigenvalues --   -1.06296  -1.05946  -1.04809  -0.94852  -0.94043
 Alpha  occ. eigenvalues --   -0.93010  -0.92640  -0.92027  -0.91707  -0.91151
 Alpha  occ. eigenvalues --   -0.90738  -0.90433  -0.89904  -0.89465  -0.88671
 Alpha  occ. eigenvalues --   -0.87648  -0.86772  -0.86083  -0.85739  -0.85135
 Alpha  occ. eigenvalues --   -0.84245  -0.83913  -0.83082  -0.82521  -0.80806
 Alpha  occ. eigenvalues --   -0.80297  -0.79504  -0.78983  -0.78798  -0.77937
 Alpha  occ. eigenvalues --   -0.77702  -0.77484  -0.77062  -0.76025  -0.74669
 Alpha  occ. eigenvalues --   -0.74122  -0.72993  -0.72042  -0.71585  -0.70607
 Alpha  occ. eigenvalues --   -0.69599  -0.69112  -0.67736  -0.67343  -0.67002
 Alpha  occ. eigenvalues --   -0.66696  -0.65888  -0.65746  -0.65199  -0.65006
 Alpha  occ. eigenvalues --   -0.64496  -0.63172  -0.62571  -0.62300  -0.61835
 Alpha  occ. eigenvalues --   -0.61180  -0.60883  -0.60388  -0.60138  -0.59771
 Alpha  occ. eigenvalues --   -0.58820  -0.58425  -0.57803  -0.57633  -0.57492
 Alpha  occ. eigenvalues --   -0.57128  -0.57090  -0.56899  -0.56452  -0.55910
 Alpha  occ. eigenvalues --   -0.55559  -0.55208  -0.54890  -0.54465  -0.54128
 Alpha  occ. eigenvalues --   -0.53887  -0.53706  -0.53417  -0.53252  -0.53220
 Alpha  occ. eigenvalues --   -0.52777  -0.52718  -0.52553  -0.52296  -0.52271
 Alpha  occ. eigenvalues --   -0.52052  -0.51664  -0.51517  -0.51371  -0.51144
 Alpha  occ. eigenvalues --   -0.50822  -0.50574  -0.50420  -0.50355  -0.49832
 Alpha  occ. eigenvalues --   -0.49584  -0.49225  -0.48958  -0.48667  -0.48577
 Alpha  occ. eigenvalues --   -0.48465  -0.48220  -0.48047  -0.47965  -0.47727
 Alpha  occ. eigenvalues --   -0.47635  -0.47573  -0.47410  -0.46988  -0.46940
 Alpha  occ. eigenvalues --   -0.46690  -0.46668  -0.46445  -0.46141  -0.46065
 Alpha  occ. eigenvalues --   -0.45986  -0.45803  -0.45595  -0.45414  -0.45259
 Alpha  occ. eigenvalues --   -0.45068  -0.44809  -0.44766  -0.44489  -0.44426
 Alpha  occ. eigenvalues --   -0.44152  -0.43937  -0.43674  -0.43459  -0.43411
 Alpha  occ. eigenvalues --   -0.43106  -0.42903  -0.42517  -0.42291  -0.42252
 Alpha  occ. eigenvalues --   -0.41797  -0.41764  -0.41651  -0.41265  -0.40792
 Alpha  occ. eigenvalues --   -0.40294  -0.40097  -0.39983  -0.39962  -0.39816
 Alpha  occ. eigenvalues --   -0.39658  -0.39641  -0.39429  -0.39355  -0.39244
 Alpha  occ. eigenvalues --   -0.38821  -0.38667  -0.38024  -0.36864  -0.36634
 Alpha  occ. eigenvalues --   -0.36554  -0.35996  -0.35092  -0.33820  -0.32985
 Alpha  occ. eigenvalues --   -0.32940  -0.32761  -0.31156  -0.30697  -0.25739
 Alpha  occ. eigenvalues --   -0.23022
 Alpha virt. eigenvalues --   -0.04544  -0.01519   0.03407   0.05697   0.06820
 Alpha virt. eigenvalues --    0.07257   0.07905   0.08173   0.08654   0.09184
 Alpha virt. eigenvalues --    0.09728   0.09991   0.10101   0.10221   0.10592

 Mulliken charges:
               1
     1  Mg   0.750725
     2  C   -0.167891
     3  C   -0.510851
     4  C   -0.346053
     5  C   -0.332005
     6  N   -0.397763
     7  C    0.268121
     8  C    0.013032
     9  C    0.062459
    10  C    0.210154
    11  C   -0.396109
    12  C   -0.314482
    13  C   -0.223502
    14  C    0.345725
    15  O   -0.368403
    16  O   -0.264112
    17  N   -0.379977
    18  C    0.306844
    19  C   -0.038420
    20  C    0.028305
    21  C    0.246138
    22  C   -0.421004
    23  C   -0.181269
    24  C   -0.285146
    25  N   -0.376452
    26  C    0.217370
    27  C   -0.034336
    28  C   -0.036137
    29  C    0.301844
    30  C   -0.391326
    31  C   -0.267123
    32  C   -0.333276
    33  N   -0.391222
    34  C    0.205141
    35  C   -0.053323
    36  C   -0.098530
    37  C    0.189680
    38  C   -0.421441
    39  C    0.128727
    40  O   -0.302300
    41  C    0.041011
    42  C    0.302749
    43  O   -0.358591
    44  O   -0.253538
    45  C   -0.199871
    46  C   -0.052861
    47  C   -0.161400
    48  C    0.055934
    49  C   -0.376712
    50  C   -0.188516
    51  C   -0.254170
    52  C   -0.203513
    53  C    0.052699
    54  C   -0.410222
    55  C   -0.203632
    56  C   -0.226538
    57  C   -0.205493
    58  C    0.057679
    59  C   -0.410000
    60  C   -0.201756
    61  C   -0.231268
    62  C   -0.203914
    63  C    0.013864
    64  C   -0.378355
    65  C   -0.341944
    66  H    0.129442
    67  H    0.137053
    68  H    0.152145
    69  H    0.127882
    70  H    0.089351
    71  H    0.121685
    72  H    0.120305
    73  H    0.143928
    74  H    0.129084
    75  H    0.135473
    76  H    0.131363
    77  H    0.130049
    78  H    0.147435
    79  H    0.153062
    80  H    0.127708
    81  H    0.126962
    82  H    0.130135
    83  H    0.146909
    84  H    0.139579
    85  H    0.117621
    86  H    0.135595
    87  H    0.110956
    88  H    0.109197
    89  H    0.114675
    90  H    0.116661
    91  H    0.120904
    92  H    0.137030
    93  H    0.162559
    94  H    0.139300
    95  H    0.118028
    96  H    0.126939
    97  H    0.140635
    98  H    0.136815
    99  H    0.128527
   100  H    0.103273
   101  H    0.114497
   102  H    0.121938
   103  H    0.126316
   104  H    0.143629
   105  H    0.113487
   106  H    0.105488
   107  H    0.115139
   108  H    0.103551
   109  H    0.095097
   110  H    0.098987
   111  H    0.061860
   112  H    0.125104
   113  H    0.125128
   114  H    0.108305
   115  H    0.093680
   116  H    0.095203
   117  H    0.098947
   118  H    0.092037
   119  H    0.093345
   120  H    0.094547
   121  H    0.060742
   122  H    0.107108
   123  H    0.123073
   124  H    0.125930
   125  H    0.093877
   126  H    0.095328
   127  H    0.096934
   128  H    0.099770
   129  H    0.094312
   130  H    0.093247
   131  H    0.063494
   132  H    0.105562
   133  H    0.116402
   134  H    0.122833
   135  H    0.112571
   136  H    0.116199
   137  H    0.104617
 Sum of Mulliken charges =  -0.00000

 Dipole moment (field-independent basis, Debye):
    X=              2.8952    Y=              4.0173    Z=              0.4124  Tot=              4.9690
 Quadrupole moment (field-independent basis, Debye-Ang):
   XX=           -350.9293   YY=           -391.7493   ZZ=           -403.4397
   XY=            -16.8015   XZ=              7.4099   YZ=             -2.1393

 Normal termination of Gaussian 16 at Mon Nov 25 13:02:42 2019.
