 Gaussian 16, Revision A.03,
 Gaussian 16:  ES64L-G16RevA.03 25-Dec-2016

 ----------------------------------
 #n wB97XD/Def2TZVP Geom=Checkpoint
 ----------------------------------

 ---------
 cla-s0-sp
 ---------
 Structure from the checkpoint file:  "cla-s0-sp.chk"
 Charge =  1 Multiplicity = 2

                         Standard orientation:
 ---------------------------------------------------------------------
 Center     Atomic      Atomic             Coordinates (Angstroms)
 Number     Number       Type             X           Y           Z
 ---------------------------------------------------------------------
      1         12           0       -7.193104    0.486516    0.135702
      2          6           0       -4.716348   -1.858831    0.463745
      3          6           0       -4.969493    2.898781    0.986155
      4          6           0       -9.627604    2.797493   -0.248956
      5          6           0       -9.457064   -2.032666   -0.560352
      6          7           0       -5.122786    0.498237    0.627746
      7          6           0       -4.283284   -0.591024    0.687856
      8          6           0       -2.872164   -0.175589    1.028414
      9          6           0       -3.043775    1.303947    1.418311
     10          6           0       -4.462324    1.609066    0.976979
     11          6           0       -2.854015    1.553887    2.913567
     12          6           0       -1.903256   -0.391464   -0.136947
     13          6           0       -0.460054   -0.157612    0.276464
     14          6           0        0.515484   -0.311026   -0.863860
     15          8           0        0.217235   -0.487700   -2.014196
     16          8           0        1.776343   -0.214780   -0.430042
     17          7           0       -7.276259    2.490737    0.320186
     18          6           0       -6.268346    3.310217    0.670798
     19          6           0       -6.728797    4.691853    0.686308
     20          6           0       -8.040353    4.666052    0.325141
     21          6           0       -8.392621    3.267025    0.108157
     22          6           0       -5.890792    5.860922    1.074989
     23          6           0       -8.977743    5.776257    0.194306
     24          6           0       -8.684023    6.987132   -0.267931
     25          7           0       -9.197334    0.393884   -0.328301
     26          6           0      -10.021301    1.450331   -0.450300
     27          6           0      -11.345961    1.020509   -0.800882
     28          6           0      -11.300926   -0.345755   -0.878067
     29          6           0       -9.946033   -0.729492   -0.584260
     30          6           0      -12.512322    1.923157   -1.034401
     31          6           0      -12.409244   -1.276964   -1.253077
     32          6           0      -12.444130   -1.574015   -2.753690
     33          7           0       -7.148882   -1.504918   -0.040421
     34          6           0       -8.149793   -2.427995   -0.301267
     35          6           0       -7.619437   -3.760747   -0.252055
     36          6           0       -6.276772   -3.595123    0.042959
     37          6           0       -6.051131   -2.210009    0.159149
     38          6           0       -8.371392   -5.029777   -0.458960
     39          6           0       -5.023288   -4.293058    0.289751
     40          8           0       -4.772996   -5.468711    0.327345
     41          6           0       -3.938500   -3.159782    0.506686
     42          6           0       -3.194578   -3.409439    1.797369
     43          8           0       -3.590489   -3.111286    2.891369
     44          8           0       -2.028992   -4.021873    1.571829
     45          6           0       -1.288777   -4.390095    2.731898
     46          6           0        2.802584   -0.338971   -1.431817
     47          6           0        4.119937   -0.273763   -0.742357
     48          6           0        5.123675    0.561115   -1.002210
     49          6           0        5.090020    1.636110   -2.051782
     50          6           0        6.417251    0.450422   -0.239016
     51          6           0        7.616484    0.075369   -1.112788
     52          6           0        8.891131   -0.098258   -0.295812
     53          6           0       10.165117   -0.324962   -1.114441
     54          6           0       10.082993   -1.601186   -1.948671
     55          6           0       11.383200   -0.326405   -0.186384
     56          6           0       12.736691   -0.355785   -0.887176
     57          6           0       13.900686   -0.242327    0.090760
     58          6           0       15.287628   -0.142178   -0.550412
     59          6           0       15.634804   -1.392203   -1.355562
     60          6           0       16.336862    0.150063    0.525722
     61          6           0       17.743179    0.428893    0.007172
     62          6           0       18.691779    0.877592    1.112977
     63          6           0       20.155359    1.027443    0.692552
     64          6           0       20.339207    2.078804   -0.398834
     65          6           0       21.025748    1.354876    1.902464
     66          1           0       -4.273362    3.676466    1.271534
     67          1           0      -10.403142    3.539046   -0.393287
     68          1           0      -10.170727   -2.821889   -0.767135
     69          1           0       -2.523417   -0.755279    1.888176
     70          1           0       -2.348567    1.938891    0.862897
     71          1           0       -1.832905    1.308310    3.211850
     72          1           0       -3.044372    2.596734    3.170023
     73          1           0       -3.536342    0.930056    3.494398
     74          1           0       -1.998555   -1.407715   -0.520245
     75          1           0       -2.169757    0.270488   -0.964072
     76          1           0       -0.316810    0.844225    0.692136
     77          1           0       -0.165493   -0.851419    1.068312
     78          1           0       -5.260453    6.195956    0.246772
     79          1           0       -6.515631    6.701338    1.377083
     80          1           0       -5.230638    5.611541    1.907206
     81          1           0      -10.001331    5.574081    0.495858
     82          1           0       -9.440068    7.759490   -0.325244
     83          1           0       -7.693379    7.239642   -0.624774
     84          1           0      -12.329614    2.601121   -1.871719
     85          1           0      -13.412736    1.354385   -1.264779
     86          1           0      -12.725186    2.538498   -0.156891
     87          1           0      -12.312153   -2.213189   -0.698279
     88          1           0      -13.365230   -0.847060   -0.946443
     89          1           0      -13.259345   -2.256583   -3.000054
     90          1           0      -12.583045   -0.654354   -3.324672
     91          1           0      -11.506672   -2.027160   -3.080875
     92          1           0       -8.921217   -5.015744   -1.402345
     93          1           0       -7.689935   -5.878419   -0.468039
     94          1           0       -9.098089   -5.186844    0.341693
     95          1           0       -3.233998   -3.259248   -0.321378
     96          1           0       -1.031704   -3.508537    3.319896
     97          1           0       -1.868718   -5.072899    3.352095
     98          1           0       -0.390250   -4.879511    2.366195
     99          1           0        2.669859   -1.298539   -1.937988
    100          1           0        2.665171    0.441745   -2.178391
    101          1           0        4.255195   -1.014896    0.040315
    102          1           0        4.082771    1.878552   -2.384217
    103          1           0        5.549152    2.549930   -1.667022
    104          1           0        5.666614    1.337746   -2.930976
    105          1           0        6.624803    1.410235    0.248761
    106          1           0        6.309894   -0.290747    0.556810
    107          1           0        7.378566   -0.845958   -1.650780
    108          1           0        7.780329    0.847148   -1.871550
    109          1           0        9.031336    0.793779    0.324390
    110          1           0        8.763025   -0.935286    0.401282
    111          1           0       10.272782    0.523949   -1.802070
    112          1           0        9.235200   -1.581126   -2.634184
    113          1           0       10.979998   -1.746602   -2.551102
    114          1           0        9.969311   -2.474740   -1.299546
    115          1           0       11.338069    0.566440    0.446574
    116          1           0       11.309549   -1.183787    0.493933
    117          1           0       12.831272   -1.277419   -1.464769
    118          1           0       12.788421    0.468572   -1.608150
    119          1           0       13.744539    0.642120    0.717835
    120          1           0       13.885873   -1.102468    0.771440
    121          1           0       15.273423    0.712069   -1.239748
    122          1           0       15.660048   -2.271035   -0.703979
    123          1           0       14.904779   -1.580422   -2.143380
    124          1           0       16.610072   -1.303122   -1.835077
    125          1           0       16.003837    1.016099    1.108122
    126          1           0       16.369759   -0.692102    1.227799
    127          1           0       18.155005   -0.466547   -0.468130
    128          1           0       17.687159    1.194678   -0.772729
    129          1           0       18.342558    1.832153    1.525780
    130          1           0       18.638144    0.154950    1.934678
    131          1           0       20.485248    0.061945    0.290679
    132          1           0       19.970446    3.051519   -0.059556
    133          1           0       21.394388    2.194088   -0.654858
    134          1           0       19.804175    1.817846   -1.312794
    135          1           0       20.926994    0.594662    2.680192
    136          1           0       22.080168    1.420274    1.626443
    137          1           0       20.735088    2.315988    2.336442
 ---------------------------------------------------------------------

 SCF Done:  E(UwB97XD) =  -2934.53510160     A.U. after   27 cycles

 Alpha virt. eigenvalues --    1.93478   1.93578   1.93794   1.94139   1.94545
 Alpha virt. eigenvalues --    1.94822   1.95001   1.95453   1.95529   1.95833
 Alpha virt. eigenvalues --    1.95991   1.96358   1.96460   1.96499   1.97076

  Beta  occ. eigenvalues --  -47.01682 -19.38088 -19.35678 -19.33780 -19.32099
  Beta  occ. eigenvalues --  -19.30112 -14.55725 -14.54213 -14.54095 -14.53685
  Beta  occ. eigenvalues --  -10.50219 -10.48307 -10.48047 -10.45939 -10.45584
  Beta  occ. eigenvalues --  -10.45235 -10.45232 -10.44977 -10.44922 -10.44796
  Beta  occ. eigenvalues --  -10.44230 -10.43480 -10.42205 -10.41111 -10.40866
  Beta  occ. eigenvalues --  -10.40850 -10.40767 -10.40735 -10.40733 -10.40508
  Beta  occ. eigenvalues --  -10.40504 -10.40391 -10.40288 -10.39832 -10.39567
  Beta  occ. eigenvalues --  -10.39292 -10.39134 -10.38617 -10.38466 -10.38213
  Beta  occ. eigenvalues --  -10.38175 -10.37981 -10.37974 -10.37921 -10.37556
  Beta  occ. eigenvalues --  -10.36415 -10.34732 -10.32833 -10.32789 -10.32667
  Beta  occ. eigenvalues --  -10.31955 -10.31712 -10.31212 -10.30636 -10.30411
  Beta  occ. eigenvalues --  -10.30256 -10.30167 -10.30041 -10.29878 -10.29530
  Beta  occ. eigenvalues --  -10.29445 -10.29287 -10.29052 -10.28611 -10.28565
  Beta  occ. eigenvalues --   -3.27958  -2.01423  -2.00878  -2.00821  -1.29990
  Beta  occ. eigenvalues --   -1.27699  -1.24593  -1.20833  -1.19622  -1.18726
  Beta  occ. eigenvalues --   -1.18468  -1.18151  -1.17271  -1.06362  -1.03046
  Beta  occ. eigenvalues --   -1.02574  -1.02195  -1.01701  -1.01677  -1.01343
  Beta  occ. eigenvalues --   -0.98508  -0.98182  -0.96911  -0.96473  -0.95882
  Beta  occ. eigenvalues --   -0.95539  -0.94782  -0.94300  -0.93906  -0.93186
  Beta  occ. eigenvalues --   -0.92233  -0.91325  -0.90570  -0.90076  -0.89267
  Beta  occ. eigenvalues --   -0.88474  -0.88380  -0.87460  -0.86457  -0.85446
  Beta  occ. eigenvalues --   -0.85136  -0.83639  -0.82387  -0.82190  -0.81827
  Beta  occ. eigenvalues --   -0.80570  -0.80196  -0.79933  -0.79656  -0.79208
  Beta  occ. eigenvalues --   -0.78983  -0.77823  -0.77695  -0.75044  -0.74656
  Beta  occ. eigenvalues --   -0.73682  -0.73364  -0.72895  -0.72742  -0.72357
  Beta  occ. eigenvalues --   -0.71876  -0.71574  -0.71454  -0.69855  -0.69782
  Beta  occ. eigenvalues --   -0.69219  -0.68803  -0.68770  -0.68036  -0.67702
  Beta  occ. eigenvalues --   -0.67471  -0.66913  -0.66777  -0.66300  -0.66055
  Beta  occ. eigenvalues --   -0.65496  -0.64972  -0.64529  -0.64451  -0.64288
  Beta  occ. eigenvalues --   -0.64054  -0.63513  -0.63336  -0.63114  -0.62842
  Beta  occ. eigenvalues --   -0.62569  -0.62251  -0.61906  -0.61501  -0.61023
  Beta  occ. eigenvalues --   -0.60963  -0.60751  -0.60235  -0.59915  -0.59564
  Beta  occ. eigenvalues --   -0.59464  -0.59431  -0.59128  -0.58914  -0.58783
  Beta  occ. eigenvalues --   -0.58583  -0.58488  -0.58409  -0.58161  -0.58099
  Beta  occ. eigenvalues --   -0.57688  -0.57503  -0.57178  -0.57032  -0.56877
  Beta  occ. eigenvalues --   -0.56596  -0.56486  -0.56342  -0.56053  -0.55689
  Beta  occ. eigenvalues --   -0.55559  -0.55479  -0.55281  -0.55093  -0.54903
  Beta  occ. eigenvalues --   -0.54632  -0.54559  -0.54135  -0.53672  -0.53139
  Beta  occ. eigenvalues --   -0.53050  -0.52753  -0.52547  -0.52522  -0.52328
  Beta  occ. eigenvalues --   -0.52254  -0.52083  -0.51697  -0.51313  -0.51064
  Beta  occ. eigenvalues --   -0.50926  -0.50791  -0.50677  -0.50242  -0.49910
  Beta  occ. eigenvalues --   -0.49476  -0.49374  -0.48986  -0.48761  -0.48674
  Beta  occ. eigenvalues --   -0.47820  -0.47740  -0.47335  -0.47253  -0.46684
  Beta  occ. eigenvalues --   -0.46569  -0.45958  -0.45877  -0.45331  -0.45301
  Beta  occ. eigenvalues --   -0.45250  -0.45047  -0.44591  -0.44279  -0.43918
  Beta  occ. eigenvalues --   -0.43773  -0.43317  -0.43263  -0.43205  -0.42811
  Beta  occ. eigenvalues --   -0.42647  -0.42591  -0.42347  -0.41877  -0.41816
  Beta  occ. eigenvalues --   -0.41444  -0.41283  -0.39359  -0.38041  -0.37542
  Beta virt. eigenvalues --   -0.21374  -0.14581  -0.11720  -0.06787  -0.04071
  Beta virt. eigenvalues --   -0.03353  -0.01876  -0.01629  -0.01151  -0.00512
  Beta virt. eigenvalues --    0.00759   0.01338   0.01506   0.01854   0.02511

 Mulliken charges and spin densities:
               1          2
     1  Mg   0.791633   0.007744
     2  C   -0.208274  -0.019956
     3  C   -0.501162   0.014534
     4  C   -0.358498  -0.130184
     5  C   -0.322542  -0.214323
     6  N   -0.416926  -0.017704
     7  C    0.331907   0.147526
     8  C   -0.011656  -0.003884
     9  C    0.044573  -0.004097
    10  C    0.236002   0.105266
    11  C   -0.399862   0.007178
    12  C   -0.309755   0.011763
    13  C   -0.229358   0.001052
    14  C    0.338617   0.000173
    15  O   -0.361856   0.000035
    16  O   -0.265401   0.000012
    17  N   -0.394447  -0.042367
    18  C    0.339683   0.078521
    19  C   -0.010817   0.063904
    20  C    0.014978  -0.032692
    21  C    0.300914   0.183492
    22  C   -0.418332  -0.003058
    23  C   -0.175614   0.008064
    24  C   -0.275081  -0.006450
    25  N   -0.388013  -0.112479
    26  C    0.272187   0.192729
    27  C   -0.016817   0.074391
    28  C   -0.051202  -0.018508
    29  C    0.363447   0.267598
    30  C   -0.379391  -0.002827
    31  C   -0.269113   0.001071
    32  C   -0.334942   0.001110
    33  N   -0.402614  -0.077458
    34  C    0.277454   0.256344
    35  C   -0.055229   0.030643
    36  C   -0.056835   0.052553
    37  C    0.222160   0.125282
    38  C   -0.399411   0.001419
    39  C    0.146236  -0.015339
    40  O   -0.273871   0.032394
    41  C    0.043645   0.001669
    42  C    0.282436  -0.000584
    43  O   -0.341756   0.000692
    44  O   -0.255863  -0.000095
    45  C   -0.201291  -0.000028
    46  C   -0.051652   0.000034
    47  C   -0.166034  -0.000000
    48  C    0.051210   0.000011
    49  C   -0.374538  -0.000000
    50  C   -0.183762   0.000000
    51  C   -0.255240  -0.000000
    52  C   -0.204724   0.000000
    53  C    0.051339  -0.000000
    54  C   -0.410113  -0.000000
    55  C   -0.203368   0.000000
    56  C   -0.228259   0.000000
    57  C   -0.205904  -0.000000
    58  C    0.056471   0.000000
    59  C   -0.410051  -0.000000
    60  C   -0.201214  -0.000000
    61  C   -0.232501   0.000000
    62  C   -0.204461   0.000000
    63  C    0.012693   0.000000
    64  C   -0.378330  -0.000000
    65  C   -0.342257  -0.000000
    66  H    0.154694  -0.000546
    67  H    0.163196   0.002820
    68  H    0.171264   0.004991
    69  H    0.153240   0.007134
    70  H    0.119684   0.004728
    71  H    0.147625   0.000859
    72  H    0.133316   0.000024
    73  H    0.146024  -0.000159
    74  H    0.138527  -0.000336
    75  H    0.140542  -0.000358
    76  H    0.137295   0.000029
    77  H    0.140561   0.000032
    78  H    0.170987   0.004806
    79  H    0.171690   0.000629
    80  H    0.139186   0.001808
    81  H    0.137543  -0.000719
    82  H    0.156191   0.000130
    83  H    0.162809   0.000210
    84  H    0.159862   0.004537
    85  H    0.141050  -0.000239
    86  H    0.153566   0.004019
    87  H    0.118579  -0.000409
    88  H    0.133700  -0.000159
    89  H    0.143951   0.000387
    90  H    0.127479  -0.000088
    91  H    0.117263   0.000145
    92  H    0.149351   0.001534
    93  H    0.181927  -0.000333
    94  H    0.163621   0.002803
    95  H    0.139716  -0.003445
    96  H    0.129045   0.000001
    97  H    0.150889  -0.000001
    98  H    0.149408  -0.000005
    99  H    0.131405  -0.000001
   100  H    0.105274  -0.000002
   101  H    0.115267  -0.000000
   102  H    0.113753   0.000000
   103  H    0.130956   0.000000
   104  H    0.150295   0.000001
   105  H    0.115549   0.000001
   106  H    0.104964  -0.000000
   107  H    0.114866   0.000000
   108  H    0.105874  -0.000000
   109  H    0.096412  -0.000000
   110  H    0.099291   0.000000
   111  H    0.063298   0.000000
   112  H    0.121506  -0.000000
   113  H    0.129768   0.000000
   114  H    0.108449   0.000000
   115  H    0.093791   0.000000
   116  H    0.095791  -0.000000
   117  H    0.099856   0.000000
   118  H    0.092972  -0.000000
   119  H    0.093316  -0.000000
   120  H    0.095065   0.000000
   121  H    0.061215  -0.000000
   122  H    0.107656   0.000000
   123  H    0.121121   0.000000
   124  H    0.128756   0.000000
   125  H    0.093347   0.000000
   126  H    0.095864   0.000000
   127  H    0.098065  -0.000000
   128  H    0.100061  -0.000000
   129  H    0.093981  -0.000000
   130  H    0.093470   0.000000
   131  H    0.064476  -0.000000
   132  H    0.105273  -0.000000
   133  H    0.118554  -0.000000
   134  H    0.121888  -0.000000
   135  H    0.112725   0.000000
   136  H    0.118218   0.000000
   137  H    0.104579   0.000000
 Sum of Mulliken charges =   1.00000   1.00000

 Dipole moment (field-independent basis, Debye):
    X=            -31.5556    Y=              5.8161    Z=              0.4624  Tot=             32.0904
 Quadrupole moment (field-independent basis, Debye-Ang):
   XX=            -13.0583   YY=           -327.3224   ZZ=           -393.4394
   XY=            -33.5686   XZ=             18.4681   YZ=              3.1476

 Normal termination of Gaussian 16 at Sat Nov 30 15:36:29 2019.
