 Gaussian 09, Revision D.01,
 Gaussian 09:  ES64L-G09RevD.01 24-Apr-2013

 -------------------------------------------
 # td(NStates=1) CAM-B3LYP/6-31G(d,p) nosymm
 -------------------------------------------

 ---------------------------
 neoxanthin-abs Single Point
 ---------------------------
 Symbolic Z-matrix:
 Charge =  0 Multiplicity = 1

                          Input orientation:
 ---------------------------------------------------------------------
 Center     Atomic      Atomic             Coordinates (Angstroms)
 Number     Number       Type             X           Y           Z
 ---------------------------------------------------------------------
      1          8           0       11.524320    0.807636   -0.887934
      2          8           0       13.202547   -2.375395    1.253017
      3          8           0      -10.461969   -0.511550    2.298793
      4          8           0      -14.249515   -1.273432    0.634488
      5          6           0       10.897482   -0.287224   -0.453429
      6          6           0       11.864211    0.422245    0.465156
      7          6           0       11.282337   -1.694685   -1.038142
      8          6           0       13.341497   -0.050904    0.487997
      9          6           0       12.810855   -1.840413   -1.157003
     10          6           0       13.646946   -1.492485    0.126179
     11          6           0       11.286676    1.444156    1.434524
     12          6           0        9.402898   -0.164580   -0.263775
     13          6           0       10.573002   -2.950705   -0.402398
     14          6           0       10.797660   -1.583694   -2.509453
     15          6           0        8.679672   -0.413827    0.757761
     16          6           0        7.267847   -0.057073    1.022434
     17          6           0        6.587475   -1.164114    1.861354
     18          6           0        6.671513    0.888453    0.362513
     19          6           0        5.300638    1.320012    0.428780
     20          6           0      -11.984889   -0.294619   -1.341130
     21          6           0      -11.540584   -0.538784    1.397948
     22          6           0      -12.566647   -1.699094   -1.155047
     23          6           0      -13.133379   -2.099402    0.156307
     24          6           0      -12.091936   -1.941710    1.234898
     25          6           0      -11.060641   -0.009304   -0.019420
     26          6           0      -11.175757   -0.348445   -2.535841
     27          6           0      -13.048866    0.777253   -1.487645
     28          6           0      -12.593645    0.548636    1.941433
     29          6           0        4.734344    2.401568   -0.098548
     30          6           0       -9.928976    0.617887   -0.183985
     31          6           0        3.343026    2.927566    0.011268
     32          6           0       -8.610246    1.008625   -0.241610
     33          6           0        3.172667    4.441029    0.204493
     34          6           0        2.319853    1.935553   -0.250254
     35          6           0       -7.464510    0.196108   -0.221997
     36          6           0       -7.558754   -1.266769   -0.147272
     37          6           0       -6.201226    0.849259   -0.302609
     38          6           0        0.968668    2.159252   -0.100666
     39          6           0       -4.904985    0.285601   -0.300013
     40          6           0        0.068226    1.106304   -0.226820
     41          6           0       -3.770218    1.096305   -0.259823
     42          6           0       -1.372005    1.491727   -0.185731
     43          6           0       -2.442517    0.538987   -0.213392
     44          6           0       -2.284196   -0.943972   -0.292149
     45          1           0       13.732361    0.014224    1.505038
     46          1           0       13.932849    0.591618   -0.343759
     47          1           0       13.168982   -2.727043   -1.377671
     48          1           0       13.008356   -1.108295   -1.954600
     49          1           0       14.697743   -1.678199    0.096280
     50          1           0       11.126817    1.071211    2.435728
     51          1           0       12.082380    2.297736    1.546490
     52          1           0       10.389131    1.906083    0.789809
     53          1           0        8.806162    0.141667   -0.999582
     54          1           0        9.564718   -2.918221   -0.334314
     55          1           0       10.765203   -3.916642   -0.926683
     56          1           0       11.017254   -3.022511    0.732032
     57          1           0       11.123000   -0.522433   -2.878972
     58          1           0       11.391271   -2.396526   -3.121331
     59          1           0        9.740846   -1.739571   -2.762571
     60          1           0       12.446918   -1.903129    1.659755
     61          1           0        9.268980   -0.868625    1.528023
     62          1           0        5.450748   -0.859183    1.806684
     63          1           0        6.508193   -2.204518    1.180350
     64          1           0        6.952900   -1.259768    2.858331
     65          1           0        7.339268    1.459972   -0.455622
     66          1           0        4.462562    0.830682    0.966613
     67          1           0      -13.244927   -1.897949   -2.138527
     68          1           0      -11.728775   -2.335049   -1.388665
     69          1           0      -13.434184   -2.990067    0.303278
     70          1           0      -12.495959   -1.970526    2.291738
     71          1           0      -11.252772   -2.722894    1.330432
     72          1           0      -11.901110   -0.522356   -3.257790
     73          1           0      -10.706642    0.671108   -2.843988
     74          1           0      -10.434173   -1.175861   -2.737942
     75          1           0      -13.673696    0.722217   -0.720595
     76          1           0      -12.639830    1.822887   -1.555694
     77          1           0      -13.502462    0.559780   -2.574892
     78          1           0      -12.744172    0.346112    2.994774
     79          1           0      -12.194805    1.506144    2.192588
     80          1           0      -13.526115    0.590925    1.388015
     81          1           0        5.335921    3.144267   -0.629403
     82          1           0       -9.939734    0.370448    2.298696
     83          1           0      -14.946062   -1.500466    0.063227
     84          1           0       -8.362853    2.070627   -0.107539
     85          1           0        2.287778    4.800590   -0.035825
     86          1           0        3.699518    4.750718    1.090157
     87          1           0        3.928648    4.670529   -0.579633
     88          1           0        2.823045    0.984822   -0.348172
     89          1           0       -6.686473   -1.896333   -0.298629
     90          1           0       -8.215464   -1.491624    0.796078
     91          1           0       -8.241850   -1.561498   -0.838435
     92          1           0       -6.176946    1.993093   -0.342581
     93          1           0        0.554140    3.027239   -0.153230
     94          1           0       -4.612128   -0.942521   -0.236976
     95          1           0        0.079029    0.124464   -0.112746
     96          1           0       -3.996046    2.161692    0.071341
     97          1           0       -1.826899    2.636913    0.013729
     98          1           0       -1.290740   -1.158520   -0.109826
     99          1           0       -2.813049   -1.633501    0.451537
    100          1           0       -2.429356   -1.430233   -1.372928
 ---------------------------------------------------------------------

 SCF Done:  E(RCAM-B3LYP) =  -1857.28571918     A.U. after   15 cycles

 Excitation energies and oscillator strengths:

 Excited state symmetry could not be determined.
 Excited State   1:      Singlet-?Sym    2.5050 eV  494.94 nm  f=3.2123  <S**2>=0.000
     163 ->166        -0.13743
     164 ->165         0.69121
 This state for optimization and/or second-order correction.
 Total Energy, E(TD-HF/TD-KS) =  -1857.19366156
 Copying the excited state density for this state as the 1-particle RhoCI density.

 Alpha  occ. eigenvalues --  -19.23417 -19.21958 -19.21170 -19.20985 -10.32689
 Alpha  occ. eigenvalues --  -10.32645 -10.32626 -10.30868 -10.30747 -10.28474
 Alpha  occ. eigenvalues --  -10.28017 -10.27886 -10.27866 -10.27815 -10.27479
 Alpha  occ. eigenvalues --  -10.27436 -10.27416 -10.27311 -10.27258 -10.27041
 Alpha  occ. eigenvalues --  -10.27019 -10.26871 -10.26710 -10.26664 -10.26648
 Alpha  occ. eigenvalues --  -10.26432 -10.26409 -10.26329 -10.26162 -10.26134
 Alpha  occ. eigenvalues --  -10.25994 -10.25905 -10.25847 -10.25669 -10.25622
 Alpha  occ. eigenvalues --  -10.25353 -10.25122 -10.24927 -10.24632 -10.24317
 Alpha  occ. eigenvalues --  -10.24076 -10.24026 -10.24003 -10.22760  -1.19008
 Alpha  occ. eigenvalues --   -1.10792  -1.08755  -1.07368  -0.93417  -0.92585
 Alpha  occ. eigenvalues --   -0.91274  -0.90736  -0.90062  -0.89516  -0.87530
 Alpha  occ. eigenvalues --   -0.87295  -0.86262  -0.85349  -0.84390  -0.82764
 Alpha  occ. eigenvalues --   -0.82235  -0.80885  -0.80211  -0.78495  -0.76830
 Alpha  occ. eigenvalues --   -0.76618  -0.76498  -0.76443  -0.76101  -0.75435
 Alpha  occ. eigenvalues --   -0.75059  -0.73403  -0.72449  -0.71404  -0.70424
 Alpha  occ. eigenvalues --   -0.69079  -0.66597  -0.65240  -0.64478  -0.64312
 Alpha  occ. eigenvalues --   -0.63968  -0.61700  -0.60160  -0.59903  -0.59605
 Alpha  occ. eigenvalues --   -0.59532  -0.58530  -0.57956  -0.57321  -0.56845
 Alpha  occ. eigenvalues --   -0.55771  -0.55270  -0.55146  -0.54701  -0.54203
 Alpha  occ. eigenvalues --   -0.53822  -0.53032  -0.53003  -0.52894  -0.52647
 Alpha  occ. eigenvalues --   -0.51425  -0.51292  -0.51031  -0.50924  -0.49897
 Alpha  occ. eigenvalues --   -0.49531  -0.49031  -0.48793  -0.48614  -0.48028
 Alpha  occ. eigenvalues --   -0.47708  -0.47404  -0.47317  -0.47159  -0.46949
 Alpha  occ. eigenvalues --   -0.46818  -0.46480  -0.46013  -0.45294  -0.44780
 Alpha  occ. eigenvalues --   -0.44299  -0.44147  -0.44030  -0.43656  -0.43353
 Alpha  occ. eigenvalues --   -0.43108  -0.42930  -0.42664  -0.42613  -0.42147
 Alpha  occ. eigenvalues --   -0.41804  -0.41660  -0.41318  -0.41249  -0.41002
 Alpha  occ. eigenvalues --   -0.40982  -0.40470  -0.40425  -0.40008  -0.39767
 Alpha  occ. eigenvalues --   -0.39695  -0.39449  -0.39115  -0.39010  -0.38903
 Alpha  occ. eigenvalues --   -0.38325  -0.38277  -0.37475  -0.37133  -0.36932
 Alpha  occ. eigenvalues --   -0.36789  -0.36560  -0.34544  -0.34408  -0.33929
 Alpha  occ. eigenvalues --   -0.33751  -0.32755  -0.31868  -0.30814  -0.30331
 Alpha  occ. eigenvalues --   -0.29549  -0.27726  -0.24460  -0.19416
 Alpha virt. eigenvalues --   -0.04280   0.00085   0.03194   0.07436   0.07936
 Alpha virt. eigenvalues --    0.09228   0.10061   0.10986   0.11527   0.12122
 Alpha virt. eigenvalues --    0.12366   0.12515   0.12777   0.13081   0.13689

 Mulliken charges:
               1
     1  O   -0.484753
     2  O   -0.562235
     3  O   -0.591295
     4  O   -0.544016
     5  C    0.262574
     6  C    0.171778
     7  C    0.025411
     8  C   -0.218886
     9  C   -0.163696
    10  C    0.135695
    11  C   -0.322530
    12  C   -0.103882
    13  C   -0.301179
    14  C   -0.323543
    15  C   -0.057855
    16  C    0.092146
    17  C   -0.349183
    18  C   -0.128519
    19  C   -0.067453
    20  C    0.023426
    21  C    0.287989
    22  C   -0.196248
    23  C    0.171377
    24  C   -0.221375
    25  C   -0.070081
    26  C   -0.302835
    27  C   -0.274654
    28  C   -0.316612
    29  C   -0.136372
    30  C    0.065986
    31  C    0.025753
    32  C   -0.260880
    33  C   -0.348199
    34  C   -0.106464
    35  C    0.165974
    36  C   -0.382152
    37  C   -0.155509
    38  C   -0.050808
    39  C   -0.071832
    40  C   -0.065819
    41  C   -0.122595
    42  C   -0.142306
    43  C    0.098106
    44  C   -0.379890
    45  H    0.103629
    46  H    0.112923
    47  H    0.105652
    48  H    0.104270
    49  H    0.110932
    50  H    0.115430
    51  H    0.098370
    52  H    0.131502
    53  H    0.076240
    54  H    0.114621
    55  H    0.103289
    56  H    0.073230
    57  H    0.108093
    58  H    0.087108
    59  H    0.106639
    60  H    0.302746
    61  H    0.059138
    62  H    0.100706
    63  H    0.106102
    64  H    0.130368
    65  H    0.086532
    66  H    0.086509
    67  H    0.067271
    68  H    0.116592
    69  H    0.096608
    70  H    0.123992
    71  H    0.115642
    72  H    0.098558
    73  H    0.102939
    74  H    0.101488
    75  H    0.122744
    76  H    0.105422
    77  H    0.069137
    78  H    0.098829
    79  H    0.087449
    80  H    0.139216
    81  H    0.071874
    82  H    0.320280
    83  H    0.300997
    84  H    0.097422
    85  H    0.125510
    86  H    0.139314
    87  H    0.118714
    88  H    0.084604
    89  H    0.112062
    90  H    0.121068
    91  H    0.127071
    92  H    0.074838
    93  H    0.081050
    94  H    0.073539
    95  H    0.078820
    96  H    0.082065
    97  H    0.070817
    98  H    0.112112
    99  H    0.121706
   100  H    0.113662
 Sum of Mulliken charges =   0.00000

 Dipole moment (field-independent basis, Debye):
    X=             -2.1520    Y=             -0.2990    Z=             -0.7622  Tot=              2.3025
 Quadrupole moment (field-independent basis, Debye-Ang):
   XX=           -245.8441   YY=           -258.6678   ZZ=           -276.1879
   XY=             28.4721   XZ=             24.0505   YZ=              9.6437

 Normal termination of Gaussian 09 at Sat May 18 12:19:18 2019.
