 Gaussian 16, Revision A.03,

 ----------------------------------------------------------------------
 # wB97XD/Def2TZVP Geom=Checkpoint Guess=Read iop(3/107=0120000000,3/10
 8=0120000000) Opt
 ----------------------------------------------------------------------

 -----------
 cla-charged
 -----------
 Structure from the checkpoint file:  "cla-charged-tunado.chk"
 Charge =  1 Multiplicity = 2

 SCF Done:  E(UwB97XD) =  -2934.78330632     A.U. after   19 cycles
 SCF Done:  E(UwB97XD) =  -2934.78400413     A.U. after   16 cycles
 SCF Done:  E(UwB97XD) =  -2934.78396536     A.U. after   16 cycles
 SCF Done:  E(UwB97XD) =  -2934.78407656     A.U. after   17 cycles
 SCF Done:  E(UwB97XD) =  -2934.78413368     A.U. after   14 cycles
 SCF Done:  E(UwB97XD) =  -2934.78414424     A.U. after   14 cycles
 SCF Done:  E(UwB97XD) =  -2934.78415110     A.U. after   14 cycles
 SCF Done:  E(UwB97XD) =  -2934.78415515     A.U. after   15 cycles
 SCF Done:  E(UwB97XD) =  -2934.78415873     A.U. after   12 cycles
 SCF Done:  E(UwB97XD) =  -2934.78416018     A.U. after   12 cycles
 SCF Done:  E(UwB97XD) =  -2934.78416064     A.U. after   11 cycles
 SCF Done:  E(UwB97XD) =  -2934.78416078     A.U. after   11 cycles
 SCF Done:  E(UwB97XD) =  -2934.78416087     A.U. after    6 cycles
 SCF Done:  E(UwB97XD) =  -2934.78416093     A.U. after    6 cycles
 SCF Done:  E(UwB97XD) =  -2934.78416097     A.U. after    6 cycles
 Optimization completed.
    -- Stationary point found.
 Normal termination of Gaussian 16 at Mon Dec 16 06:44:44 2019.
 Gaussian 16:  ES64L-G16RevA.03 25-Dec-2016

 ----------------------------------------------------------------------
 # wB97XD/Def2TZVP Geom=Checkpoint iop(3/107=0120000000,3/108=012000000
 0) Sp
 ----------------------------------------------------------------------

 --------------
 cla-charged-sp
 --------------
 Structure from the checkpoint file:  "/home/padawan/israel-mol/amanda/reorganization_energy/tuning/chla/Gau-72789.chk"
 Charge =  0 Multiplicity = 1

                         Standard orientation:
 ---------------------------------------------------------------------
 Center     Atomic      Atomic             Coordinates (Angstroms)
 Number     Number       Type             X           Y           Z
 ---------------------------------------------------------------------
      1         12           0       -7.149296    0.496487    0.119289
      2          6           0       -4.716617   -1.897044    0.541875
      3          6           0       -4.986367    2.868969    1.196397
      4          6           0       -9.561587    2.819399   -0.350167
      5          6           0       -9.355883   -1.990772   -0.846988
      6          7           0       -5.119935    0.469975    0.747573
      7          6           0       -4.286994   -0.615202    0.825249
      8          6           0       -2.893016   -0.212814    1.224679
      9          6           0       -3.091900    1.241444    1.695810
     10          6           0       -4.473354    1.568779    1.177317
     11          6           0       -3.011772    1.401295    3.220412
     12          6           0       -1.914932   -0.349675    0.043138
     13          6           0       -0.466081   -0.134971    0.459303
     14          6           0        0.489736   -0.257349   -0.712818
     15          8           0        0.147311   -0.431804   -1.853889
     16          8           0        1.751661   -0.141998   -0.305841
     17          7           0       -7.248518    2.488556    0.368327
     18          6           0       -6.252619    3.298968    0.818639
     19          6           0       -6.716655    4.687275    0.859128
     20          6           0       -8.004347    4.674384    0.415284
     21          6           0       -8.332000    3.274247    0.120679
     22          6           0       -5.905777    5.838582    1.342630
     23          6           0       -8.942783    5.781148    0.267848
     24          6           0       -8.632732    6.998487   -0.172802
     25          7           0       -9.109459    0.424039   -0.495816
     26          6           0       -9.928324    1.502277   -0.632033
     27          6           0      -11.244309    1.078910   -1.107455
     28          6           0      -11.188887   -0.272373   -1.240878
     29          6           0       -9.835949   -0.669858   -0.854131
     30          6           0      -12.383006    2.001617   -1.378346
     31          6           0      -12.250709   -1.205881   -1.727628
     32          6           0      -12.104120   -1.546935   -3.216914
     33          7           0       -7.099791   -1.488165   -0.123406
     34          6           0       -8.073400   -2.382547   -0.501190
     35          6           0       -7.533268   -3.759104   -0.471261
     36          6           0       -6.239100   -3.607437   -0.065861
     37          6           0       -6.013666   -2.213212    0.133630
     38          6           0       -8.282246   -4.994973   -0.812130
     39          6           0       -4.990835   -4.324524    0.244790
     40          8           0       -4.756757   -5.497750    0.215098
     41          6           0       -3.944275   -3.201383    0.643603
     42          6           0       -3.403003   -3.484647    2.038534
     43          8           0       -3.870927   -3.025509    3.047949
     44          8           0       -2.367634   -4.312852    1.983038
     45          6           0       -1.835157   -4.756143    3.240238
     46          6           0        2.778487   -0.251654   -1.329452
     47          6           0        4.104024   -0.202835   -0.654896
     48          6           0        5.095538    0.660606   -0.886517
     49          6           0        5.031147    1.791381   -1.876265
     50          6           0        6.404957    0.519386   -0.151189
     51          6           0        7.590004    0.161694   -1.059532
     52          6           0        8.880334   -0.048123   -0.268981
     53          6           0       10.138769   -0.282112   -1.117637
     54          6           0       10.026756   -1.550415   -1.966552
     55          6           0       11.378148   -0.304699   -0.210729
     56          6           0       12.722101   -0.334015   -0.937617
     57          6           0       13.908301   -0.249003    0.022313
     58          6           0       15.290074   -0.167197   -0.643021
     59          6           0       15.610888   -1.424828   -1.453675
     60          6           0       16.362339    0.118751    0.418533
     61          6           0       17.765250    0.392374   -0.122644
     62          6           0       18.740813    0.823119    0.972046
     63          6           0       20.200353    0.977881    0.524077
     64          6           0       20.371212    2.058038   -0.546077
     65          6           0       21.101113    1.264745    1.726834
     66          1           0       -4.306415    3.630902    1.551574
     67          1           0      -10.319477    3.572222   -0.516091
     68          1           0      -10.050552   -2.766127   -1.139041
     69          1           0       -2.552944   -0.846481    2.046326
     70          1           0       -2.364319    1.911799    1.233516
     71          1           0       -2.009624    1.147868    3.566320
     72          1           0       -3.226262    2.425698    3.524324
     73          1           0       -3.721622    0.738473    3.717333
     74          1           0       -2.008579   -1.339105   -0.403954
     75          1           0       -2.188293    0.359276   -0.741234
     76          1           0       -0.312431    0.849715    0.908254
     77          1           0       -0.165232   -0.859842    1.219501
     78          1           0       -5.205585    6.181245    0.576492
     79          1           0       -6.547314    6.678615    1.604952
     80          1           0       -5.321645    5.568499    2.223329
     81          1           0       -9.974297    5.573532    0.535068
     82          1           0       -9.385620    7.771743   -0.245363
     83          1           0       -7.632871    7.256309   -0.497225
     84          1           0      -12.125275    2.725519   -2.154624
     85          1           0      -13.264041    1.458229   -1.713049
     86          1           0      -12.657194    2.564271   -0.483320
     87          1           0      -12.231777   -2.124661   -1.136508
     88          1           0      -13.230642   -0.760459   -1.552415
     89          1           0      -12.888542   -2.235929   -3.529861
     90          1           0      -12.176237   -0.647318   -3.828799
     91          1           0      -11.139824   -2.013296   -3.424538
     92          1           0       -8.658298   -4.950010   -1.836839
     93          1           0       -7.646432   -5.871147   -0.713956
     94          1           0       -9.146038   -5.116656   -0.154348
     95          1           0       -3.123831   -3.280083   -0.071477
     96          1           0       -1.473732   -3.908186    3.820208
     97          1           0       -2.600235   -5.283570    3.807194
     98          1           0       -1.018098   -5.424902    2.989077
     99          1           0        2.629898   -1.202140   -1.846520
    100          1           0        2.629468    0.544750   -2.055661
    101          1           0        4.264438   -0.985403    0.080670
    102          1           0        4.019096    2.021831   -2.202738
    103          1           0        5.460346    2.696199   -1.440125
    104          1           0        5.621202    1.559684   -2.766275
    105          1           0        6.627024    1.462149    0.361740
    106          1           0        6.307635   -0.244584    0.623545
    107          1           0        7.335581   -0.740385   -1.621208
    108          1           0        7.746673    0.955045   -1.796302
    109          1           0        9.047358    0.830140    0.363386
    110          1           0        8.750965   -0.894354    0.415922
    111          1           0       10.242339    0.572483   -1.798169
    112          1           0        9.167663   -1.513655   -2.637286
    113          1           0       10.910723   -1.696437   -2.587225
    114          1           0        9.917074   -2.431818   -1.328160
    115          1           0       11.351210    0.580005    0.434084
    116          1           0       11.311191   -1.169405    0.460196
    117          1           0       12.797257   -1.245577   -1.533304
    118          1           0       12.768761    0.502140   -1.644436
    119          1           0       13.778422    0.632869    0.658439
    120          1           0       13.889718   -1.113289    0.696856
    121          1           0       15.274424    0.685178   -1.334087
    122          1           0       15.639248   -2.304200   -0.803716
    123          1           0       14.866353   -1.606108   -2.229478
    124          1           0       16.578129   -1.345654   -1.950288
    125          1           0       16.043141    0.985612    1.006857
    126          1           0       16.402361   -0.723442    1.119538
    127          1           0       18.160278   -0.501309   -0.614293
    128          1           0       17.702152    1.166129   -0.893538
    129          1           0       18.401498    1.770291    1.408343
    130          1           0       18.703388    0.087169    1.782308
    131          1           0       20.515899    0.021851    0.089820
    132          1           0       20.024440    3.026831   -0.175139
    133          1           0       21.420887    2.166345   -0.825737
    134          1           0       19.811668    1.827046   -1.453320
    135          1           0       21.015730    0.481480    2.482759
    136          1           0       22.149408    1.331511    1.429495
    137          1           0       20.828395    2.213350    2.197561
 ---------------------------------------------------------------------

 SCF Done:  E(RwB97XD) =  -2934.99933288     A.U. after   17 cycles

 The electronic state is 1-A.
 Alpha  occ. eigenvalues --  -46.86190 -19.26392 -19.26015 -19.19771 -19.19721
 Alpha  occ. eigenvalues --  -19.19674 -14.40916 -14.38451 -14.38429 -14.38135
 Alpha  occ. eigenvalues --  -10.37657 -10.37488 -10.34172 -10.30819 -10.30184
 Alpha  occ. eigenvalues --  -10.29700 -10.29443 -10.28722 -10.28245 -10.28064
 Alpha  occ. eigenvalues --  -10.27624 -10.27620 -10.27594 -10.27494 -10.27279
 Alpha  occ. eigenvalues --  -10.26690 -10.26679 -10.26482 -10.26466 -10.26065
 Alpha  occ. eigenvalues --  -10.25866 -10.25837 -10.25749 -10.25712 -10.25512
 Alpha  occ. eigenvalues --  -10.25393 -10.25134 -10.25093 -10.25030 -10.24954
 Alpha  occ. eigenvalues --  -10.24835 -10.24792 -10.24762 -10.24724 -10.24708
 Alpha  occ. eigenvalues --  -10.24694 -10.24688 -10.24676 -10.24664 -10.24590
 Alpha  occ. eigenvalues --  -10.24583 -10.24535 -10.24236 -10.24215 -10.23896
 Alpha  occ. eigenvalues --  -10.23840 -10.23752 -10.23721 -10.23680 -10.23642
 Alpha  occ. eigenvalues --  -10.23616 -10.23329 -10.23066 -10.23039 -10.23035
 Alpha  occ. eigenvalues --   -3.12470  -1.86007  -1.85424  -1.85365  -1.17630
 Alpha  occ. eigenvalues --   -1.17233  -1.10853  -1.08377  -1.08232  -1.03113
 Alpha  occ. eigenvalues --   -1.02138  -1.01786  -1.00694  -0.90695  -0.89849
 Alpha  occ. eigenvalues --   -0.88782  -0.88413  -0.87819  -0.87497  -0.87047
 Alpha  occ. eigenvalues --   -0.86545  -0.86403  -0.85807  -0.85367  -0.84564
 Alpha  occ. eigenvalues --   -0.83546  -0.82673  -0.82050  -0.81667  -0.81141
 Alpha  occ. eigenvalues --   -0.80231  -0.79915  -0.79095  -0.78551  -0.76851
 Alpha  occ. eigenvalues --   -0.76351  -0.75613  -0.75085  -0.74904  -0.74046
 Alpha  occ. eigenvalues --   -0.73803  -0.73654  -0.73148  -0.72123  -0.70842
 Alpha  occ. eigenvalues --   -0.70292  -0.69162  -0.68311  -0.67783  -0.66853
 Alpha  occ. eigenvalues --   -0.65848  -0.65380  -0.63981  -0.63608  -0.63322
 Alpha  occ. eigenvalues --   -0.63013  -0.62185  -0.61990  -0.61475  -0.61308
 Alpha  occ. eigenvalues --   -0.60805  -0.59438  -0.58957  -0.58629  -0.58134
 Alpha  occ. eigenvalues --   -0.57572  -0.57184  -0.56784  -0.56396  -0.55971
 Alpha  occ. eigenvalues --   -0.55227  -0.54678  -0.54224  -0.53997  -0.53888
 Alpha  occ. eigenvalues --   -0.53521  -0.53477  -0.53314  -0.52820  -0.52266
 Alpha  occ. eigenvalues --   -0.52016  -0.51557  -0.51274  -0.50905  -0.50650
 Alpha  occ. eigenvalues --   -0.50328  -0.50072  -0.49905  -0.49743  -0.49713
 Alpha  occ. eigenvalues --   -0.49280  -0.49223  -0.49066  -0.48823  -0.48814
 Alpha  occ. eigenvalues --   -0.48517  -0.48238  -0.48081  -0.47954  -0.47763
 Alpha  occ. eigenvalues --   -0.47481  -0.47238  -0.47093  -0.46994  -0.46458
 Alpha  occ. eigenvalues --   -0.46188  -0.45830  -0.45594  -0.45388  -0.45186
 Alpha  occ. eigenvalues --   -0.45167  -0.44872  -0.44710  -0.44652  -0.44457
 Alpha  occ. eigenvalues --   -0.44410  -0.44279  -0.44030  -0.43690  -0.43627
 Alpha  occ. eigenvalues --   -0.43493  -0.43463  -0.43207  -0.42933  -0.42825
 Alpha  occ. eigenvalues --   -0.42756  -0.42574  -0.42365  -0.42255  -0.42069
 Alpha  occ. eigenvalues --   -0.41909  -0.41680  -0.41534  -0.41301  -0.41278
 Alpha  occ. eigenvalues --   -0.40893  -0.40783  -0.40523  -0.40303  -0.40247
 Alpha  occ. eigenvalues --   -0.40017  -0.39818  -0.39352  -0.39251  -0.39220
 Alpha  occ. eigenvalues --   -0.38803  -0.38715  -0.38623  -0.38201  -0.37770
 Alpha  occ. eigenvalues --   -0.37258  -0.37077  -0.36965  -0.36765  -0.36742
 Alpha  occ. eigenvalues --   -0.36637  -0.36464  -0.36367  -0.36178  -0.36105
 Alpha  occ. eigenvalues --   -0.35829  -0.35628  -0.34899  -0.33873  -0.33393
 Alpha  occ. eigenvalues --   -0.33276  -0.32993  -0.32272  -0.31083  -0.30110
 Alpha  occ. eigenvalues --   -0.29944  -0.29824  -0.28376  -0.27944  -0.23818
 Alpha  occ. eigenvalues --   -0.21608
 Alpha virt. eigenvalues --   -0.05156  -0.02280   0.01824   0.04143   0.05590
 Alpha virt. eigenvalues --    0.06111   0.06489   0.06965   0.07156   0.07803
 Alpha virt. eigenvalues --    0.09495   0.09522   0.09775   0.09952   0.10353

 Mulliken charges:
               1
     1  Mg   0.806462
     2  C   -0.182113
     3  C   -0.496330
     4  C   -0.338172
     5  C   -0.329885
     6  N   -0.453889
     7  C    0.316660
     8  C    0.009038
     9  C    0.072139
    10  C    0.218444
    11  C   -0.379684
    12  C   -0.300220
    13  C   -0.207428
    14  C    0.375688
    15  O   -0.385694
    16  O   -0.280376
    17  N   -0.436402
    18  C    0.324037
    19  C   -0.030952
    20  C    0.029252
    21  C    0.261316
    22  C   -0.410948
    23  C   -0.177914
    24  C   -0.280693
    25  N   -0.430616
    26  C    0.223157
    27  C   -0.017474
    28  C   -0.045447
    29  C    0.328024
    30  C   -0.380316
    31  C   -0.255988
    32  C   -0.315923
    33  N   -0.456230
    34  C    0.205965
    35  C   -0.050105
    36  C   -0.108360
    37  C    0.225006
    38  C   -0.413307
    39  C    0.193979
    40  O   -0.330717
    41  C    0.026439
    42  C    0.348178
    43  O   -0.380910
    44  O   -0.273754
    45  C   -0.183815
    46  C   -0.020650
    47  C   -0.158294
    48  C    0.034334
    49  C   -0.351939
    50  C   -0.157403
    51  C   -0.253026
    52  C   -0.178928
    53  C    0.047063
    54  C   -0.390833
    55  C   -0.179565
    56  C   -0.223669
    57  C   -0.180774
    58  C    0.051951
    59  C   -0.390674
    60  C   -0.178051
    61  C   -0.226197
    62  C   -0.183180
    63  C    0.010642
    64  C   -0.359226
    65  C   -0.321087
    66  H    0.126798
    67  H    0.141422
    68  H    0.153187
    69  H    0.124743
    70  H    0.076250
    71  H    0.114865
    72  H    0.115650
    73  H    0.141434
    74  H    0.129790
    75  H    0.127110
    76  H    0.121502
    77  H    0.121325
    78  H    0.140749
    79  H    0.150604
    80  H    0.123312
    81  H    0.121248
    82  H    0.126730
    83  H    0.145635
    84  H    0.135098
    85  H    0.113469
    86  H    0.131097
    87  H    0.104975
    88  H    0.102079
    89  H    0.108462
    90  H    0.112140
    91  H    0.118373
    92  H    0.132067
    93  H    0.159434
    94  H    0.133587
    95  H    0.100171
    96  H    0.123086
    97  H    0.135049
    98  H    0.131136
    99  H    0.120586
   100  H    0.097759
   101  H    0.106371
   102  H    0.114439
   103  H    0.120056
   104  H    0.137938
   105  H    0.105097
   106  H    0.097701
   107  H    0.111187
   108  H    0.098354
   109  H    0.086892
   110  H    0.091384
   111  H    0.051850
   112  H    0.119901
   113  H    0.120000
   114  H    0.102642
   115  H    0.085943
   116  H    0.087700
   117  H    0.098774
   118  H    0.083619
   119  H    0.085656
   120  H    0.086960
   121  H    0.050759
   122  H    0.101540
   123  H    0.117572
   124  H    0.120971
   125  H    0.085827
   126  H    0.088092
   127  H    0.092156
   128  H    0.094691
   129  H    0.087566
   130  H    0.085772
   131  H    0.054750
   132  H    0.100186
   133  H    0.110401
   134  H    0.118554
   135  H    0.107122
   136  H    0.110443
   137  H    0.099597
 Sum of Mulliken charges =  -0.00000

 Dipole moment (field-independent basis, Debye):
    X=              2.8815    Y=              3.8426    Z=              0.5639  Tot=              4.8360
 Quadrupole moment (field-independent basis, Debye-Ang):
   XX=           -348.3199   YY=           -390.0906   ZZ=           -399.2647
   XY=            -15.4898   XZ=              9.1029   YZ=             -1.7500

 Normal termination of Gaussian 16 at Mon Dec 16 10:31:16 2019.
