 Gaussian 16, Revision A.03,

 ----------------------------------------------------------------------
 # wB97XD/Def2TZVP Geom=Checkpoint Guess=Read iop(3/107=0120000000,3/10
 8=0120000000) Opt
 ----------------------------------------------------------------------

 ------
 cla-s0
 ------
 Structure from the checkpoint file:  "cla-s0-tunado.chk"
 Charge =  0 Multiplicity = 1

 SCF Done:  E(RwB97XD) =  -2935.00227868     A.U. after    1 cycles
 SCF Done:  E(RwB97XD) =  -2935.00308269     A.U. after   14 cycles
 SCF Done:  E(RwB97XD) =  -2935.00297788     A.U. after   14 cycles
 SCF Done:  E(RwB97XD) =  -2935.00321407     A.U. after   13 cycles
 SCF Done:  E(RwB97XD) =  -2935.00329754     A.U. after   12 cycles
 SCF Done:  E(RwB97XD) =  -2935.00331999     A.U. after   11 cycles
 SCF Done:  E(RwB97XD) =  -2935.00332764     A.U. after   11 cycles
 SCF Done:  E(RwB97XD) =  -2935.00333298     A.U. after   11 cycles
 SCF Done:  E(RwB97XD) =  -2935.00333609     A.U. after    9 cycles
 SCF Done:  E(RwB97XD) =  -2935.00333739     A.U. after    9 cycles
 SCF Done:  E(RwB97XD) =  -2935.00333987     A.U. after    6 cycles
 SCF Done:  E(RwB97XD) =  -2935.00333995     A.U. after    6 cycles
 SCF Done:  E(RwB97XD) =  -2935.00334001     A.U. after    6 cycles
 SCF Done:  E(RwB97XD) =  -2935.00334005     A.U. after    6 cycles
 SCF Done:  E(RwB97XD) =  -2935.00334008     A.U. after    6 cycles
 SCF Done:  E(RwB97XD) =  -2935.00334011     A.U. after    6 cycles
 SCF Done:  E(RwB97XD) =  -2935.00334014     A.U. after    6 cycles
 SCF Done:  E(RwB97XD) =  -2935.00334016     A.U. after    6 cycles
 SCF Done:  E(RwB97XD) =  -2935.00334018     A.U. after    6 cycles
 Optimization completed.
    -- Stationary point found.
 Normal termination of Gaussian 16 at Fri Dec 13 10:34:22 2019.
 Gaussian 16:  ES64L-G16RevA.03 25-Dec-2016

 ----------------------------------------------------------------------
 # wB97XD/Def2TZVP Geom=Checkpoint iop(3/107=0120000000,3/108=012000000
 0) Sp
 ----------------------------------------------------------------------

 ---------
 cla-s0-sp
 ---------
 Structure from the checkpoint file:  "/home/padawan/israel-mol/amanda/reorganization_energy/tuning/chla/Gau-55128.chk"
 Charge =  1 Multiplicity = 2

                         Standard orientation:
 ---------------------------------------------------------------------
 Center     Atomic      Atomic             Coordinates (Angstroms)
 Number     Number       Type             X           Y           Z
 ---------------------------------------------------------------------
      1         12           0       -7.179082    0.469004    0.146357
      2          6           0       -4.715206   -1.893426    0.537673
      3          6           0       -4.992107    2.859985    1.155660
      4          6           0       -9.596264    2.787736   -0.312080
      5          6           0       -9.397529   -2.035450   -0.745051
      6          7           0       -5.124124    0.464063    0.733654
      7          6           0       -4.288194   -0.620555    0.799280
      8          6           0       -2.881988   -0.204331    1.170153
      9          6           0       -3.087943    1.246020    1.655680
     10          6           0       -4.480281    1.572545    1.142328
     11          6           0       -3.008051    1.383234    3.179558
     12          6           0       -1.923570   -0.319484   -0.025326
     13          6           0       -0.471698   -0.094946    0.375428
     14          6           0        0.487847   -0.165133   -0.791949
     15          8           0        0.172574   -0.273835   -1.947891
     16          8           0        1.756888   -0.080653   -0.368014
     17          7           0       -7.270569    2.474609    0.367868
     18          6           0       -6.276039    3.288740    0.786513
     19          6           0       -6.735055    4.665533    0.810144
     20          6           0       -8.036646    4.648113    0.384535
     21          6           0       -8.373311    3.255899    0.121021
     22          6           0       -5.922116    5.831007    1.264898
     23          6           0       -8.968811    5.759261    0.236249
     24          6           0       -8.663381    6.994344   -0.159633
     25          7           0       -9.156864    0.385940   -0.431050
     26          6           0       -9.977188    1.453202   -0.568039
     27          6           0      -11.284089    1.028714   -1.002934
     28          6           0      -11.230510   -0.336494   -1.118384
     29          6           0       -9.888180   -0.727735   -0.759263
     30          6           0      -12.440784    1.936530   -1.270621
     31          6           0      -12.315221   -1.261559   -1.577150
     32          6           0      -12.267972   -1.535764   -3.085617
     33          7           0       -7.123028   -1.523715   -0.068372
     34          6           0       -8.104166   -2.436766   -0.422529
     35          6           0       -7.568609   -3.775419   -0.400356
     36          6           0       -6.244126   -3.618937   -0.024227
     37          6           0       -6.029521   -2.235576    0.163268
     38          6           0       -8.303758   -5.035096   -0.710135
     39          6           0       -4.998343   -4.324763    0.244320
     40          8           0       -4.738880   -5.500380    0.218283
     41          6           0       -3.933409   -3.193368    0.593445
     42          6           0       -3.306084   -3.496148    1.938856
     43          8           0       -3.777176   -3.199165    3.005081
     44          8           0       -2.155280   -4.165302    1.790831
     45          6           0       -1.529782   -4.606274    2.996919
     46          6           0        2.777104   -0.134068   -1.389885
     47          6           0        4.103244   -0.114463   -0.711272
     48          6           0        5.110292    0.734258   -0.925639
     49          6           0        5.069902    1.879394   -1.900864
     50          6           0        6.412107    0.564855   -0.181697
     51          6           0        7.600441    0.204215   -1.083882
     52          6           0        8.883444   -0.025445   -0.287048
     53          6           0       10.146472   -0.259924   -1.128658
     54          6           0       10.031789   -1.519028   -1.990842
     55          6           0       11.379653   -0.299805   -0.214025
     56          6           0       12.728305   -0.330648   -0.932168
     57          6           0       13.908842   -0.262987    0.036044
     58          6           0       15.295423   -0.180632   -0.619128
     59          6           0       15.615362   -1.430579   -1.441951
     60          6           0       16.362288    0.087907    0.452338
     61          6           0       17.770086    0.360471   -0.076584
     62          6           0       18.741057    0.773055    1.029121
     63          6           0       20.204322    0.924706    0.592400
     64          6           0       20.388098    2.015833   -0.464410
     65          6           0       21.099103    1.193023    1.803913
     66          1           0       -4.311327    3.629297    1.495250
     67          1           0      -10.363239    3.533157   -0.476527
     68          1           0      -10.095082   -2.817704   -1.017065
     69          1           0       -2.511135   -0.833290    1.983260
     70          1           0       -2.359413    1.921916    1.202201
     71          1           0       -2.007020    1.127712    3.531873
     72          1           0       -3.232210    2.402274    3.496693
     73          1           0       -3.719677    0.711801    3.663201
     74          1           0       -2.015685   -1.306484   -0.479102
     75          1           0       -2.214691    0.395722   -0.797470
     76          1           0       -0.331299    0.880365    0.850026
     77          1           0       -0.154077   -0.832088    1.117103
     78          1           0       -5.273802    6.206319    0.468223
     79          1           0       -6.566334    6.652013    1.579842
     80          1           0       -5.281682    5.561936    2.106143
     81          1           0      -10.007701    5.539963    0.464395
     82          1           0       -9.425590    7.759259   -0.230774
     83          1           0       -7.658833    7.275395   -0.447866
     84          1           0      -12.224926    2.625866   -2.090690
     85          1           0      -13.332320    1.373239   -1.543480
     86          1           0      -12.687130    2.540459   -0.394059
     87          1           0      -12.249835   -2.207542   -1.034332
     88          1           0      -13.288057   -0.838261   -1.318295
     89          1           0      -13.067565   -2.216119   -3.383965
     90          1           0      -12.379584   -0.608933   -3.650193
     91          1           0      -11.314452   -1.983085   -3.370301
     92          1           0       -8.762163   -4.992549   -1.700591
     93          1           0       -7.629538   -5.888279   -0.679664
     94          1           0       -9.104789   -5.208392    0.012592
     95          1           0       -3.158417   -3.262056   -0.171956
     96          1           0       -1.273751   -3.757614    3.631147
     97          1           0       -2.191273   -5.274908    3.546446
     98          1           0       -0.631958   -5.133353    2.686439
     99          1           0        2.639659   -1.057375   -1.958299
    100          1           0        2.630548    0.695639   -2.079176
    101          1           0        4.244959   -0.906714    0.018054
    102          1           0        4.061964    2.131505   -2.223653
    103          1           0        5.514471    2.771061   -1.452407
    104          1           0        5.655052    1.649593   -2.794963
    105          1           0        6.643123    1.496893    0.347268
    106          1           0        6.297544   -0.208666    0.581245
    107          1           0        7.340944   -0.689801   -1.656085
    108          1           0        7.769809    1.002892   -1.812280
    109          1           0        9.052982    0.844249    0.356533
    110          1           0        8.742339   -0.878042    0.387624
    111          1           0       10.260527    0.600464   -1.800269
    112          1           0        9.175793   -1.469712   -2.664420
    113          1           0       10.917885   -1.664845   -2.608969
    114          1           0        9.912559   -2.405866   -1.361738
    115          1           0       11.354054    0.578549    0.439461
    116          1           0       11.302620   -1.170671    0.447801
    117          1           0       12.801132   -1.236554   -1.536796
    118          1           0       12.784979    0.512340   -1.630160
    119          1           0       13.779359    0.612185    0.681425
    120          1           0       13.881431   -1.134696    0.700701
    121          1           0       15.288457    0.679514   -1.300676
    122          1           0       15.635914   -2.317189   -0.801549
    123          1           0       14.873628   -1.599705   -2.223027
    124          1           0       16.585610   -1.350551   -1.932873
    125          1           0       16.043535    0.949605    1.048371
    126          1           0       16.393537   -0.762329    1.144036
    127          1           0       18.163502   -0.529414   -0.576473
    128          1           0       17.715826    1.143650   -0.838603
    129          1           0       18.404221    1.716962    1.474295
    130          1           0       18.694292    0.028061    1.830586
    131          1           0       20.517375   -0.028125    0.149298
    132          1           0       20.044266    2.982293   -0.084758
    133          1           0       21.440156    2.121350   -0.736523
    134          1           0       19.832520    1.798167   -1.377318
    135          1           0       21.004478    0.401798    2.550422
    136          1           0       22.149750    1.257483    1.514012
    137          1           0       20.828332    2.137670    2.283671
 ---------------------------------------------------------------------

 SCF Done:  E(UwB97XD) =  -2934.78016139     A.U. after   26 cycles

 Alpha virt. eigenvalues --    1.90722   1.90799   1.91216   1.91562   1.91728
 Alpha virt. eigenvalues --    1.91869   1.92257   1.92397   1.92882   1.93103
 Alpha virt. eigenvalues --    1.93322   1.93618   1.93768   1.93920   1.94503

  Beta  occ. eigenvalues --  -46.98183 -19.34336 -19.32033 -19.30050 -19.28398
  Beta  occ. eigenvalues --  -19.26493 -14.52403 -14.50518 -14.50304 -14.50227
  Beta  occ. eigenvalues --  -10.46435 -10.44514 -10.44338 -10.42210 -10.42021
  Beta  occ. eigenvalues --  -10.41527 -10.41463 -10.41292 -10.41104 -10.41093
  Beta  occ. eigenvalues --  -10.40362 -10.39682 -10.38209 -10.37580 -10.37420
  Beta  occ. eigenvalues --  -10.37379 -10.37297 -10.37209 -10.37087 -10.37058
  Beta  occ. eigenvalues --  -10.36880 -10.36857 -10.36685 -10.36248 -10.36203
  Beta  occ. eigenvalues --  -10.36024 -10.35614 -10.34973 -10.34796 -10.34734
  Beta  occ. eigenvalues --  -10.34555 -10.34463 -10.34442 -10.34394 -10.34012
  Beta  occ. eigenvalues --  -10.32757 -10.31196 -10.29297 -10.29281 -10.29156
  Beta  occ. eigenvalues --  -10.28436 -10.28228 -10.27693 -10.27146 -10.26887
  Beta  occ. eigenvalues --  -10.26764 -10.26637 -10.26491 -10.26351 -10.26001
  Beta  occ. eigenvalues --  -10.25908 -10.25757 -10.25495 -10.25054 -10.25012
  Beta  occ. eigenvalues --   -3.24412  -1.97936  -1.97367  -1.97305  -1.25676
  Beta  occ. eigenvalues --   -1.23456  -1.20480  -1.16755  -1.15272  -1.14714
  Beta  occ. eigenvalues --   -1.14241  -1.13928  -1.13089  -1.02137  -0.98845
  Beta  occ. eigenvalues --   -0.98387  -0.98049  -0.97512  -0.97441  -0.97191
  Beta  occ. eigenvalues --   -0.94386  -0.94039  -0.92832  -0.92413  -0.91702
  Beta  occ. eigenvalues --   -0.91480  -0.90580  -0.90258  -0.89815  -0.89010
  Beta  occ. eigenvalues --   -0.88175  -0.87334  -0.86553  -0.86095  -0.85261
  Beta  occ. eigenvalues --   -0.84504  -0.84437  -0.83486  -0.82593  -0.81460
  Beta  occ. eigenvalues --   -0.81292  -0.79763  -0.78539  -0.78299  -0.77978
  Beta  occ. eigenvalues --   -0.76715  -0.76433  -0.76046  -0.75807  -0.75410
  Beta  occ. eigenvalues --   -0.75136  -0.74051  -0.74017  -0.71237  -0.70899
  Beta  occ. eigenvalues --   -0.69945  -0.69672  -0.69223  -0.69084  -0.68639
  Beta  occ. eigenvalues --   -0.68189  -0.67931  -0.67751  -0.66105  -0.66073
  Beta  occ. eigenvalues --   -0.65635  -0.65164  -0.65068  -0.64214  -0.64068
  Beta  occ. eigenvalues --   -0.63789  -0.63246  -0.63091  -0.62616  -0.62422
  Beta  occ. eigenvalues --   -0.61907  -0.61300  -0.60898  -0.60741  -0.60732
  Beta  occ. eigenvalues --   -0.60418  -0.59983  -0.59745  -0.59568  -0.59350
  Beta  occ. eigenvalues --   -0.59078  -0.58748  -0.58478  -0.57967  -0.57567
  Beta  occ. eigenvalues --   -0.57402  -0.57291  -0.56845  -0.56387  -0.56195
  Beta  occ. eigenvalues --   -0.56015  -0.55988  -0.55718  -0.55497  -0.55376
  Beta  occ. eigenvalues --   -0.55248  -0.55051  -0.54933  -0.54814  -0.54713
  Beta  occ. eigenvalues --   -0.54303  -0.54086  -0.53660  -0.53643  -0.53447
  Beta  occ. eigenvalues --   -0.53265  -0.53182  -0.53118  -0.52684  -0.52432
  Beta  occ. eigenvalues --   -0.52270  -0.52029  -0.51919  -0.51831  -0.51559
  Beta  occ. eigenvalues --   -0.51373  -0.51137  -0.50969  -0.50481  -0.49991
  Beta  occ. eigenvalues --   -0.49783  -0.49547  -0.49365  -0.49346  -0.49112
  Beta  occ. eigenvalues --   -0.49022  -0.48916  -0.48453  -0.48061  -0.47944
  Beta  occ. eigenvalues --   -0.47796  -0.47614  -0.47551  -0.47042  -0.46808
  Beta  occ. eigenvalues --   -0.46310  -0.46144  -0.45832  -0.45690  -0.45468
  Beta  occ. eigenvalues --   -0.44769  -0.44639  -0.44159  -0.44116  -0.43567
  Beta  occ. eigenvalues --   -0.43428  -0.43278  -0.42813  -0.42244  -0.42162
  Beta  occ. eigenvalues --   -0.42116  -0.41927  -0.41555  -0.41458  -0.41260
  Beta  occ. eigenvalues --   -0.40746  -0.40214  -0.40072  -0.40013  -0.39798
  Beta  occ. eigenvalues --   -0.39696  -0.39573  -0.39314  -0.38864  -0.38808
  Beta  occ. eigenvalues --   -0.38480  -0.38414  -0.36427  -0.35843  -0.34698
  Beta virt. eigenvalues --   -0.22235  -0.15714  -0.12932  -0.08564  -0.05808
  Beta virt. eigenvalues --   -0.03674  -0.03254  -0.03065  -0.02854  -0.01265
  Beta virt. eigenvalues --   -0.00433   0.00546   0.00975   0.01108   0.01350

 Mulliken charges and spin densities:
               1          2
     1  Mg   0.844100   0.006490
     2  C   -0.222349  -0.022613
     3  C   -0.485530  -0.006157
     4  C   -0.356140  -0.108158
     5  C   -0.331853  -0.155130
     6  N   -0.470254  -0.033499
     7  C    0.383255   0.149686
     8  C   -0.015928  -0.005616
     9  C    0.054105  -0.006135
    10  C    0.243131   0.125429
    11  C   -0.380651   0.009165
    12  C   -0.290396   0.013454
    13  C   -0.213905   0.000839
    14  C    0.367756   0.000226
    15  O   -0.379042   0.000039
    16  O   -0.281121   0.000028
    17  N   -0.446938  -0.042679
    18  C    0.365359   0.098909
    19  C   -0.007983   0.046030
    20  C    0.017580  -0.015364
    21  C    0.325928   0.178333
    22  C   -0.407588  -0.001897
    23  C   -0.174476   0.001911
    24  C   -0.264449   0.004341
    25  N   -0.440433  -0.087894
    26  C    0.280214   0.178964
    27  C   -0.010797   0.052018
    28  C   -0.057537  -0.006384
    29  C    0.390716   0.228181
    30  C   -0.366134  -0.001546
    31  C   -0.254417   0.000109
    32  C   -0.318385   0.001676
    33  N   -0.463424  -0.058988
    34  C    0.277784   0.215770
    35  C   -0.052204   0.042647
    36  C   -0.071841   0.032139
    37  C    0.260819   0.115892
    38  C   -0.391377   0.000760
    39  C    0.201759  -0.012636
    40  O   -0.298390   0.024814
    41  C    0.027497   0.002673
    42  C    0.332444  -0.001116
    43  O   -0.366056   0.000858
    44  O   -0.276013  -0.000053
    45  C   -0.183790  -0.000028
    46  C   -0.018990   0.000044
    47  C   -0.164287   0.000002
    48  C    0.030603   0.000021
    49  C   -0.349830  -0.000001
    50  C   -0.152940   0.000001
    51  C   -0.253472   0.000000
    52  C   -0.180668   0.000000
    53  C    0.045894  -0.000000
    54  C   -0.390747  -0.000000
    55  C   -0.179389   0.000000
    56  C   -0.225082   0.000000
    57  C   -0.181487   0.000000
    58  C    0.050883  -0.000000
    59  C   -0.390713   0.000000
    60  C   -0.177728   0.000000
    61  C   -0.227286  -0.000000
    62  C   -0.183868   0.000000
    63  C    0.009529  -0.000000
    64  C   -0.359196   0.000000
    65  C   -0.321413  -0.000000
    66  H    0.149077   0.000175
    67  H    0.165322   0.003083
    68  H    0.172260   0.004705
    69  H    0.152469   0.006462
    70  H    0.105389   0.004978
    71  H    0.141263   0.000905
    72  H    0.128291  -0.000031
    73  H    0.142743  -0.000303
    74  H    0.135921  -0.000428
    75  H    0.130584  -0.000516
    76  H    0.126620   0.000016
    77  H    0.132985   0.000049
    78  H    0.164649   0.004112
    79  H    0.169099   0.000460
    80  H    0.134395   0.001268
    81  H    0.132136  -0.000165
    82  H    0.153447  -0.000205
    83  H    0.161773  -0.000073
    84  H    0.153934   0.003703
    85  H    0.135608  -0.000250
    86  H    0.147138   0.003041
    87  H    0.112413   0.000012
    88  H    0.125381  -0.000011
    89  H    0.137266   0.000447
    90  H    0.122999  -0.000033
    91  H    0.113670   0.000147
    92  H    0.147084   0.002490
    93  H    0.178756  -0.000337
    94  H    0.155668   0.003368
    95  H    0.122163  -0.002619
    96  H    0.125048   0.000001
    97  H    0.143713  -0.000001
    98  H    0.143735  -0.000007
    99  H    0.123756  -0.000000
   100  H    0.099416  -0.000003
   101  H    0.107485  -0.000000
   102  H    0.106253   0.000000
   103  H    0.124734   0.000001
   104  H    0.144778   0.000001
   105  H    0.107441   0.000002
   106  H    0.096989  -0.000000
   107  H    0.110780   0.000000
   108  H    0.100714  -0.000000
   109  H    0.088373  -0.000000
   110  H    0.091635   0.000000
   111  H    0.053305   0.000000
   112  H    0.116222  -0.000000
   113  H    0.124672   0.000000
   114  H    0.102762   0.000000
   115  H    0.086132   0.000000
   116  H    0.088227  -0.000000
   117  H    0.099537   0.000000
   118  H    0.084545  -0.000000
   119  H    0.085697  -0.000000
   120  H    0.087445   0.000000
   121  H    0.051255   0.000000
   122  H    0.102082   0.000000
   123  H    0.115577  -0.000000
   124  H    0.123826  -0.000000
   125  H    0.085320   0.000000
   126  H    0.088618  -0.000000
   127  H    0.093229   0.000000
   128  H    0.094987   0.000000
   129  H    0.087261   0.000000
   130  H    0.086011  -0.000000
   131  H    0.055704   0.000000
   132  H    0.099931   0.000000
   133  H    0.112567  -0.000000
   134  H    0.117547  -0.000000
   135  H    0.107277   0.000000
   136  H    0.112477  -0.000000
   137  H    0.099575   0.000000
 Sum of Mulliken charges =   1.00000   1.00000

 Dipole moment (field-independent basis, Debye):
    X=            -31.0865    Y=              5.7918    Z=              0.6508  Tot=             31.6281
 Quadrupole moment (field-independent basis, Debye-Ang):
   XX=            -19.0271   YY=           -323.6086   ZZ=           -387.2149
   XY=            -34.2470   XZ=             22.0797   YZ=              4.3307

 Normal termination of Gaussian 16 at Fri Dec 13 20:07:44 2019.
