 Gaussian 09, Revision D.01,
 Gaussian 09:  ES64L-G09RevD.01 24-Apr-2013

 -------------------------------------
 # td=(NStates=1) CAM-B3LYP/6-31G(d,p)
 -------------------------------------

 --
 TD
 --
 Symbolic Z-matrix:
 Charge =  0 Multiplicity = 1

                         Standard orientation:
 ---------------------------------------------------------------------
 Center     Atomic      Atomic             Coordinates (Angstroms)
 Number     Number       Type             X           Y           Z
 ---------------------------------------------------------------------
      1         12           0       -7.176955    0.600955    0.146466
      2          6           0       -4.832020   -1.928866    0.422505
      3          6           0       -4.721265    2.804409    1.148791
      4          6           0       -9.454271    3.073052   -0.312343
      5          6           0       -9.552927   -1.755800   -0.854545
      6          7           0       -5.161053    0.478199    0.582162
      7          6           0       -4.381475   -0.708818    0.747518
      8          6           0       -2.970129   -0.410669    1.210608
      9          6           0       -3.051414    1.056847    1.709266
     10          6           0       -4.470402    1.463772    1.087398
     11          6           0       -2.987557    1.216019    3.198934
     12          6           0       -1.882841   -0.698827    0.097148
     13          6           0       -0.512645   -0.574608    0.771837
     14          6           0        0.540165   -0.796672   -0.440545
     15          8           0        0.230808   -1.030211   -1.530675
     16          8           0        1.736382   -0.382569   -0.149769
     17          7           0       -7.050349    2.613760    0.329099
     18          6           0       -5.994567    3.353622    0.772601
     19          6           0       -6.377528    4.838938    0.718963
     20          6           0       -7.727243    4.848022    0.381788
     21          6           0       -8.122955    3.447345    0.037071
     22          6           0       -5.549664    5.958623    1.324808
     23          6           0       -8.605195    5.989703    0.214876
     24          6           0       -8.214484    7.370152    0.194092
     25          7           0       -9.157940    0.670952   -0.554168
     26          6           0       -9.945893    1.674352   -0.513355
     27          6           0      -11.279908    1.474253   -1.030912
     28          6           0      -11.272306    0.054398   -1.281724
     29          6           0       -9.987326   -0.386001   -0.985044
     30          6           0      -12.260714    2.632511   -1.210957
     31          6           0      -12.369576   -0.709343   -1.799223
     32          6           0      -12.460340   -1.107934   -3.269817
     33          7           0       -7.192459   -1.343906   -0.077700
     34          6           0       -8.334494   -2.229406   -0.500447
     35          6           0       -7.814897   -3.603837   -0.542291
     36          6           0       -6.504344   -3.523247   -0.091587
     37          6           0       -6.246479   -2.200085    0.040332
     38          6           0       -8.609197   -4.821003   -0.884889
     39          6           0       -5.335482   -4.355013    0.184644
     40          8           0       -5.223885   -5.509705    0.204690
     41          6           0       -4.148229   -3.257045    0.469531
     42          6           0       -3.484582   -3.591844    1.736277
     43          8           0       -3.705487   -3.085605    2.862653
     44          8           0       -2.776328   -4.673473    1.648313
     45          6           0       -2.093450   -5.214470    2.807724
     46          6           0        2.798088   -0.670480   -1.168671
     47          6           0        4.168435   -0.526739   -0.542939
     48          6           0        5.179535    0.259847   -0.979018
     49          6           0        5.139547    1.135523   -2.161156
     50          6           0        6.445421    0.221948   -0.167402
     51          6           0        7.738899   -0.375241   -0.951720
     52          6           0        8.919759   -0.274219   -0.036462
     53          6           0       10.208625   -0.573799   -0.754200
     54          6           0       10.062789   -1.970201   -1.279923
     55          6           0       11.498212   -0.354272    0.126959
     56          6           0       12.848750   -0.356984   -0.581127
     57          6           0       13.940965   -0.002963    0.191455
     58          6           0       15.277020   -0.035912   -0.572321
     59          6           0       15.703201   -1.517471   -0.750278
     60          6           0       16.439685    0.480951    0.334103
     61          6           0       17.850673    0.647593   -0.250169
     62          6           0       18.849253    1.284253    0.638734
     63          6           0       20.201750    1.368779    0.070319
     64          6           0       20.382226    2.171900   -1.196320
     65          6           0       21.135339    1.774560    1.268599
     66          1           0       -3.910212    3.476908    1.231173
     67          1           0      -10.159978    3.918411   -0.398965
     68          1           0      -10.323854   -2.619671   -1.124763
     69          1           0       -2.975531   -1.144289    2.021334
     70          1           0       -2.271022    1.958504    1.051036
     71          1           0       -2.002385    0.926198    3.644855
     72          1           0       -3.145958    2.225735    3.581096
     73          1           0       -3.797307    0.635706    3.562824
     74          1           0       -2.088152   -1.712477   -0.274366
     75          1           0       -1.963025    0.047935   -0.612263
     76          1           0       -0.114026    0.343816    1.042658
     77          1           0       -0.238218   -1.213701    1.654831
     78          1           0       -5.005039    6.453649    0.658418
     79          1           0       -6.234981    6.792472    1.693270
     80          1           0       -5.062773    5.265926    2.202685
     81          1           0       -9.632650    5.555955    0.307162
     82          1           0       -8.893976    8.106423    0.200002
     83          1           0       -7.229217    7.765009    0.267476
     84          1           0      -12.230125    3.124879   -2.198857
     85          1           0      -13.326043    2.067639   -1.334535
     86          1           0      -12.159729    3.147439   -0.363723
     87          1           0      -12.317327   -1.632444   -1.096739
     88          1           0      -13.381076   -0.189957   -1.342660
     89          1           0      -13.495066   -1.392080   -3.534208
     90          1           0      -12.451175   -0.101689   -3.993270
     91          1           0      -11.603887   -1.782466   -3.567139
     92          1           0       -8.750133   -4.915373   -2.048234
     93          1           0       -8.012383   -5.792447   -0.639387
     94          1           0       -9.678449   -4.649283   -0.477504
     95          1           0       -3.541855   -3.519240   -0.347431
     96          1           0       -1.362278   -4.622006    3.268160
     97          1           0       -3.040339   -5.433852    3.461416
     98          1           0       -1.707690   -6.239264    2.434757
     99          1           0        2.561960   -1.552864   -1.350473
    100          1           0        2.650313   -0.013426   -2.079357
    101          1           0        4.422370   -1.073440    0.375667
    102          1           0        4.057105    1.207369   -2.411855
    103          1           0        5.646532    2.008093   -2.078600
    104          1           0        5.710080    0.649137   -2.786754
    105          1           0        6.510897    1.208453    0.490657
    106          1           0        6.232186   -0.428462    0.717903
    107          1           0        7.570957   -1.459275   -1.126423
    108          1           0        7.856030    0.292499   -1.903039
    109          1           0        9.278024    0.710435    0.524232
    110          1           0        8.695411   -0.915111    0.743116
    111          1           0       10.334180    0.294375   -1.597235
    112          1           0        9.152361   -2.218515   -1.955514
    113          1           0       10.936294   -2.200902   -1.808386
    114          1           0        9.905870   -2.615845   -0.465623
    115          1           0       11.288476    0.643563    0.589386
    116          1           0       11.564346   -0.923314    1.046765
    117          1           0       13.021921   -1.400233   -1.067272
    118          1           0       12.718557    0.167268   -1.530724
    119          1           0       13.909222    1.054563    0.579316
    120          1           0       14.097505   -0.825804    0.886591
    121          1           0       15.221560    0.185245   -1.572208
    122          1           0       15.621819   -2.101369    0.066446
    123          1           0       15.127495   -2.069789   -1.525709
    124          1           0       16.671481   -1.563392   -1.052605
    125          1           0       16.039727    1.465366    0.573770
    126          1           0       16.608269   -0.081083    1.412115
    127          1           0       18.481965   -0.270694   -0.480643
    128          1           0       17.747247    1.214143   -1.168766
    129          1           0       18.669324    2.377534    0.902042
    130          1           0       19.024759    0.696302    1.487962
    131          1           0       20.562460    0.440397   -0.136742
    132          1           0       20.063767    3.215418   -0.989791
    133          1           0       21.481324    2.364313   -1.376518
    134          1           0       19.776248    1.916025   -2.133074
    135          1           0       21.295385    0.972390    2.053622
    136          1           0       22.015009    1.921615    0.729226
    137          1           0       20.906333    2.747062    1.709363
 ---------------------------------------------------------------------

 SCF Done:  E(RCAM-B3LYP) =  -2932.64990773     A.U. after   17 cycles

 Excitation energies and oscillator strengths:

 Excited State   1:      Singlet-A      2.2274 eV  556.63 nm  f=0.1998  <S**2>=0.000
     240 -> 243        0.24904
     241 -> 242        0.64598
 This state for optimization and/or second-order correction.
 Total Energy, E(TD-HF/TD-KS) =  -2932.56805194
 Copying the excited state density for this state as the 1-particle RhoCI density.

 The electronic state is 1-A.
 Alpha  occ. eigenvalues --  -46.83541 -19.26234 -19.24549 -19.21778 -19.19256
 Alpha  occ. eigenvalues --  -19.19019 -14.40642 -14.39602 -14.39398 -14.38800
 Alpha  occ. eigenvalues --  -10.38440 -10.37040 -10.35757 -10.32507 -10.31024
 Alpha  occ. eigenvalues --  -10.30864 -10.30224 -10.29905 -10.29547 -10.29544
 Alpha  occ. eigenvalues --  -10.29483 -10.29171 -10.29056 -10.28670 -10.28649
 Alpha  occ. eigenvalues --  -10.28492 -10.28125 -10.27840 -10.27692 -10.27559
 Alpha  occ. eigenvalues --  -10.27469 -10.27405 -10.27381 -10.27250 -10.27208
 Alpha  occ. eigenvalues --  -10.27055 -10.26879 -10.26857 -10.26622 -10.26616
 Alpha  occ. eigenvalues --  -10.26484 -10.26284 -10.26087 -10.26036 -10.26003
 Alpha  occ. eigenvalues --  -10.25678 -10.25606 -10.25471 -10.25352 -10.25251
 Alpha  occ. eigenvalues --  -10.25174 -10.25077 -10.24962 -10.24921 -10.24880
 Alpha  occ. eigenvalues --  -10.24735 -10.24554 -10.24470 -10.24387 -10.24223
 Alpha  occ. eigenvalues --  -10.23992 -10.23929 -10.23901 -10.23586 -10.21856
 Alpha  occ. eigenvalues --   -3.12770  -1.87461  -1.87012  -1.86970  -1.19364
 Alpha  occ. eigenvalues --   -1.18989  -1.15271  -1.09390  -1.06315  -1.04546
 Alpha  occ. eigenvalues --   -1.03777  -1.03136  -1.01717  -0.92219  -0.92167
 Alpha  occ. eigenvalues --   -0.91578  -0.90934  -0.89829  -0.89016  -0.88934
 Alpha  occ. eigenvalues --   -0.88370  -0.88183  -0.86776  -0.86697  -0.85850
 Alpha  occ. eigenvalues --   -0.85045  -0.84294  -0.83448  -0.82961  -0.82341
 Alpha  occ. eigenvalues --   -0.81929  -0.81183  -0.80941  -0.80414  -0.78181
 Alpha  occ. eigenvalues --   -0.78022  -0.77364  -0.76792  -0.76185  -0.76153
 Alpha  occ. eigenvalues --   -0.76005  -0.75165  -0.74349  -0.73163  -0.71762
 Alpha  occ. eigenvalues --   -0.70756  -0.70330  -0.69713  -0.69491  -0.68821
 Alpha  occ. eigenvalues --   -0.67089  -0.66803  -0.64692  -0.64354  -0.64195
 Alpha  occ. eigenvalues --   -0.63866  -0.63448  -0.63182  -0.62668  -0.62405
 Alpha  occ. eigenvalues --   -0.61745  -0.59777  -0.59586  -0.59283  -0.58912
 Alpha  occ. eigenvalues --   -0.58313  -0.57859  -0.57475  -0.57232  -0.56662
 Alpha  occ. eigenvalues --   -0.55795  -0.55494  -0.55365  -0.54899  -0.54474
 Alpha  occ. eigenvalues --   -0.54049  -0.53840  -0.53609  -0.53337  -0.53135
 Alpha  occ. eigenvalues --   -0.52876  -0.52709  -0.52326  -0.52051  -0.51887
 Alpha  occ. eigenvalues --   -0.51510  -0.51317  -0.51168  -0.50997  -0.50874
 Alpha  occ. eigenvalues --   -0.50743  -0.50430  -0.50259  -0.50128  -0.49550
 Alpha  occ. eigenvalues --   -0.49406  -0.49124  -0.48983  -0.48685  -0.48538
 Alpha  occ. eigenvalues --   -0.48384  -0.48031  -0.47882  -0.47769  -0.47526
 Alpha  occ. eigenvalues --   -0.46949  -0.46935  -0.46859  -0.46655  -0.46386
 Alpha  occ. eigenvalues --   -0.46219  -0.46058  -0.45907  -0.45708  -0.45405
 Alpha  occ. eigenvalues --   -0.45217  -0.45161  -0.44919  -0.44484  -0.44337
 Alpha  occ. eigenvalues --   -0.44155  -0.43949  -0.43869  -0.43818  -0.43629
 Alpha  occ. eigenvalues --   -0.43352  -0.42989  -0.42810  -0.42634  -0.42377
 Alpha  occ. eigenvalues --   -0.42323  -0.42068  -0.41884  -0.41845  -0.41142
 Alpha  occ. eigenvalues --   -0.41063  -0.40981  -0.40362  -0.40296  -0.40076
 Alpha  occ. eigenvalues --   -0.39745  -0.39617  -0.39359  -0.39123  -0.39120
 Alpha  occ. eigenvalues --   -0.38696  -0.38069  -0.37958  -0.37741  -0.37727
 Alpha  occ. eigenvalues --   -0.37495  -0.37073  -0.36676  -0.36536  -0.36518
 Alpha  occ. eigenvalues --   -0.36245  -0.35903  -0.35655  -0.35510  -0.35365
 Alpha  occ. eigenvalues --   -0.34702  -0.34655  -0.34417  -0.33767  -0.33078
 Alpha  occ. eigenvalues --   -0.32475  -0.32100  -0.31423  -0.30920  -0.30085
 Alpha  occ. eigenvalues --   -0.29745  -0.29430  -0.27189  -0.26768  -0.23334
 Alpha  occ. eigenvalues --   -0.21333
 Alpha virt. eigenvalues --   -0.05426  -0.03124   0.02366   0.03666   0.05945
 Alpha virt. eigenvalues --    0.06089   0.06199   0.07133   0.07680   0.08646
 Alpha virt. eigenvalues --    0.10031   0.10433   0.11200   0.11649   0.11831

 Mulliken charges:
               1
     1  Mg   0.816085
     2  C    0.062500
     3  C   -0.219517
     4  C   -0.192515
     5  C   -0.181361
     6  N   -0.635439
     7  C    0.257260
     8  C   -0.177082
     9  C   -0.124955
    10  C    0.374344
    11  C   -0.299488
    12  C   -0.136527
    13  C   -0.277750
    14  C    0.551144
    15  O   -0.446354
    16  O   -0.479356
    17  N   -0.707820
    18  C    0.305739
    19  C   -0.021717
    20  C    0.012904
    21  C    0.317172
    22  C   -0.356488
    23  C   -0.071859
    24  C   -0.254254
    25  N   -0.647809
    26  C    0.299132
    27  C   -0.003955
    28  C    0.043838
    29  C    0.241133
    30  C   -0.347177
    31  C   -0.256191
    32  C   -0.287975
    33  N   -0.724252
    34  C    0.229140
    35  C    0.040616
    36  C    0.020632
    37  C    0.339233
    38  C   -0.388863
    39  C    0.358290
    40  O   -0.407557
    41  C   -0.346305
    42  C    0.620034
    43  O   -0.528414
    44  O   -0.430451
    45  C   -0.080253
    46  C    0.040341
    47  C   -0.149451
    48  C    0.112218
    49  C   -0.341635
    50  C   -0.247478
    51  C   -0.182532
    52  C   -0.152676
    53  C   -0.051419
    54  C   -0.312084
    55  C   -0.183155
    56  C   -0.177048
    57  C   -0.137894
    58  C   -0.088125
    59  C   -0.328189
    60  C   -0.161038
    61  C   -0.172611
    62  C   -0.137035
    63  C   -0.074228
    64  C   -0.320139
    65  C   -0.326319
    66  H    0.090295
    67  H    0.088282
    68  H    0.095328
    69  H    0.147881
    70  H    0.045708
    71  H    0.109881
    72  H    0.109956
    73  H    0.130093
    74  H    0.120525
    75  H    0.128097
    76  H    0.145642
    77  H    0.119649
    78  H    0.137304
    79  H    0.113284
    80  H    0.110994
    81  H    0.091410
    82  H    0.110577
    83  H    0.107053
    84  H    0.131160
    85  H    0.084432
    86  H    0.132292
    87  H    0.090953
    88  H    0.083780
    89  H    0.118207
    90  H    0.079730
    91  H    0.114724
    92  H    0.122675
    93  H    0.148557
    94  H    0.122647
    95  H    0.166078
    96  H    0.142597
    97  H    0.135218
    98  H    0.125738
    99  H    0.124135
   100  H    0.118882
   101  H    0.084990
   102  H    0.106397
   103  H    0.122585
   104  H    0.137486
   105  H    0.097324
   106  H    0.091203
   107  H    0.119937
   108  H    0.089131
   109  H    0.068259
   110  H    0.101244
   111  H    0.060090
   112  H    0.090013
   113  H    0.103544
   114  H    0.110044
   115  H    0.080110
   116  H    0.088036
   117  H    0.082193
   118  H    0.086463
   119  H    0.083723
   120  H    0.100973
   121  H    0.097845
   122  H    0.105666
   123  H    0.078083
   124  H    0.108754
   125  H    0.087416
   126  H    0.068770
   127  H    0.083011
   128  H    0.092094
   129  H    0.071466
   130  H    0.093241
   131  H    0.095984
   132  H    0.094038
   133  H    0.096698
   134  H    0.107080
   135  H    0.101627
   136  H    0.101076
   137  H    0.102623
 Sum of Mulliken charges =   0.00000

 Dipole moment (field-independent basis, Debye):
    X=              3.5094    Y=              1.9193    Z=             -0.0324  Tot=              4.0001
 Quadrupole moment (field-independent basis, Debye-Ang):
   XX=           -332.5865   YY=           -382.6574   ZZ=           -399.0124
   XY=            -11.2804   XZ=              8.0577   YZ=             -0.1626

 Normal termination of Gaussian 09 at Wed Jun 26 23:11:49 2019.
