 Gaussian 09, Revision D.01,
 Gaussian 09:  ES64L-G09RevD.01 24-Apr-2013

 -------------------------------------
 # td=(NStates=1) CAM-B3LYP/6-31G(d,p)
 -------------------------------------

 --
 TD
 --
 Symbolic Z-matrix:
 Charge =  0 Multiplicity = 1

                         Standard orientation:
 ---------------------------------------------------------------------
 Center     Atomic      Atomic             Coordinates (Angstroms)
 Number     Number       Type             X           Y           Z
 ---------------------------------------------------------------------
      1         12           0       -7.147825    0.580533    0.051363
      2          6           0       -4.803812   -1.961217    0.583399
      3          6           0       -4.742593    2.916443    1.017223
      4          6           0       -9.487246    3.148383   -0.420231
      5          6           0       -9.485133   -1.810241   -0.893656
      6          7           0       -5.057314    0.498436    0.737004
      7          6           0       -4.348133   -0.663896    0.816477
      8          6           0       -2.861082   -0.421435    1.316342
      9          6           0       -3.015776    1.156435    1.643809
     10          6           0       -4.385142    1.557058    1.130278
     11          6           0       -2.846786    1.428322    3.108458
     12          6           0       -1.937688   -0.527140    0.099961
     13          6           0       -0.454678   -0.530563    0.566601
     14          6           0        0.552086   -0.752223   -0.600359
     15          8           0        0.293947   -1.064248   -1.702558
     16          8           0        1.775427   -0.544938   -0.142835
     17          7           0       -7.080448    2.596939    0.276845
     18          6           0       -6.026616    3.314822    0.679303
     19          6           0       -6.391768    4.758688    0.779512
     20          6           0       -7.799656    4.780288    0.492780
     21          6           0       -8.181659    3.501525    0.100200
     22          6           0       -5.614647    5.905598    1.436111
     23          6           0       -8.652945    5.978455    0.393900
     24          6           0       -8.229877    7.233839    0.211380
     25          7           0       -9.177148    0.668524   -0.484373
     26          6           0       -9.959764    1.783482   -0.618711
     27          6           0      -11.257731    1.446267   -1.133110
     28          6           0      -11.221346    0.013247   -1.264496
     29          6           0       -9.990129   -0.333965   -0.823082
     30          6           0      -12.228378    2.543550   -1.506968
     31          6           0      -12.350189   -0.776254   -1.764238
     32          6           0      -12.219430   -1.133851   -3.312713
     33          7           0       -7.124758   -1.404731   -0.253703
     34          6           0       -8.231669   -2.223888   -0.621105
     35          6           0       -7.789840   -3.622773   -0.642408
     36          6           0       -6.494024   -3.582147   -0.155430
     37          6           0       -6.101141   -2.181042   -0.013316
     38          6           0       -8.520440   -4.962244   -0.991143
     39          6           0       -5.320015   -4.428222    0.319115
     40          8           0       -5.160335   -5.565503    0.274700
     41          6           0       -4.189715   -3.269749    0.675441
     42          6           0       -3.624796   -3.601413    1.966801
     43          8           0       -3.793891   -3.027559    3.060510
     44          8           0       -2.707450   -4.548571    1.929394
     45          6           0       -2.023852   -4.971035    2.993054
     46          6           0        2.834265   -0.670567   -1.129366
     47          6           0        4.153577   -0.479165   -0.440697
     48          6           0        5.059271    0.314202   -0.888079
     49          6           0        4.929952    0.978187   -2.273552
     50          6           0        6.398684    0.465678   -0.199874
     51          6           0        7.623816   -0.231157   -1.014641
     52          6           0        8.810290   -0.219080   -0.146922
     53          6           0       10.071568   -0.849267   -0.751745
     54          6           0       10.047597   -2.360736   -1.092649
     55          6           0       11.423510   -0.471215    0.081587
     56          6           0       12.739635   -0.682240   -0.668074
     57          6           0       13.891644   -0.104539    0.203663
     58          6           0       15.258476   -0.183795   -0.466597
     59          6           0       15.698177   -1.631036   -0.836550
     60          6           0       16.403161    0.539963    0.367457
     61          6           0       17.828450    0.544319   -0.179524
     62          6           0       18.777681    1.468937    0.599772
     63          6           0       20.280976    1.506618    0.069935
     64          6           0       20.308678    2.202403   -1.189158
     65          6           0       21.120663    2.149165    1.093159
     66          1           0       -4.056861    3.557402    1.202986
     67          1           0      -10.301882    3.908508   -0.598716
     68          1           0      -10.409617   -2.327196   -1.317795
     69          1           0       -2.303314   -0.884787    1.988652
     70          1           0       -2.240123    1.730361    1.105062
     71          1           0       -1.927413    1.017489    3.559234
     72          1           0       -2.821081    2.566962    3.269872
     73          1           0       -3.687626    0.915792    3.777654
     74          1           0       -2.274689   -1.601492   -0.297965
     75          1           0       -2.200146    0.151050   -0.720127
     76          1           0       -0.310350    0.296387    1.263932
     77          1           0       -0.172592   -1.391050    1.204884
     78          1           0       -4.975814    6.553530    0.663574
     79          1           0       -6.013137    6.695212    1.892716
     80          1           0       -5.063341    5.523792    2.110854
     81          1           0       -9.695181    5.705330    0.446678
     82          1           0       -9.082214    7.946656    0.264316
     83          1           0       -7.079271    7.354896   -0.007511
     84          1           0      -11.912729    3.400224   -2.230261
     85          1           0      -13.115681    1.975872   -2.019754
     86          1           0      -12.498668    3.107012   -0.599263
     87          1           0      -12.444415   -1.749858   -1.315546
     88          1           0      -13.427314   -0.177018   -1.465058
     89          1           0      -13.203709   -1.819040   -3.695410
     90          1           0      -12.115209   -0.039178   -3.761920
     91          1           0      -11.313202   -1.908273   -3.425706
     92          1           0       -9.277252   -4.739337   -1.838384
     93          1           0       -7.987823   -5.738027   -0.973486
     94          1           0       -9.310529   -5.066515   -0.203477
     95          1           0       -3.457000   -3.295486   -0.233434
     96          1           0       -1.475387   -4.278974    3.587087
     97          1           0       -2.742701   -5.305938    3.726851
     98          1           0       -1.422125   -5.667332    2.929866
     99          1           0        2.694937   -1.636365   -1.724443
    100          1           0        2.656887    0.151592   -1.842697
    101          1           0        4.234405   -1.038795    0.387627
    102          1           0        3.949932    1.286545   -2.621877
    103          1           0        5.542369    1.936347   -2.105892
    104          1           0        5.569735    0.515458   -3.008080
    105          1           0        6.677968    1.553346   -0.114110
    106          1           0        6.333503    0.156643    0.844634
    107          1           0        7.172586   -1.253825   -1.150780
    108          1           0        7.938252    0.258688   -1.988876
    109          1           0        8.878286    0.777859    0.537049
    110          1           0        8.594435   -0.867591    0.919356
    111          1           0       10.176882   -0.321439   -1.692281
    112          1           0        9.230554   -2.674591   -1.736605
    113          1           0       10.890072   -2.487302   -1.837295
    114          1           0        9.992935   -2.849322   -0.144490
    115          1           0       11.388306    0.508013    0.409323
    116          1           0       11.402702   -1.189885    1.050100
    117          1           0       12.755043   -1.737847   -0.629632
    118          1           0       12.860592   -0.210633   -1.605025
    119          1           0       13.758663    0.992653    0.407706
    120          1           0       14.004227   -0.720806    1.142769
    121          1           0       15.293904    0.296675   -1.419587
    122          1           0       15.567415   -2.254508    0.226118
    123          1           0       15.032324   -1.988450   -1.505197
    124          1           0       16.727559   -1.776813   -1.391098
    125          1           0       16.331820    1.557603    0.632894
    126          1           0       16.659902   -0.061885    1.297380
    127          1           0       18.133486   -0.535870   -0.338655
    128          1           0       17.865506    1.066368   -1.262351
    129          1           0       18.314448    2.614947    0.524704
    130          1           0       18.838808    1.311644    1.828411
    131          1           0       20.461695    0.450944   -0.006149
    132          1           0       20.108625    3.315129   -1.123953
    133          1           0       21.270354    2.225748   -1.563783
    134          1           0       19.701862    1.812996   -2.065860
    135          1           0       21.341902    1.666565    2.216279
    136          1           0       22.242365    2.092152    0.790010
    137          1           0       20.766364    3.168355    1.229566
 ---------------------------------------------------------------------

 SCF Done:  E(RCAM-B3LYP) =  -2932.61810850     A.U. after   15 cycles

 Excitation energies and oscillator strengths:

 Excited State   1:      Singlet-A      2.1774 eV  569.40 nm  f=0.1375  <S**2>=0.000
     240 -> 242       -0.21897
     240 -> 243        0.22478
     241 -> 242        0.56246
     241 -> 243        0.26912
 This state for optimization and/or second-order correction.
 Total Energy, E(TD-HF/TD-KS) =  -2932.53808884
 Copying the excited state density for this state as the 1-particle RhoCI density.

 The electronic state is 1-A.
 Alpha  occ. eigenvalues --  -46.84826 -19.26208 -19.25840 -19.23378 -19.20779
 Alpha  occ. eigenvalues --  -19.19737 -14.41676 -14.40646 -14.39305 -14.38458
 Alpha  occ. eigenvalues --  -10.39196 -10.38728 -10.37336 -10.32162 -10.31702
 Alpha  occ. eigenvalues --  -10.30675 -10.30671 -10.30386 -10.30262 -10.29809
 Alpha  occ. eigenvalues --  -10.29600 -10.29449 -10.29136 -10.28914 -10.28754
 Alpha  occ. eigenvalues --  -10.28383 -10.28141 -10.27875 -10.27676 -10.27546
 Alpha  occ. eigenvalues --  -10.27512 -10.27341 -10.27218 -10.27184 -10.27126
 Alpha  occ. eigenvalues --  -10.27109 -10.27028 -10.27024 -10.26941 -10.26894
 Alpha  occ. eigenvalues --  -10.26737 -10.26593 -10.26574 -10.26531 -10.26472
 Alpha  occ. eigenvalues --  -10.26409 -10.26202 -10.26174 -10.26027 -10.25987
 Alpha  occ. eigenvalues --  -10.25983 -10.25922 -10.25798 -10.25720 -10.25715
 Alpha  occ. eigenvalues --  -10.25666 -10.25450 -10.25181 -10.25013 -10.24581
 Alpha  occ. eigenvalues --  -10.24491 -10.24393 -10.24389 -10.24008 -10.23865
 Alpha  occ. eigenvalues --   -3.13745  -1.88462  -1.87966  -1.87933  -1.20485
 Alpha  occ. eigenvalues --   -1.19485  -1.17178  -1.10501  -1.07633  -1.05200
 Alpha  occ. eigenvalues --   -1.04248  -1.03193  -1.01880  -0.93362  -0.91664
 Alpha  occ. eigenvalues --   -0.90446  -0.89993  -0.89786  -0.88939  -0.88496
 Alpha  occ. eigenvalues --   -0.88288  -0.87742  -0.87305  -0.86652  -0.85738
 Alpha  occ. eigenvalues --   -0.85515  -0.84680  -0.83618  -0.83003  -0.82582
 Alpha  occ. eigenvalues --   -0.81852  -0.81159  -0.80434  -0.80102  -0.78714
 Alpha  occ. eigenvalues --   -0.78359  -0.77460  -0.76667  -0.76320  -0.75773
 Alpha  occ. eigenvalues --   -0.75065  -0.74654  -0.73686  -0.72985  -0.72525
 Alpha  occ. eigenvalues --   -0.71413  -0.69811  -0.68843  -0.68338  -0.67994
 Alpha  occ. eigenvalues --   -0.66883  -0.66569  -0.65920  -0.65318  -0.64274
 Alpha  occ. eigenvalues --   -0.64128  -0.63367  -0.63332  -0.62872  -0.62112
 Alpha  occ. eigenvalues --   -0.61906  -0.61075  -0.60276  -0.59932  -0.59358
 Alpha  occ. eigenvalues --   -0.59177  -0.58899  -0.58281  -0.57730  -0.57048
 Alpha  occ. eigenvalues --   -0.56708  -0.56136  -0.55814  -0.55776  -0.55419
 Alpha  occ. eigenvalues --   -0.54954  -0.54553  -0.53972  -0.53842  -0.53647
 Alpha  occ. eigenvalues --   -0.53451  -0.53363  -0.52949  -0.52574  -0.52184
 Alpha  occ. eigenvalues --   -0.51434  -0.51168  -0.51000  -0.50938  -0.50609
 Alpha  occ. eigenvalues --   -0.50479  -0.50197  -0.50141  -0.49991  -0.49611
 Alpha  occ. eigenvalues --   -0.49440  -0.49212  -0.49095  -0.49004  -0.48598
 Alpha  occ. eigenvalues --   -0.48265  -0.48160  -0.48014  -0.47869  -0.47564
 Alpha  occ. eigenvalues --   -0.47412  -0.46738  -0.46689  -0.46315  -0.46061
 Alpha  occ. eigenvalues --   -0.46002  -0.45911  -0.45563  -0.44961  -0.44808
 Alpha  occ. eigenvalues --   -0.44740  -0.44528  -0.44356  -0.44164  -0.44069
 Alpha  occ. eigenvalues --   -0.43970  -0.43787  -0.43602  -0.43400  -0.43329
 Alpha  occ. eigenvalues --   -0.43141  -0.42477  -0.42417  -0.42242  -0.42130
 Alpha  occ. eigenvalues --   -0.42106  -0.41926  -0.41587  -0.41104  -0.40935
 Alpha  occ. eigenvalues --   -0.40802  -0.40682  -0.40355  -0.40346  -0.40146
 Alpha  occ. eigenvalues --   -0.39988  -0.39940  -0.39363  -0.39263  -0.39100
 Alpha  occ. eigenvalues --   -0.38944  -0.38727  -0.38339  -0.38221  -0.37876
 Alpha  occ. eigenvalues --   -0.37543  -0.37117  -0.36769  -0.36714  -0.36500
 Alpha  occ. eigenvalues --   -0.36416  -0.36125  -0.35459  -0.35221  -0.34892
 Alpha  occ. eigenvalues --   -0.34808  -0.34533  -0.34431  -0.34101  -0.33450
 Alpha  occ. eigenvalues --   -0.33270  -0.32865  -0.32112  -0.31520  -0.30600
 Alpha  occ. eigenvalues --   -0.30475  -0.30136  -0.27222  -0.26488  -0.23686
 Alpha  occ. eigenvalues --   -0.20998
 Alpha virt. eigenvalues --   -0.05670  -0.04096   0.01249   0.04399   0.05349
 Alpha virt. eigenvalues --    0.06080   0.06475   0.07017   0.07089   0.08127
 Alpha virt. eigenvalues --    0.08931   0.09541   0.11292   0.11745   0.12136

 Mulliken charges:
               1
     1  Mg   0.831335
     2  C    0.125321
     3  C   -0.145677
     4  C   -0.167040
     5  C   -0.151778
     6  N   -0.640476
     7  C    0.294977
     8  C   -0.117690
     9  C   -0.167305
    10  C    0.355298
    11  C   -0.298463
    12  C   -0.167088
    13  C   -0.288721
    14  C    0.601520
    15  O   -0.455219
    16  O   -0.473823
    17  N   -0.728116
    18  C    0.351045
    19  C   -0.040079
    20  C    0.004352
    21  C    0.285558
    22  C   -0.356715
    23  C   -0.047624
    24  C   -0.254391
    25  N   -0.674153
    26  C    0.256138
    27  C    0.012195
    28  C    0.049930
    29  C    0.255491
    30  C   -0.376656
    31  C   -0.264897
    32  C   -0.276260
    33  N   -0.720703
    34  C    0.277314
    35  C    0.011722
    36  C   -0.046258
    37  C    0.286148
    38  C   -0.334307
    39  C    0.389734
    40  O   -0.378209
    41  C   -0.385632
    42  C    0.627396
    43  O   -0.504063
    44  O   -0.414103
    45  C   -0.062162
    46  C    0.005923
    47  C   -0.101043
    48  C    0.112491
    49  C   -0.374514
    50  C   -0.244532
    51  C   -0.164582
    52  C   -0.155301
    53  C   -0.073365
    54  C   -0.312446
    55  C   -0.179038
    56  C   -0.175454
    57  C   -0.170401
    58  C   -0.071863
    59  C   -0.301382
    60  C   -0.161431
    61  C   -0.179406
    62  C   -0.160750
    63  C   -0.035021
    64  C   -0.305236
    65  C   -0.299153
    66  H    0.056402
    67  H    0.098630
    68  H    0.097855
    69  H    0.108944
    70  H    0.106072
    71  H    0.105469
    72  H    0.094623
    73  H    0.111053
    74  H    0.079153
    75  H    0.122015
    76  H    0.135748
    77  H    0.137404
    78  H    0.084957
    79  H    0.135813
    80  H    0.120383
    81  H    0.082332
    82  H    0.105631
    83  H    0.109109
    84  H    0.115800
    85  H    0.097902
    86  H    0.125359
    87  H    0.106614
    88  H    0.081174
    89  H    0.078900
    90  H    0.112593
    91  H    0.095469
    92  H    0.118821
    93  H    0.142549
    94  H    0.132460
    95  H    0.175199
    96  H    0.105214
    97  H    0.108988
    98  H    0.115632
    99  H    0.126624
   100  H    0.111282
   101  H    0.086265
   102  H    0.126103
   103  H    0.095663
   104  H    0.133968
   105  H    0.096430
   106  H    0.109210
   107  H    0.110595
   108  H    0.096317
   109  H    0.083906
   110  H    0.039603
   111  H    0.079531
   112  H    0.104953
   113  H    0.107549
   114  H    0.113787
   115  H    0.097503
   116  H    0.066328
   117  H    0.115573
   118  H    0.098028
   119  H    0.092870
   120  H    0.088868
   121  H    0.085906
   122  H    0.068468
   123  H    0.116908
   124  H    0.094027
   125  H    0.091989
   126  H    0.081727
   127  H    0.089577
   128  H    0.063437
   129  H    0.055916
   130  H    0.060037
   131  H    0.099273
   132  H    0.093088
   133  H    0.106856
   134  H    0.102823
   135  H    0.078654
   136  H    0.085908
   137  H    0.108821
 Sum of Mulliken charges =   0.00000

 Dipole moment (field-independent basis, Debye):
    X=              2.6619    Y=              1.5098    Z=             -0.7861  Tot=              3.1597
 Quadrupole moment (field-independent basis, Debye-Ang):
   XX=           -358.1178   YY=           -388.6362   ZZ=           -402.9140
   XY=             -1.8975   XZ=             -1.1356   YZ=              1.2504

 Normal termination of Gaussian 09 at Thu Jun 27 23:21:39 2019.
