 Gaussian 09, Revision D.01,
 Gaussian 09:  ES64L-G09RevD.01 24-Apr-2013

 -------------------------------------
 # td=(NStates=1) CAM-B3LYP/6-31G(d,p)
 -------------------------------------

 --
 TD
 --
 Symbolic Z-matrix:
 Charge =  0 Multiplicity = 1

                         Standard orientation:
 ---------------------------------------------------------------------
 Center     Atomic      Atomic             Coordinates (Angstroms)
 Number     Number       Type             X           Y           Z
 ---------------------------------------------------------------------
      1         12           0       -7.112536    0.558985    0.130392
      2          6           0       -4.894494   -1.954114    0.434357
      3          6           0       -4.890153    2.899120    1.206587
      4          6           0       -9.502904    3.026581   -0.359587
      5          6           0       -9.530550   -1.763444   -0.937451
      6          7           0       -5.199997    0.467647    0.820000
      7          6           0       -4.351486   -0.752174    0.745155
      8          6           0       -2.902453   -0.411264    1.201280
      9          6           0       -2.999442    1.130390    1.640804
     10          6           0       -4.472467    1.495068    1.199178
     11          6           0       -2.734964    1.392627    3.159905
     12          6           0       -1.792936   -0.648418    0.081905
     13          6           0       -0.460263   -0.513561    0.543939
     14          6           0        0.506812   -0.756370   -0.664280
     15          8           0        0.249853   -1.209897   -1.673319
     16          8           0        1.721273   -0.247371   -0.239223
     17          7           0       -7.078930    2.580843    0.364506
     18          6           0       -6.135960    3.350277    0.896523
     19          6           0       -6.496253    4.698526    0.898471
     20          6           0       -7.778118    4.874909    0.464515
     21          6           0       -8.181436    3.416904    0.130912
     22          6           0       -5.584567    5.795207    1.403053
     23          6           0       -8.589497    6.065933    0.294808
     24          6           0       -8.225090    7.317062   -0.062348
     25          7           0       -9.188382    0.636125   -0.470706
     26          6           0       -9.944971    1.776441   -0.592238
     27          6           0      -11.234379    1.453497   -1.117346
     28          6           0      -11.285879    0.004281   -1.201876
     29          6           0       -9.937098   -0.429056   -0.867843
     30          6           0      -12.318364    2.381889   -1.343483
     31          6           0      -12.425404   -0.728354   -1.738481
     32          6           0      -12.248962   -1.057469   -3.237834
     33          7           0       -7.252332   -1.451830   -0.244332
     34          6           0       -8.273631   -2.184637   -0.576842
     35          6           0       -7.957054   -3.607684   -0.535402
     36          6           0       -6.527237   -3.550066   -0.086494
     37          6           0       -6.290886   -2.206226    0.103401
     38          6           0       -8.807138   -4.727494   -0.833612
     39          6           0       -5.424484   -4.335512    0.129036
     40          8           0       -5.303739   -5.564521    0.317466
     41          6           0       -4.151365   -3.286350    0.462487
     42          6           0       -3.500709   -3.727413    1.846968
     43          8           0       -3.715636   -3.047760    2.868599
     44          8           0       -2.659829   -4.667672    1.768776
     45          6           0       -2.056743   -5.226902    2.907048
     46          6           0        2.972031   -0.578076   -1.122791
     47          6           0        4.197140   -0.323978   -0.494538
     48          6           0        5.193695    0.446876   -0.913419
     49          6           0        5.104246    1.331813   -2.214046
     50          6           0        6.503763    0.422630   -0.159385
     51          6           0        7.587958   -0.224983   -0.992407
     52          6           0        8.912879   -0.149467   -0.060294
     53          6           0       10.166324   -0.541781   -0.853924
     54          6           0       10.112737   -2.104306   -1.221841
     55          6           0       11.417273   -0.252543    0.003632
     56          6           0       12.788340   -0.485647   -0.687811
     57          6           0       14.007463   -0.122689    0.129408
     58          6           0       15.336350   -0.124107   -0.583304
     59          6           0       15.665004   -1.524530   -0.971454
     60          6           0       16.481728    0.488755    0.313775
     61          6           0       17.844249    0.639858   -0.208925
     62          6           0       18.834209    1.155947    0.677419
     63          6           0       20.275947    1.207225    0.135326
     64          6           0       20.459108    2.247132   -0.987167
     65          6           0       21.203038    1.657504    1.310505
     66          1           0       -4.129696    3.461170    1.761233
     67          1           0      -10.004618    3.890337   -0.447286
     68          1           0      -10.196440   -2.568630   -1.430674
     69          1           0       -2.812869   -1.082207    2.109744
     70          1           0       -2.069791    1.769449    1.140659
     71          1           0       -1.856715    0.936145    3.610383
     72          1           0       -2.963700    2.539659    3.504100
     73          1           0       -3.457112    0.835409    3.821005
     74          1           0       -1.967204   -1.601075   -0.237351
     75          1           0       -2.207025    0.239149   -0.707639
     76          1           0       -0.088102    0.479447    0.688483
     77          1           0       -0.291539   -1.131189    1.282956
     78          1           0       -4.939507    6.294748    0.770474
     79          1           0       -6.376120    6.578075    1.739244
     80          1           0       -4.893045    5.645333    2.252674
     81          1           0       -9.463465    5.844299    0.193816
     82          1           0       -8.948362    7.970297   -0.174755
     83          1           0       -7.189279    7.554804   -0.063630
     84          1           0      -11.817889    3.008512   -2.184583
     85          1           0      -13.156250    2.020185   -1.623286
     86          1           0      -12.328852    2.948193   -0.421425
     87          1           0      -12.674793   -1.855863   -1.158234
     88          1           0      -13.355690   -0.304477   -1.553019
     89          1           0      -13.277038   -1.697056   -3.442433
     90          1           0      -11.992866   -0.209065   -3.777882
     91          1           0      -11.286548   -1.590592   -3.504190
     92          1           0       -9.130926   -4.848630   -1.975651
     93          1           0       -8.227286   -5.621847   -0.731870
     94          1           0       -9.805022   -4.762145   -0.348131
     95          1           0       -3.279031   -3.485971   -0.341816
     96          1           0       -1.422452   -4.560609    3.306915
     97          1           0       -2.950049   -5.423452    3.582301
     98          1           0       -1.506372   -6.034714    2.593849
     99          1           0        2.720854   -1.651382   -1.344837
    100          1           0        2.895837   -0.067805   -2.014784
    101          1           0        4.521915   -0.865993    0.538069
    102          1           0        4.183370    1.519642   -2.726214
    103          1           0        5.255075    2.512367   -1.924358
    104          1           0        5.813358    0.982565   -2.895214
    105          1           0        6.896457    1.411841    0.005325
    106          1           0        6.242330   -0.137509    0.678867
    107          1           0        7.380593   -1.429048   -1.145302
    108          1           0        7.780629    0.264342   -1.840029
    109          1           0        9.056578    0.926184    0.146330
    110          1           0        8.744666   -0.605470    0.835128
    111          1           0       10.142224   -0.025486   -1.742391
    112          1           0        9.179174   -2.389418   -1.975402
    113          1           0       10.960819   -2.542415   -1.871599
    114          1           0        9.928629   -2.719744   -0.347284
    115          1           0       11.391091    0.716399    0.302668
    116          1           0       11.410684   -0.873570    1.068346
    117          1           0       12.844735   -1.463095   -0.929716
    118          1           0       12.652329    0.217025   -1.569541
    119          1           0       14.038587    0.969740    0.599581
    120          1           0       13.853692   -0.975305    0.873005
    121          1           0       15.189069    0.389281   -1.379581
    122          1           0       15.690598   -2.342593   -0.068694
    123          1           0       14.887273   -2.042017   -1.669424
    124          1           0       16.517923   -1.569156   -1.644301
    125          1           0       16.124942    1.478178    0.851772
    126          1           0       16.350251   -0.029811    1.429853
    127          1           0       18.215180   -0.309805   -0.676469
    128          1           0       17.617680    1.245211   -1.014993
    129          1           0       18.465206    2.080713    1.068178
    130          1           0       18.864541    0.409704    1.635250
    131          1           0       20.532294    0.190912   -0.337352
    132          1           0       20.026706    3.289504   -0.502333
    133          1           0       21.555261    2.333843   -1.228227
    134          1           0       19.740082    2.127974   -1.930755
    135          1           0       20.861466    0.969728    2.341790
    136          1           0       22.358669    1.417608    1.193857
    137          1           0       21.249681    2.642593    1.623605
 ---------------------------------------------------------------------

 SCF Done:  E(RCAM-B3LYP) =  -2932.55743139     A.U. after   17 cycles

 Excitation energies and oscillator strengths:

 Excited State   1:      Singlet-A      1.9855 eV  624.45 nm  f=0.2999  <S**2>=0.000
     240 -> 243        0.18214
     241 -> 242        0.67775
 This state for optimization and/or second-order correction.
 Total Energy, E(TD-HF/TD-KS) =  -2932.48446554
 Copying the excited state density for this state as the 1-particle RhoCI density.

 The electronic state is 1-A.
 Alpha  occ. eigenvalues --  -46.84625 -19.26952 -19.23985 -19.21445 -19.18806
 Alpha  occ. eigenvalues --  -19.18450 -14.42134 -14.39322 -14.38991 -14.38601
 Alpha  occ. eigenvalues --  -10.38703 -10.37863 -10.33571 -10.32060 -10.31245
 Alpha  occ. eigenvalues --  -10.31098 -10.30691 -10.30352 -10.29630 -10.28957
 Alpha  occ. eigenvalues --  -10.28884 -10.28480 -10.28387 -10.28222 -10.28087
 Alpha  occ. eigenvalues --  -10.27888 -10.27684 -10.27648 -10.27617 -10.27508
 Alpha  occ. eigenvalues --  -10.27504 -10.27268 -10.27203 -10.27106 -10.26966
 Alpha  occ. eigenvalues --  -10.26899 -10.26747 -10.26651 -10.26642 -10.26545
 Alpha  occ. eigenvalues --  -10.26540 -10.26502 -10.26501 -10.26366 -10.26196
 Alpha  occ. eigenvalues --  -10.25983 -10.25928 -10.25850 -10.25834 -10.25793
 Alpha  occ. eigenvalues --  -10.25778 -10.25726 -10.25688 -10.25679 -10.25629
 Alpha  occ. eigenvalues --  -10.25608 -10.25420 -10.25276 -10.25238 -10.24850
 Alpha  occ. eigenvalues --  -10.24701 -10.24657 -10.24564 -10.24015 -10.23956
 Alpha  occ. eigenvalues --   -3.13621  -1.88334  -1.87867  -1.87789  -1.20894
 Alpha  occ. eigenvalues --   -1.18476  -1.08631  -1.07830  -1.06999  -1.06812
 Alpha  occ. eigenvalues --   -1.04091  -1.02254  -1.01752  -0.92348  -0.91801
 Alpha  occ. eigenvalues --   -0.91719  -0.90251  -0.90095  -0.89910  -0.88858
 Alpha  occ. eigenvalues --   -0.88824  -0.88495  -0.87142  -0.86701  -0.86173
 Alpha  occ. eigenvalues --   -0.84872  -0.84730  -0.84680  -0.84196  -0.83567
 Alpha  occ. eigenvalues --   -0.82181  -0.81931  -0.81232  -0.79958  -0.77989
 Alpha  occ. eigenvalues --   -0.77428  -0.76912  -0.76571  -0.75610  -0.75000
 Alpha  occ. eigenvalues --   -0.74532  -0.74451  -0.73932  -0.73188  -0.72331
 Alpha  occ. eigenvalues --   -0.71022  -0.70653  -0.69991  -0.69269  -0.69149
 Alpha  occ. eigenvalues --   -0.68050  -0.67107  -0.65183  -0.64999  -0.64501
 Alpha  occ. eigenvalues --   -0.64080  -0.63945  -0.63610  -0.62718  -0.62661
 Alpha  occ. eigenvalues --   -0.61548  -0.61145  -0.61112  -0.59954  -0.59248
 Alpha  occ. eigenvalues --   -0.58405  -0.57892  -0.57764  -0.57586  -0.56869
 Alpha  occ. eigenvalues --   -0.56490  -0.56196  -0.55430  -0.55418  -0.55223
 Alpha  occ. eigenvalues --   -0.54917  -0.54599  -0.54293  -0.53806  -0.53497
 Alpha  occ. eigenvalues --   -0.53366  -0.53008  -0.52466  -0.52229  -0.52174
 Alpha  occ. eigenvalues --   -0.51775  -0.51369  -0.50918  -0.50728  -0.50657
 Alpha  occ. eigenvalues --   -0.50278  -0.50181  -0.49899  -0.49646  -0.49564
 Alpha  occ. eigenvalues --   -0.49370  -0.49231  -0.48684  -0.48524  -0.48324
 Alpha  occ. eigenvalues --   -0.48231  -0.48115  -0.48019  -0.47601  -0.47264
 Alpha  occ. eigenvalues --   -0.46922  -0.46609  -0.46504  -0.46454  -0.46178
 Alpha  occ. eigenvalues --   -0.45930  -0.45794  -0.45540  -0.45381  -0.45173
 Alpha  occ. eigenvalues --   -0.44972  -0.44562  -0.44061  -0.44035  -0.43902
 Alpha  occ. eigenvalues --   -0.43651  -0.43609  -0.43503  -0.43303  -0.43151
 Alpha  occ. eigenvalues --   -0.43019  -0.42774  -0.42662  -0.42377  -0.42151
 Alpha  occ. eigenvalues --   -0.41998  -0.41754  -0.41537  -0.41314  -0.41053
 Alpha  occ. eigenvalues --   -0.40826  -0.40797  -0.40246  -0.40119  -0.39917
 Alpha  occ. eigenvalues --   -0.39719  -0.39637  -0.39451  -0.39331  -0.38933
 Alpha  occ. eigenvalues --   -0.38587  -0.38304  -0.38272  -0.37636  -0.37628
 Alpha  occ. eigenvalues --   -0.37463  -0.37324  -0.37127  -0.37069  -0.36745
 Alpha  occ. eigenvalues --   -0.36442  -0.36346  -0.35983  -0.35857  -0.35734
 Alpha  occ. eigenvalues --   -0.35448  -0.35064  -0.34443  -0.34414  -0.33170
 Alpha  occ. eigenvalues --   -0.32741  -0.32317  -0.31514  -0.30638  -0.30255
 Alpha  occ. eigenvalues --   -0.28328  -0.28125  -0.28017  -0.26403  -0.23751
 Alpha  occ. eigenvalues --   -0.20518
 Alpha virt. eigenvalues --   -0.06514  -0.02453   0.01595   0.03622   0.04663
 Alpha virt. eigenvalues --    0.06161   0.06501   0.06560   0.07291   0.08368
 Alpha virt. eigenvalues --    0.09786   0.10578   0.10945   0.11717   0.11900

 Mulliken charges:
               1
     1  Mg   0.825358
     2  C    0.065823
     3  C   -0.211213
     4  C   -0.170304
     5  C   -0.157058
     6  N   -0.642743
     7  C    0.247627
     8  C   -0.175107
     9  C   -0.130049
    10  C    0.349445
    11  C   -0.320508
    12  C   -0.145826
    13  C   -0.247415
    14  C    0.585213
    15  O   -0.408521
    16  O   -0.537841
    17  N   -0.714526
    18  C    0.377195
    19  C    0.015201
    20  C    0.004294
    21  C    0.242448
    22  C   -0.385953
    23  C   -0.035777
    24  C   -0.207442
    25  N   -0.704229
    26  C    0.356162
    27  C   -0.017313
    28  C    0.017175
    29  C    0.301012
    30  C   -0.331169
    31  C   -0.237310
    32  C   -0.291448
    33  N   -0.691304
    34  C    0.275173
    35  C    0.056260
    36  C    0.043158
    37  C    0.315666
    38  C   -0.413129
    39  C    0.283304
    40  O   -0.494537
    41  C   -0.332683
    42  C    0.601083
    43  O   -0.510843
    44  O   -0.393434
    45  C   -0.077538
    46  C    0.007153
    47  C   -0.114271
    48  C    0.122428
    49  C   -0.372629
    50  C   -0.211454
    51  C   -0.177267
    52  C   -0.183568
    53  C   -0.048942
    54  C   -0.316117
    55  C   -0.165013
    56  C   -0.180497
    57  C   -0.165298
    58  C   -0.017846
    59  C   -0.309931
    60  C   -0.182400
    61  C   -0.154834
    62  C   -0.151997
    63  C   -0.046897
    64  C   -0.290277
    65  C   -0.296688
    66  H    0.080321
    67  H    0.062718
    68  H    0.114259
    69  H    0.142816
    70  H    0.093006
    71  H    0.122186
    72  H    0.088564
    73  H    0.118239
    74  H    0.120111
    75  H    0.082290
    76  H    0.140980
    77  H    0.133987
    78  H    0.133454
    79  H    0.103956
    80  H    0.114738
    81  H    0.057848
    82  H    0.104996
    83  H    0.106370
    84  H    0.110608
    85  H    0.112157
    86  H    0.125844
    87  H    0.053813
    88  H    0.116104
    89  H    0.086627
    90  H    0.120028
    91  H    0.103358
    92  H    0.103078
    93  H    0.154301
    94  H    0.131731
    95  H    0.138180
    96  H    0.132945
    97  H    0.137253
    98  H    0.134929
    99  H    0.124147
   100  H    0.125434
   101  H    0.068492
   102  H    0.128672
   103  H    0.091744
   104  H    0.132974
   105  H    0.108508
   106  H    0.106689
   107  H    0.083403
   108  H    0.108092
   109  H    0.084820
   110  H    0.106933
   111  H    0.094147
   112  H    0.067769
   113  H    0.097266
   114  H    0.110757
   115  H    0.100357
   116  H    0.051804
   117  H    0.113386
   118  H    0.071409
   119  H    0.065589
   120  H    0.082954
   121  H    0.095168
   122  H    0.086426
   123  H    0.085336
   124  H    0.100956
   125  H    0.067245
   126  H    0.054163
   127  H    0.089122
   128  H    0.104027
   129  H    0.093519
   130  H    0.070528
   131  H    0.089198
   132  H    0.072363
   133  H    0.107757
   134  H    0.089903
   135  H    0.059840
   136  H    0.083017
   137  H    0.124253
 Sum of Mulliken charges =   0.00000

 Dipole moment (field-independent basis, Debye):
    X=              3.4429    Y=              5.2124    Z=             -0.8665  Tot=              6.3067
 Quadrupole moment (field-independent basis, Debye-Ang):
   XX=           -343.2672   YY=           -390.8214   ZZ=           -397.4552
   XY=            -23.9065   XZ=              2.1445   YZ=             -3.3122

 Normal termination of Gaussian 09 at Fri Jun 28 10:35:51 2019.
