 Gaussian 09, Revision D.01,
 Gaussian 09:  ES64L-G09RevD.01 24-Apr-2013

 -------------------------------------
 # td=(NStates=1) CAM-B3LYP/6-31G(d,p)
 -------------------------------------

 --
 TD
 --
 Symbolic Z-matrix:
 Charge =  0 Multiplicity = 1

                         Standard orientation:
 ---------------------------------------------------------------------
 Center     Atomic      Atomic             Coordinates (Angstroms)
 Number     Number       Type             X           Y           Z
 ---------------------------------------------------------------------
      1         12           0       -7.145598    0.597220    0.123389
      2          6           0       -4.861411   -1.968394    0.487315
      3          6           0       -4.836847    2.761150    1.339933
      4          6           0       -9.380969    3.102076   -0.360093
      5          6           0       -9.450314   -1.657697   -0.926231
      6          7           0       -5.069978    0.406768    0.684883
      7          6           0       -4.349395   -0.682720    0.774713
      8          6           0       -2.952510   -0.404588    1.266051
      9          6           0       -3.049121    0.995748    1.703945
     10          6           0       -4.350632    1.513534    1.171882
     11          6           0       -2.950765    1.080995    3.206965
     12          6           0       -1.909016   -0.591114    0.106651
     13          6           0       -0.492476   -0.387793    0.367767
     14          6           0        0.458594   -0.687680   -0.580793
     15          8           0        0.264478   -0.966555   -1.778732
     16          8           0        1.743054   -0.577117   -0.164254
     17          7           0       -7.039137    2.566361    0.353765
     18          6           0       -6.051012    3.338037    0.853630
     19          6           0       -6.384253    4.682718    0.970288
     20          6           0       -7.697363    4.763450    0.480550
     21          6           0       -8.147339    3.441869    0.150475
     22          6           0       -5.638298    5.882771    1.576991
     23          6           0       -8.551020    5.962748    0.253607
     24          6           0       -8.177838    7.188206   -0.001634
     25          7           0       -9.081790    0.653851   -0.460963
     26          6           0       -9.781331    1.815459   -0.647661
     27          6           0      -11.119290    1.539172   -1.098063
     28          6           0      -11.247353    0.098469   -1.326829
     29          6           0       -9.937066   -0.369884   -0.914932
     30          6           0      -12.288132    2.496039   -1.242134
     31          6           0      -12.408146   -0.719094   -1.707831
     32          6           0      -12.558257   -0.979024   -3.328361
     33          7           0       -7.215929   -1.321966   -0.184704
     34          6           0       -8.198850   -2.196213   -0.522417
     35          6           0       -7.800251   -3.547806   -0.644022
     36          6           0       -6.518040   -3.565691   -0.201886
     37          6           0       -6.124331   -2.190060    0.006472
     38          6           0       -8.582944   -4.738142   -0.883927
     39          6           0       -5.377881   -4.372972    0.109286
     40          8           0       -5.166598   -5.621208    0.070401
     41          6           0       -4.238682   -3.448626    0.583295
     42          6           0       -3.592870   -3.775310    1.969483
     43          8           0       -3.858838   -3.162774    2.955973
     44          8           0       -2.637347   -4.668416    1.802352
     45          6           0       -2.273738   -5.211261    3.003749
     46          6           0        2.802515   -0.646156   -1.158762
     47          6           0        4.062957   -0.368619   -0.514019
     48          6           0        5.072365    0.382426   -0.993367
     49          6           0        4.985912    1.269479   -2.170206
     50          6           0        6.390322    0.473742   -0.203865
     51          6           0        7.608088   -0.107328   -1.060445
     52          6           0        8.928190    0.043944   -0.204612
     53          6           0       10.146168   -0.444642   -1.023952
     54          6           0       10.111795   -1.902938   -1.508748
     55          6           0       11.394932   -0.407074   -0.074262
     56          6           0       12.816546   -0.358979   -0.771023
     57          6           0       13.997460   -0.130135    0.242976
     58          6           0       15.367116   -0.237189   -0.443829
     59          6           0       15.692297   -1.735738   -0.736703
     60          6           0       16.498816    0.285531    0.448550
     61          6           0       17.890950    0.452148   -0.161378
     62          6           0       18.840766    1.175423    0.753221
     63          6           0       20.303504    1.369512    0.208428
     64          6           0       20.443632    2.273954   -0.989203
     65          6           0       21.220556    1.894139    1.311727
     66          1           0       -4.135647    3.536939    1.756130
     67          1           0      -10.204204    3.777111   -0.431735
     68          1           0      -10.186640   -2.396377   -1.288249
     69          1           0       -2.629057   -1.034404    2.078822
     70          1           0       -2.279864    1.724635    1.270816
     71          1           0       -1.850819    0.676732    3.578298
     72          1           0       -2.976095    2.126595    3.504887
     73          1           0       -3.829987    0.518591    3.758301
     74          1           0       -1.945704   -1.642377   -0.458576
     75          1           0       -2.287978    0.044107   -0.706259
     76          1           0       -0.300409    0.707239    0.722471
     77          1           0       -0.051177   -1.076052    1.261546
     78          1           0       -5.074832    6.457737    0.652957
     79          1           0       -6.416771    6.536000    2.222414
     80          1           0       -5.101346    5.635501    2.450037
     81          1           0       -9.601716    5.595684    0.399844
     82          1           0       -8.774890    8.083766   -0.121535
     83          1           0       -7.107492    7.488164   -0.179540
     84          1           0      -12.023615    3.214644   -2.145992
     85          1           0      -13.162002    1.886413   -1.733499
     86          1           0      -12.574579    3.071858   -0.301205
     87          1           0      -12.358821   -1.693400   -1.057982
     88          1           0      -13.362739   -0.309845   -1.136684
     89          1           0      -13.267413   -1.767814   -3.548687
     90          1           0      -12.617742    0.015103   -3.825346
     91          1           0      -11.561409   -1.512111   -3.540214
     92          1           0       -8.996226   -4.770080   -1.928602
     93          1           0       -8.013094   -5.761927   -0.859617
     94          1           0       -9.409187   -4.824559   -0.060890
     95          1           0       -3.503998   -3.305743   -0.215015
     96          1           0       -1.579765   -4.448990    3.606038
     97          1           0       -3.137755   -5.472347    3.738340
     98          1           0       -1.596252   -6.099471    2.847181
     99          1           0        2.715341   -1.643981   -1.657606
    100          1           0        2.571507    0.145143   -1.942821
    101          1           0        4.220629   -0.935287    0.412483
    102          1           0        3.992545    1.482110   -2.669263
    103          1           0        5.472987    2.288548   -2.053161
    104          1           0        5.448662    0.776894   -2.892104
    105          1           0        6.586549    1.676163   -0.230370
    106          1           0        6.007933   -0.059539    0.717503
    107          1           0        7.459182   -1.283499   -0.958034
    108          1           0        7.511965    0.107751   -2.200970
    109          1           0        9.133394    1.093245   -0.076359
    110          1           0        8.567616   -0.395394    0.833394
    111          1           0       10.403314    0.323066   -1.699775
    112          1           0        9.275094   -2.018205   -2.071261
    113          1           0       11.100060   -2.198668   -2.030536
    114          1           0        9.813307   -2.504575   -0.532625
    115          1           0       11.403952    0.742711    0.363271
    116          1           0       11.481212   -1.139066    0.680962
    117          1           0       13.021133   -1.479062   -1.395707
    118          1           0       12.890519    0.304147   -1.595816
    119          1           0       13.764636    0.779737    0.678061
    120          1           0       14.049188   -0.772109    1.163391
    121          1           0       15.169433    0.333706   -1.487816
    122          1           0       15.492028   -2.288792    0.127519
    123          1           0       15.039609   -2.238265   -1.581909
    124          1           0       16.582735   -2.042789   -1.220868
    125          1           0       16.193900    1.307274    0.769200
    126          1           0       16.462782   -0.399313    1.302353
    127          1           0       18.305547   -0.651958   -0.427087
    128          1           0       17.706575    0.901469   -1.149864
    129          1           0       18.336517    2.119482    0.952538
    130          1           0       18.854457    0.750556    1.775876
    131          1           0       20.719256    0.299419   -0.153817
    132          1           0       19.850691    3.216739   -0.680014
    133          1           0       21.412706    2.429787   -1.240673
    134          1           0       19.980164    1.811272   -2.024025
    135          1           0       21.044002    1.422132    2.353579
    136          1           0       22.260738    1.730228    1.077728
    137          1           0       20.919942    2.995192    1.458139
 ---------------------------------------------------------------------

 SCF Done:  E(RCAM-B3LYP) =  -2932.74951853     A.U. after   15 cycles

 Excitation energies and oscillator strengths:

 Excited State   1:      Singlet-A      1.9872 eV  623.92 nm  f=0.3101  <S**2>=0.000
     240 -> 243        0.22747
     241 -> 242        0.65787
 This state for optimization and/or second-order correction.
 Total Energy, E(TD-HF/TD-KS) =  -2932.67649085
 Copying the excited state density for this state as the 1-particle RhoCI density.

 The electronic state is 1-A.
 Alpha  occ. eigenvalues --  -46.82805 -19.27940 -19.24886 -19.21916 -19.19831
 Alpha  occ. eigenvalues --  -19.19326 -14.41578 -14.39252 -14.39010 -14.38859
 Alpha  occ. eigenvalues --  -10.40035 -10.38193 -10.35066 -10.32696 -10.31439
 Alpha  occ. eigenvalues --  -10.30960 -10.30213 -10.29359 -10.29131 -10.28939
 Alpha  occ. eigenvalues --  -10.28801 -10.28767 -10.28701 -10.28611 -10.28498
 Alpha  occ. eigenvalues --  -10.28207 -10.28159 -10.28149 -10.28083 -10.27990
 Alpha  occ. eigenvalues --  -10.27942 -10.27653 -10.27481 -10.27344 -10.27335
 Alpha  occ. eigenvalues --  -10.27251 -10.27243 -10.27208 -10.27136 -10.27114
 Alpha  occ. eigenvalues --  -10.27081 -10.26978 -10.26875 -10.26852 -10.26790
 Alpha  occ. eigenvalues --  -10.26658 -10.26654 -10.26650 -10.26500 -10.26283
 Alpha  occ. eigenvalues --  -10.26139 -10.26096 -10.26065 -10.25905 -10.25586
 Alpha  occ. eigenvalues --  -10.25418 -10.25272 -10.25264 -10.25245 -10.25227
 Alpha  occ. eigenvalues --  -10.25090 -10.25063 -10.24881 -10.24879 -10.23946
 Alpha  occ. eigenvalues --   -3.12177  -1.86853  -1.86444  -1.86370  -1.21817
 Alpha  occ. eigenvalues --   -1.16905  -1.11992  -1.08095  -1.06479  -1.05194
 Alpha  occ. eigenvalues --   -1.03637  -1.03069  -1.01465  -0.92165  -0.91762
 Alpha  occ. eigenvalues --   -0.91006  -0.90164  -0.89487  -0.89303  -0.88804
 Alpha  occ. eigenvalues --   -0.88327  -0.88116  -0.87965  -0.87125  -0.86749
 Alpha  occ. eigenvalues --   -0.84623  -0.84213  -0.83316  -0.83189  -0.82158
 Alpha  occ. eigenvalues --   -0.81505  -0.81341  -0.80382  -0.79672  -0.78776
 Alpha  occ. eigenvalues --   -0.77569  -0.76647  -0.76409  -0.75710  -0.75128
 Alpha  occ. eigenvalues --   -0.74920  -0.74784  -0.74374  -0.73391  -0.72878
 Alpha  occ. eigenvalues --   -0.71492  -0.70705  -0.70041  -0.68772  -0.68117
 Alpha  occ. eigenvalues --   -0.67303  -0.65953  -0.65407  -0.65117  -0.64381
 Alpha  occ. eigenvalues --   -0.64191  -0.63027  -0.62283  -0.62256  -0.61829
 Alpha  occ. eigenvalues --   -0.61454  -0.60768  -0.60303  -0.59492  -0.59137
 Alpha  occ. eigenvalues --   -0.58360  -0.58174  -0.57713  -0.57129  -0.56958
 Alpha  occ. eigenvalues --   -0.56457  -0.55918  -0.55315  -0.55016  -0.54791
 Alpha  occ. eigenvalues --   -0.54626  -0.54495  -0.53700  -0.53440  -0.53198
 Alpha  occ. eigenvalues --   -0.53043  -0.52467  -0.52102  -0.51641  -0.51418
 Alpha  occ. eigenvalues --   -0.51361  -0.51041  -0.50993  -0.50675  -0.50198
 Alpha  occ. eigenvalues --   -0.50064  -0.49854  -0.49828  -0.49437  -0.49377
 Alpha  occ. eigenvalues --   -0.49335  -0.49069  -0.48871  -0.48704  -0.48077
 Alpha  occ. eigenvalues --   -0.47996  -0.47845  -0.47542  -0.47350  -0.47082
 Alpha  occ. eigenvalues --   -0.46898  -0.46479  -0.46059  -0.45667  -0.45439
 Alpha  occ. eigenvalues --   -0.45295  -0.45144  -0.45030  -0.44764  -0.44554
 Alpha  occ. eigenvalues --   -0.44457  -0.44191  -0.44066  -0.43995  -0.43873
 Alpha  occ. eigenvalues --   -0.43682  -0.43028  -0.42974  -0.42886  -0.42739
 Alpha  occ. eigenvalues --   -0.42691  -0.42540  -0.42486  -0.42186  -0.42143
 Alpha  occ. eigenvalues --   -0.41862  -0.41820  -0.41684  -0.41409  -0.41315
 Alpha  occ. eigenvalues --   -0.41180  -0.40779  -0.40680  -0.40354  -0.40072
 Alpha  occ. eigenvalues --   -0.39810  -0.39618  -0.39482  -0.39125  -0.39020
 Alpha  occ. eigenvalues --   -0.38494  -0.38370  -0.38271  -0.38100  -0.37673
 Alpha  occ. eigenvalues --   -0.37535  -0.37386  -0.37171  -0.36859  -0.36645
 Alpha  occ. eigenvalues --   -0.36340  -0.36250  -0.35927  -0.35906  -0.35624
 Alpha  occ. eigenvalues --   -0.35529  -0.34887  -0.34598  -0.34017  -0.33842
 Alpha  occ. eigenvalues --   -0.33240  -0.32396  -0.32133  -0.31326  -0.30167
 Alpha  occ. eigenvalues --   -0.30021  -0.29209  -0.27774  -0.27167  -0.23458
 Alpha  occ. eigenvalues --   -0.20926
 Alpha virt. eigenvalues --   -0.06817  -0.03185   0.00997   0.04954   0.05655
 Alpha virt. eigenvalues --    0.05876   0.06399   0.06470   0.06978   0.07404
 Alpha virt. eigenvalues --    0.08244   0.10583   0.11205   0.11537   0.11796

 Mulliken charges:
               1
     1  Mg   0.810056
     2  C    0.007816
     3  C   -0.202758
     4  C   -0.150660
     5  C   -0.205136
     6  N   -0.629064
     7  C    0.331752
     8  C   -0.146373
     9  C   -0.147515
    10  C    0.333040
    11  C   -0.290412
    12  C   -0.183959
    13  C   -0.245155
    14  C    0.622811
    15  O   -0.510915
    16  O   -0.504575
    17  N   -0.716669
    18  C    0.313138
    19  C    0.003590
    20  C   -0.009518
    21  C    0.293317
    22  C   -0.356574
    23  C   -0.036581
    24  C   -0.263540
    25  N   -0.708064
    26  C    0.337728
    27  C   -0.018172
    28  C    0.076688
    29  C    0.287274
    30  C   -0.378439
    31  C   -0.278630
    32  C   -0.307156
    33  N   -0.709119
    34  C    0.281308
    35  C    0.066589
    36  C    0.070476
    37  C    0.252852
    38  C   -0.400892
    39  C    0.339392
    40  O   -0.498614
    41  C   -0.291600
    42  C    0.621893
    43  O   -0.445162
    44  O   -0.388383
    45  C   -0.098890
    46  C    0.033073
    47  C   -0.138358
    48  C    0.116330
    49  C   -0.371990
    50  C   -0.213979
    51  C   -0.193938
    52  C   -0.159390
    53  C   -0.059363
    54  C   -0.298055
    55  C   -0.163957
    56  C   -0.177797
    57  C   -0.163082
    58  C   -0.068501
    59  C   -0.307738
    60  C   -0.162454
    61  C   -0.165278
    62  C   -0.165233
    63  C   -0.052497
    64  C   -0.281604
    65  C   -0.301121
    66  H    0.080121
    67  H    0.097083
    68  H    0.077961
    69  H    0.127781
    70  H    0.100954
    71  H    0.083856
    72  H    0.108856
    73  H    0.120305
    74  H    0.104526
    75  H    0.124688
    76  H    0.139308
    77  H    0.125788
    78  H    0.112977
    79  H    0.111512
    80  H    0.123252
    81  H    0.087278
    82  H    0.108502
    83  H    0.098888
    84  H    0.110387
    85  H    0.111238
    86  H    0.124220
    87  H    0.099953
    88  H    0.097363
    89  H    0.119575
    90  H    0.123466
    91  H    0.109667
    92  H    0.121885
    93  H    0.145306
    94  H    0.124954
    95  H    0.170112
    96  H    0.097438
    97  H    0.129096
    98  H    0.123079
    99  H    0.130762
   100  H    0.110533
   101  H    0.085526
   102  H    0.109140
   103  H    0.107184
   104  H    0.140407
   105  H    0.082343
   106  H    0.106401
   107  H    0.085833
   108  H    0.099804
   109  H    0.099038
   110  H    0.092782
   111  H    0.096589
   112  H    0.110512
   113  H    0.107524
   114  H    0.086297
   115  H    0.048003
   116  H    0.105327
   117  H    0.039810
   118  H    0.100647
   119  H    0.100093
   120  H    0.080001
   121  H    0.058818
   122  H    0.108475
   123  H    0.075546
   124  H    0.110551
   125  H    0.080633
   126  H    0.089327
   127  H    0.067267
   128  H    0.099450
   129  H    0.087041
   130  H    0.093099
   131  H    0.063147
   132  H    0.089882
   133  H    0.116857
   134  H    0.075076
   135  H    0.088548
   136  H    0.107909
   137  H    0.090184
 Sum of Mulliken charges =   0.00000

 Dipole moment (field-independent basis, Debye):
    X=              0.7622    Y=              4.3882    Z=              1.0458  Tot=              4.5751
 Quadrupole moment (field-independent basis, Debye-Ang):
   XX=           -338.2799   YY=           -394.6967   ZZ=           -396.1335
   XY=            -13.7761   XZ=              5.8797   YZ=             -3.3954

 Normal termination of Gaussian 09 at Thu Jun 27 03:45:48 2019.
