 Gaussian 09, Revision D.01,
 Gaussian 09:  ES64L-G09RevD.01 24-Apr-2013

 -------------------------------------
 # td=(NStates=1) CAM-B3LYP/6-31G(d,p)
 -------------------------------------

 --
 TD
 --
 Symbolic Z-matrix:
 Charge =  0 Multiplicity = 1

                         Standard orientation:
 ---------------------------------------------------------------------
 Center     Atomic      Atomic             Coordinates (Angstroms)
 Number     Number       Type             X           Y           Z
 ---------------------------------------------------------------------
      1         12           0       -7.138002    0.556759    0.105604
      2          6           0       -4.869240   -1.906449    0.586405
      3          6           0       -4.880242    2.864898    1.104919
      4          6           0       -9.520466    2.941839   -0.148614
      5          6           0       -9.549066   -1.833418   -0.862670
      6          7           0       -5.065279    0.397184    0.717118
      7          6           0       -4.293008   -0.650268    0.863994
      8          6           0       -2.899112   -0.265158    1.135991
      9          6           0       -3.073882    1.192029    1.564616
     10          6           0       -4.395745    1.511995    1.083856
     11          6           0       -2.934382    1.500187    3.089234
     12          6           0       -1.908545   -0.576596    0.119706
     13          6           0       -0.443046   -0.479334    0.573045
     14          6           0        0.551397   -0.592912   -0.705373
     15          8           0        0.328425   -1.029159   -1.732884
     16          8           0        1.790599   -0.263569   -0.251142
     17          7           0       -7.205146    2.605043    0.343173
     18          6           0       -6.154299    3.476463    0.722819
     19          6           0       -6.589970    4.745681    0.852448
     20          6           0       -7.960998    4.795477    0.471131
     21          6           0       -8.265859    3.470569    0.226682
     22          6           0       -5.719941    5.901461    1.270238
     23          6           0       -8.885233    5.868580    0.396146
     24          6           0       -8.433503    7.132646    0.195768
     25          7           0       -9.162849    0.556560   -0.478237
     26          6           0       -9.942138    1.751406   -0.625591
     27          6           0      -11.280583    1.406999   -1.011015
     28          6           0      -11.182491    0.021607   -1.318073
     29          6           0       -9.958080   -0.428972   -1.014896
     30          6           0      -12.348183    2.423346   -1.468381
     31          6           0      -12.386408   -0.737464   -1.866917
     32          6           0      -12.157711   -1.123561   -3.366982
     33          7           0       -7.216639   -1.409876    0.048788
     34          6           0       -8.306802   -2.229958   -0.530092
     35          6           0       -7.861689   -3.573027   -0.575610
     36          6           0       -6.542467   -3.515528   -0.002664
     37          6           0       -6.173748   -2.170595    0.189113
     38          6           0       -8.578763   -4.904600   -0.896897
     39          6           0       -5.368227   -4.387441    0.293683
     40          8           0       -5.184868   -5.581066    0.181223
     41          6           0       -4.084361   -3.274659    0.627114
     42          6           0       -3.492239   -3.702609    1.959394
     43          8           0       -3.864956   -3.150154    2.971560
     44          8           0       -2.699974   -4.703165    1.791990
     45          6           0       -2.077680   -5.257384    2.908007
     46          6           0        2.812488   -0.556291   -1.254815
     47          6           0        4.170062   -0.355023   -0.565518
     48          6           0        5.104256    0.339863   -1.108719
     49          6           0        5.149963    1.150029   -2.397752
     50          6           0        6.394367    0.396743   -0.169328
     51          6           0        7.631486   -0.209305   -0.855562
     52          6           0        8.964064   -0.119024   -0.103398
     53          6           0       10.225721   -0.576336   -0.777351
     54          6           0       10.293272   -1.938140   -1.290614
     55          6           0       11.470681   -0.282660    0.065809
     56          6           0       12.773324   -0.430408   -0.778853
     57          6           0       13.994856   -0.152929    0.188739
     58          6           0       15.379561   -0.145621   -0.541650
     59          6           0       15.738604   -1.664411   -0.776234
     60          6           0       16.436052    0.412837    0.343515
     61          6           0       17.876860    0.597311   -0.283720
     62          6           0       18.975353    1.099580    0.735614
     63          6           0       20.404282    1.316751    0.177306
     64          6           0       20.530492    2.271904   -0.971581
     65          6           0       21.268081    1.834737    1.373536
     66          1           0       -4.138669    3.579001    1.399374
     67          1           0      -10.386806    3.700112   -0.242647
     68          1           0      -10.106699   -2.774347   -1.129979
     69          1           0       -2.888335   -0.852422    2.078117
     70          1           0       -2.245337    1.717018    1.132676
     71          1           0       -1.839603    1.582198    3.423417
     72          1           0       -3.100815    2.528032    3.364326
     73          1           0       -3.642337    0.650826    3.672113
     74          1           0       -2.010578   -1.719207   -0.197018
     75          1           0       -2.198717    0.282521   -0.706377
     76          1           0       -0.327215    0.579485    1.070152
     77          1           0       -0.354112   -1.263643    1.186105
     78          1           0       -5.378386    6.313281    0.325537
     79          1           0       -6.340137    6.728182    1.741377
     80          1           0       -4.901607    5.737879    2.058709
     81          1           0       -9.849937    5.713841    1.087065
     82          1           0       -8.975524    8.117148    0.253751
     83          1           0       -7.499757    7.331845   -0.015512
     84          1           0      -12.026722    2.837048   -2.668692
     85          1           0      -13.358056    1.998335   -1.488104
     86          1           0      -12.310641    3.273376   -0.735020
     87          1           0      -12.394341   -1.781852   -1.408602
     88          1           0      -13.433246   -0.382084   -1.617359
     89          1           0      -13.073396   -1.571685   -3.624612
     90          1           0      -12.292912   -0.215692   -3.944578
     91          1           0      -11.342049   -1.677604   -3.498297
     92          1           0       -9.226901   -4.847835   -1.775480
     93          1           0       -7.725316   -5.534480   -0.843096
     94          1           0       -9.311259   -5.256164   -0.048778
     95          1           0       -3.412080   -3.501114   -0.251668
     96          1           0       -1.619526   -4.393916    3.575025
     97          1           0       -2.887726   -5.815736    3.520948
     98          1           0       -1.448697   -5.916856    2.440565
     99          1           0        2.591569   -1.595351   -1.497470
    100          1           0        2.515756    0.010725   -2.266666
    101          1           0        4.265546   -1.099989    0.279090
    102          1           0        4.349572    1.145730   -3.072255
    103          1           0        5.566946    2.165192   -2.237803
    104          1           0        6.049653    0.576283   -2.949407
    105          1           0        6.759226    1.480782   -0.162007
    106          1           0        6.086791    0.004533    0.732504
    107          1           0        7.403778   -1.344728   -1.186719
    108          1           0        7.781383    0.224105   -1.841220
    109          1           0        9.253382    1.003119    0.333249
    110          1           0        8.619776   -0.669192    0.752306
    111          1           0       10.245293    0.096722   -1.667948
    112          1           0        9.299624   -2.206569   -2.007107
    113          1           0       11.160494   -2.295257   -1.828377
    114          1           0       10.016006   -2.677923   -0.489457
    115          1           0       11.352853    0.706413    0.715407
    116          1           0       11.395716   -1.089880    0.935045
    117          1           0       13.044479   -1.441327   -1.231978
    118          1           0       12.704299    0.249669   -1.465777
    119          1           0       13.845455    0.941922    0.554412
    120          1           0       13.862986   -0.766805    1.188311
    121          1           0       15.365477    0.531170   -1.293315
    122          1           0       15.700606   -1.983191    0.208034
    123          1           0       14.984689   -2.286577   -1.436693
    124          1           0       16.652100   -1.851138   -1.217540
    125          1           0       16.255345    1.481223    0.513994
    126          1           0       16.427541   -0.148056    1.404938
    127          1           0       18.098593   -0.355873   -0.747983
    128          1           0       17.793953    1.297690   -1.018373
    129          1           0       18.584486    2.096372    1.087598
    130          1           0       18.869996    0.379588    1.424127
    131          1           0       20.714359    0.227098   -0.113042
    132          1           0       20.562832    3.334959   -0.454814
    133          1           0       21.460896    2.321278   -1.484624
    134          1           0       19.708547    2.175258   -1.931247
    135          1           0       21.066108    1.169112    2.323092
    136          1           0       22.218223    1.966756    0.995190
    137          1           0       20.902032    2.844924    1.552235
 ---------------------------------------------------------------------

 SCF Done:  E(RCAM-B3LYP) =  -2932.63692233     A.U. after   18 cycles

 Excitation energies and oscillator strengths:

 Excited State   1:      Singlet-A      2.0990 eV  590.67 nm  f=0.1879  <S**2>=0.000
     240 -> 242       -0.20797
     240 -> 243       -0.20693
     241 -> 242        0.60908
     241 -> 243       -0.17628
 This state for optimization and/or second-order correction.
 Total Energy, E(TD-HF/TD-KS) =  -2932.55978370
 Copying the excited state density for this state as the 1-particle RhoCI density.

 The electronic state is 1-A.
 Alpha  occ. eigenvalues --  -46.83726 -19.27353 -19.25151 -19.22150 -19.21657
 Alpha  occ. eigenvalues --  -19.19927 -14.40853 -14.38593 -14.38511 -14.38023
 Alpha  occ. eigenvalues --  -10.38941 -10.38533 -10.36156 -10.32323 -10.31848
 Alpha  occ. eigenvalues --  -10.30463 -10.29814 -10.29635 -10.29302 -10.28728
 Alpha  occ. eigenvalues --  -10.28679 -10.28459 -10.28428 -10.28229 -10.28188
 Alpha  occ. eigenvalues --  -10.28121 -10.27689 -10.27672 -10.27667 -10.27663
 Alpha  occ. eigenvalues --  -10.27458 -10.27443 -10.27399 -10.27357 -10.27332
 Alpha  occ. eigenvalues --  -10.26871 -10.26799 -10.26765 -10.26690 -10.26675
 Alpha  occ. eigenvalues --  -10.26460 -10.26457 -10.26432 -10.26392 -10.26306
 Alpha  occ. eigenvalues --  -10.26257 -10.26253 -10.26138 -10.26135 -10.25998
 Alpha  occ. eigenvalues --  -10.25720 -10.25676 -10.25639 -10.25529 -10.25528
 Alpha  occ. eigenvalues --  -10.25526 -10.25301 -10.25266 -10.25117 -10.24834
 Alpha  occ. eigenvalues --  -10.24820 -10.24363 -10.24163 -10.23852 -10.23453
 Alpha  occ. eigenvalues --   -3.12703  -1.87415  -1.86934  -1.86881  -1.21034
 Alpha  occ. eigenvalues --   -1.20203  -1.11760  -1.11112  -1.09830  -1.06264
 Alpha  occ. eigenvalues --   -1.03397  -1.02351  -1.01343  -0.91437  -0.90938
 Alpha  occ. eigenvalues --   -0.90888  -0.90498  -0.89837  -0.88754  -0.88422
 Alpha  occ. eigenvalues --   -0.88243  -0.87639  -0.87219  -0.86910  -0.85289
 Alpha  occ. eigenvalues --   -0.84944  -0.84198  -0.83543  -0.82822  -0.81993
 Alpha  occ. eigenvalues --   -0.81748  -0.80873  -0.80276  -0.79815  -0.78430
 Alpha  occ. eigenvalues --   -0.77543  -0.76752  -0.76544  -0.75511  -0.75286
 Alpha  occ. eigenvalues --   -0.74982  -0.74721  -0.74126  -0.73098  -0.72517
 Alpha  occ. eigenvalues --   -0.71520  -0.70219  -0.69548  -0.69121  -0.68089
 Alpha  occ. eigenvalues --   -0.66564  -0.66312  -0.65320  -0.64640  -0.64326
 Alpha  occ. eigenvalues --   -0.63751  -0.63224  -0.62586  -0.62447  -0.61909
 Alpha  occ. eigenvalues --   -0.61725  -0.60798  -0.60280  -0.59890  -0.59107
 Alpha  occ. eigenvalues --   -0.58229  -0.57490  -0.57238  -0.57080  -0.56602
 Alpha  occ. eigenvalues --   -0.56049  -0.55783  -0.55329  -0.55285  -0.55024
 Alpha  occ. eigenvalues --   -0.54800  -0.54255  -0.54093  -0.54045  -0.53451
 Alpha  occ. eigenvalues --   -0.53442  -0.53076  -0.52679  -0.52447  -0.51432
 Alpha  occ. eigenvalues --   -0.51298  -0.50906  -0.50765  -0.50679  -0.50608
 Alpha  occ. eigenvalues --   -0.50323  -0.50018  -0.49731  -0.49664  -0.49397
 Alpha  occ. eigenvalues --   -0.49269  -0.48850  -0.48638  -0.48388  -0.48093
 Alpha  occ. eigenvalues --   -0.47922  -0.47505  -0.47462  -0.47321  -0.46909
 Alpha  occ. eigenvalues --   -0.46567  -0.46327  -0.46142  -0.45772  -0.45688
 Alpha  occ. eigenvalues --   -0.45480  -0.45239  -0.45106  -0.44839  -0.44560
 Alpha  occ. eigenvalues --   -0.44333  -0.44281  -0.43994  -0.43921  -0.43815
 Alpha  occ. eigenvalues --   -0.43607  -0.43424  -0.43340  -0.43251  -0.43173
 Alpha  occ. eigenvalues --   -0.43077  -0.42889  -0.42616  -0.42396  -0.42377
 Alpha  occ. eigenvalues --   -0.41918  -0.41816  -0.41358  -0.41301  -0.41245
 Alpha  occ. eigenvalues --   -0.41097  -0.40901  -0.40527  -0.40330  -0.40183
 Alpha  occ. eigenvalues --   -0.40124  -0.40031  -0.39879  -0.39864  -0.39611
 Alpha  occ. eigenvalues --   -0.38740  -0.38641  -0.38297  -0.38175  -0.37780
 Alpha  occ. eigenvalues --   -0.37489  -0.37178  -0.37028  -0.36463  -0.36375
 Alpha  occ. eigenvalues --   -0.36235  -0.36127  -0.36049  -0.35856  -0.35683
 Alpha  occ. eigenvalues --   -0.35249  -0.34987  -0.34387  -0.34116  -0.33386
 Alpha  occ. eigenvalues --   -0.33256  -0.33006  -0.32239  -0.30773  -0.30345
 Alpha  occ. eigenvalues --   -0.29428  -0.29051  -0.26991  -0.26349  -0.22875
 Alpha  occ. eigenvalues --   -0.21095
 Alpha virt. eigenvalues --   -0.06507  -0.03490   0.01741   0.04150   0.06161
 Alpha virt. eigenvalues --    0.06277   0.07040   0.07353   0.07657   0.08016
 Alpha virt. eigenvalues --    0.09006   0.09927   0.11028   0.11375   0.11934

 Mulliken charges:
               1
     1  Mg   0.810793
     2  C    0.035512
     3  C   -0.201737
     4  C   -0.177985
     5  C   -0.173951
     6  N   -0.624520
     7  C    0.316540
     8  C   -0.140279
     9  C   -0.168509
    10  C    0.357209
    11  C   -0.295399
    12  C   -0.161317
    13  C   -0.250277
    14  C    0.589308
    15  O   -0.407462
    16  O   -0.483747
    17  N   -0.705713
    18  C    0.300177
    19  C   -0.002732
    20  C    0.048501
    21  C    0.296776
    22  C   -0.384277
    23  C   -0.107861
    24  C   -0.232043
    25  N   -0.653902
    26  C    0.272991
    27  C    0.009852
    28  C    0.020320
    29  C    0.293235
    30  C   -0.335185
    31  C   -0.266322
    32  C   -0.303121
    33  N   -0.763082
    34  C    0.282140
    35  C    0.008796
    36  C   -0.030102
    37  C    0.371692
    38  C   -0.360054
    39  C    0.355082
    40  O   -0.445153
    41  C   -0.342072
    42  C    0.621298
    43  O   -0.489301
    44  O   -0.404567
    45  C   -0.088475
    46  C   -0.011723
    47  C   -0.149936
    48  C    0.145550
    49  C   -0.353685
    50  C   -0.212413
    51  C   -0.188529
    52  C   -0.161461
    53  C   -0.034266
    54  C   -0.300678
    55  C   -0.173799
    56  C   -0.164638
    57  C   -0.184301
    58  C   -0.052726
    59  C   -0.299883
    60  C   -0.178372
    61  C   -0.206844
    62  C   -0.153491
    63  C   -0.054293
    64  C   -0.298542
    65  C   -0.304745
    66  H    0.064722
    67  H    0.078646
    68  H    0.096608
    69  H    0.131948
    70  H    0.103110
    71  H    0.092423
    72  H    0.119656
    73  H    0.107217
    74  H    0.107711
    75  H    0.089464
    76  H    0.113050
    77  H    0.141212
    78  H    0.131559
    79  H    0.112143
    80  H    0.109072
    81  H    0.104177
    82  H    0.098731
    83  H    0.103921
    84  H    0.094920
    85  H    0.119400
    86  H    0.116953
    87  H    0.090479
    88  H    0.102577
    89  H    0.104924
    90  H    0.109170
    91  H    0.119549
    92  H    0.125253
    93  H    0.161652
    94  H    0.125035
    95  H    0.140724
    96  H    0.121636
    97  H    0.127543
    98  H    0.136735
    99  H    0.121976
   100  H    0.107455
   101  H    0.102059
   102  H    0.126118
   103  H    0.124394
   104  H    0.108236
   105  H    0.095096
   106  H    0.109431
   107  H    0.072623
   108  H    0.091720
   109  H    0.059594
   110  H    0.094428
   111  H    0.079827
   112  H    0.060575
   113  H    0.117443
   114  H    0.097151
   115  H    0.080593
   116  H    0.072031
   117  H    0.097290
   118  H    0.110464
   119  H    0.070068
   120  H    0.083354
   121  H    0.088395
   122  H    0.114473
   123  H    0.076521
   124  H    0.108244
   125  H    0.087460
   126  H    0.061188
   127  H    0.085649
   128  H    0.099484
   129  H    0.076506
   130  H    0.105653
   131  H    0.072462
   132  H    0.081238
   133  H    0.117137
   134  H    0.079275
   135  H    0.097124
   136  H    0.110528
   137  H    0.102516
 Sum of Mulliken charges =   0.00000

 Dipole moment (field-independent basis, Debye):
    X=              2.9823    Y=              2.5977    Z=             -0.7310  Tot=              4.0220
 Quadrupole moment (field-independent basis, Debye-Ang):
   XX=           -337.3095   YY=           -385.6914   ZZ=           -399.1990
   XY=             -5.3291   XZ=              6.6452   YZ=             -1.7179

 Normal termination of Gaussian 09 at Sun Jun 30 04:08:46 2019.
