 Gaussian 09, Revision D.01,
 Gaussian 09:  ES64L-G09RevD.01 24-Apr-2013

 -------------------------------------
 # td=(NStates=1) CAM-B3LYP/6-31G(d,p)
 -------------------------------------

 --
 TD
 --
 Symbolic Z-matrix:
 Charge =  0 Multiplicity = 1

                         Standard orientation:
 ---------------------------------------------------------------------
 Center     Atomic      Atomic             Coordinates (Angstroms)
 Number     Number       Type             X           Y           Z
 ---------------------------------------------------------------------
      1         12           0       -7.190808    0.574181    0.312617
      2          6           0       -4.709962   -1.971458    0.394874
      3          6           0       -4.854883    2.784140    1.175974
      4          6           0       -9.427042    3.148591   -0.324405
      5          6           0       -9.490039   -1.668298   -0.629290
      6          7           0       -5.109998    0.412289    0.881712
      7          6           0       -4.286264   -0.669892    0.767418
      8          6           0       -2.910087   -0.360094    1.230225
      9          6           0       -2.978647    1.137297    1.657987
     10          6           0       -4.407310    1.474646    1.168760
     11          6           0       -2.836477    1.404393    3.109747
     12          6           0       -1.827957   -0.768975    0.066937
     13          6           0       -0.427111   -0.533474    0.456385
     14          6           0        0.510126   -0.747253   -0.630408
     15          8           0        0.222850   -1.055684   -1.799965
     16          8           0        1.831783   -0.595234   -0.196165
     17          7           0       -7.174261    2.572713    0.470291
     18          6           0       -6.133997    3.326287    0.834651
     19          6           0       -6.354186    4.739011    0.828093
     20          6           0       -7.642954    4.840038    0.301151
     21          6           0       -8.160303    3.475720    0.080210
     22          6           0       -5.545431    5.921514    1.254659
     23          6           0       -8.513850    6.050057    0.147993
     24          6           0       -8.100894    7.332743   -0.174920
     25          7           0       -9.201445    0.712483   -0.241506
     26          6           0       -9.975645    1.841812   -0.461700
     27          6           0      -11.224831    1.451231   -1.065446
     28          6           0      -11.225623    0.045263   -1.098132
     29          6           0       -9.975926   -0.380515   -0.611562
     30          6           0      -12.314793    2.509911   -1.433062
     31          6           0      -12.388770   -0.829750   -1.529317
     32          6           0      -12.411191   -0.983830   -3.077312
     33          7           0       -7.199529   -1.383618   -0.101144
     34          6           0       -8.177533   -2.218012   -0.524736
     35          6           0       -7.790100   -3.678497   -0.501557
     36          6           0       -6.409770   -3.516488   -0.183143
     37          6           0       -6.064554   -2.250110    0.047386
     38          6           0       -8.598435   -4.961280   -0.751509
     39          6           0       -5.148750   -4.244819   -0.052239
     40          8           0       -5.017113   -5.435717   -0.126784
     41          6           0       -4.067832   -3.287057    0.376725
     42          6           0       -3.535095   -3.706416    1.728347
     43          8           0       -3.808477   -3.093716    2.688035
     44          8           0       -2.616222   -4.760102    1.752179
     45          6           0       -2.093805   -5.156350    2.956891
     46          6           0        2.813695   -0.778681   -1.217220
     47          6           0        4.181667   -0.646529   -0.611149
     48          6           0        5.139390    0.280792   -0.908410
     49          6           0        5.029078    1.159653   -2.137876
     50          6           0        6.323802    0.376281   -0.114745
     51          6           0        7.503201   -0.102858   -0.971518
     52          6           0        8.894003   -0.054790   -0.272993
     53          6           0       10.176220   -0.517128   -1.002499
     54          6           0        9.962140   -2.005024   -1.374528
     55          6           0       11.407508   -0.372305   -0.107818
     56          6           0       12.795419   -0.567397   -0.767501
     57          6           0       13.918445   -0.062540    0.179553
     58          6           0       15.338989   -0.217267   -0.526639
     59          6           0       15.580221   -1.706671   -0.699370
     60          6           0       16.298325    0.556633    0.452587
     61          6           0       17.773545    0.545998    0.004233
     62          6           0       18.781720    1.366289    0.871826
     63          6           0       20.112788    1.363880    0.210640
     64          6           0       20.262594    2.241579   -1.004309
     65          6           0       21.084509    2.045686    1.235954
     66          1           0       -4.006718    3.516512    1.607564
     67          1           0       -9.813667    4.116712   -0.889569
     68          1           0      -10.288013   -2.351945   -0.884544
     69          1           0       -2.610046   -1.082827    1.872416
     70          1           0       -2.054075    1.448005    1.157903
     71          1           0       -2.035528    0.972956    3.682429
     72          1           0       -2.891705    2.631078    3.338994
     73          1           0       -3.707947    0.821285    3.510029
     74          1           0       -1.888277   -1.894065   -0.166233
     75          1           0       -2.275752   -0.302556   -0.963106
     76          1           0       -0.421074    0.653909    0.741866
     77          1           0       -0.219716   -1.035444    1.238438
     78          1           0       -5.081899    6.569188    0.382547
     79          1           0       -6.140906    6.688378    1.544487
     80          1           0       -4.679868    5.550828    1.975801
     81          1           0       -9.506102    5.932445    0.273502
     82          1           0       -8.842868    8.049388   -0.253552
     83          1           0       -7.059722    7.725463   -0.213822
     84          1           0      -12.012582    2.725803   -2.505871
     85          1           0      -13.460123    2.123863   -1.654922
     86          1           0      -12.338286    3.185388   -0.625818
     87          1           0      -12.150252   -1.774149   -0.806131
     88          1           0      -13.404675   -0.528417   -1.033107
     89          1           0      -13.467511   -1.475739   -3.422400
     90          1           0      -12.484828   -0.081620   -3.634203
     91          1           0      -11.595094   -1.391980   -3.529456
     92          1           0       -9.214194   -4.823817   -1.632106
     93          1           0       -7.906589   -5.846014   -0.857579
     94          1           0       -9.436339   -5.314428    0.061746
     95          1           0       -3.269306   -3.465794   -0.390257
     96          1           0       -1.530674   -4.408840    3.384131
     97          1           0       -2.823924   -5.485375    3.798998
     98          1           0       -1.400544   -6.000264    2.783063
     99          1           0        2.631106   -1.864216   -1.587935
    100          1           0        2.437870    0.010179   -1.960177
    101          1           0        4.325051   -1.173160    0.433715
    102          1           0        3.888246    1.518592   -2.419023
    103          1           0        5.588767    1.939490   -1.948340
    104          1           0        5.339879    0.689178   -3.171966
    105          1           0        6.530325    1.433579    0.174341
    106          1           0        6.377192   -0.438621    0.767176
    107          1           0        7.338391   -1.270195   -1.315320
    108          1           0        7.626991    0.420370   -1.909411
    109          1           0        9.107787    0.919303    0.224687
    110          1           0        8.830607   -0.541753    0.688857
    111          1           0       10.494141   -0.014080   -1.821159
    112          1           0        8.997026   -2.040278   -2.061881
    113          1           0       10.837880   -2.254294   -1.946840
    114          1           0        9.879722   -2.750828   -0.557616
    115          1           0       11.359738    0.693168    0.388374
    116          1           0       11.268580   -1.012686    0.802190
    117          1           0       12.910783   -1.588228   -1.089929
    118          1           0       12.964824   -0.067109   -1.479659
    119          1           0       13.624699    0.923346    0.525468
    120          1           0       14.104303   -0.548550    1.089061
    121          1           0       15.324507    0.391848   -1.661842
    122          1           0       15.561422   -2.482093    0.148262
    123          1           0       14.930492   -2.004276   -1.469423
    124          1           0       16.773796   -1.760885   -0.980115
    125          1           0       15.897788    1.438415    0.521137
    126          1           0       16.045700   -0.101383    1.558120
    127          1           0       18.172133   -0.512429   -0.150300
    128          1           0       17.683746    1.116225   -1.070068
    129          1           0       18.340001    2.346895    1.085740
    130          1           0       18.772852    0.992695    1.737401
    131          1           0       20.580334    0.167210   -0.052657
    132          1           0       20.135654    3.227239   -0.857684
    133          1           0       21.132835    2.123109   -1.551976
    134          1           0       19.390615    1.891405   -1.829269
    135          1           0       20.941562    1.459678    2.119549
    136          1           0       22.201491    2.126786    1.214795
    137          1           0       20.589682    2.850684    1.523841
 ---------------------------------------------------------------------

 SCF Done:  E(RCAM-B3LYP) =  -2932.55602781     A.U. after   18 cycles

 Excitation energies and oscillator strengths:

 Excited State   1:      Singlet-A      2.0803 eV  595.99 nm  f=0.2090  <S**2>=0.000
     240 -> 242       -0.15288
     240 -> 243        0.26290
     241 -> 242        0.62348
     241 -> 243        0.11105
 This state for optimization and/or second-order correction.
 Total Energy, E(TD-HF/TD-KS) =  -2932.47957742
 Copying the excited state density for this state as the 1-particle RhoCI density.

 The electronic state is 1-A.
 Alpha  occ. eigenvalues --  -46.84281 -19.25710 -19.25383 -19.21786 -19.21379
 Alpha  occ. eigenvalues --  -19.19719 -14.41764 -14.39687 -14.39083 -14.38914
 Alpha  occ. eigenvalues --  -10.39642 -10.39571 -10.34143 -10.32165 -10.30906
 Alpha  occ. eigenvalues --  -10.30769 -10.30599 -10.30540 -10.29590 -10.29517
 Alpha  occ. eigenvalues --  -10.29405 -10.29339 -10.28604 -10.28528 -10.28224
 Alpha  occ. eigenvalues --  -10.28168 -10.28078 -10.27968 -10.27919 -10.27896
 Alpha  occ. eigenvalues --  -10.27849 -10.27779 -10.27741 -10.27694 -10.27600
 Alpha  occ. eigenvalues --  -10.27539 -10.27469 -10.27430 -10.27426 -10.27405
 Alpha  occ. eigenvalues --  -10.27269 -10.27044 -10.26989 -10.26823 -10.26761
 Alpha  occ. eigenvalues --  -10.26726 -10.26686 -10.26566 -10.26482 -10.26451
 Alpha  occ. eigenvalues --  -10.26397 -10.26001 -10.25940 -10.25800 -10.25747
 Alpha  occ. eigenvalues --  -10.25610 -10.25102 -10.25026 -10.24817 -10.24445
 Alpha  occ. eigenvalues --  -10.24234 -10.23837 -10.23829 -10.23107 -10.22917
 Alpha  occ. eigenvalues --   -3.13324  -1.88026  -1.87557  -1.87514  -1.19106
 Alpha  occ. eigenvalues --   -1.16528  -1.11752  -1.11329  -1.08184  -1.05718
 Alpha  occ. eigenvalues --   -1.04159  -1.02830  -1.01723  -0.94090  -0.91924
 Alpha  occ. eigenvalues --   -0.91135  -0.90727  -0.90056  -0.89183  -0.88908
 Alpha  occ. eigenvalues --   -0.88365  -0.87858  -0.87068  -0.86839  -0.85429
 Alpha  occ. eigenvalues --   -0.84842  -0.84549  -0.83379  -0.83050  -0.82437
 Alpha  occ. eigenvalues --   -0.81320  -0.81030  -0.80457  -0.79781  -0.78246
 Alpha  occ. eigenvalues --   -0.77977  -0.77316  -0.76799  -0.76582  -0.76126
 Alpha  occ. eigenvalues --   -0.75916  -0.74697  -0.74244  -0.73144  -0.72119
 Alpha  occ. eigenvalues --   -0.71347  -0.70825  -0.70017  -0.69322  -0.68611
 Alpha  occ. eigenvalues --   -0.67622  -0.66313  -0.65762  -0.65364  -0.64945
 Alpha  occ. eigenvalues --   -0.64012  -0.63839  -0.63444  -0.62390  -0.61942
 Alpha  occ. eigenvalues --   -0.61317  -0.60757  -0.60542  -0.60206  -0.59537
 Alpha  occ. eigenvalues --   -0.59113  -0.58064  -0.57847  -0.57647  -0.57292
 Alpha  occ. eigenvalues --   -0.56231  -0.55978  -0.55403  -0.54869  -0.54651
 Alpha  occ. eigenvalues --   -0.54402  -0.54237  -0.54012  -0.53979  -0.53117
 Alpha  occ. eigenvalues --   -0.52896  -0.52628  -0.52349  -0.52007  -0.51647
 Alpha  occ. eigenvalues --   -0.51399  -0.51177  -0.51100  -0.50597  -0.50373
 Alpha  occ. eigenvalues --   -0.50280  -0.50065  -0.49904  -0.49617  -0.49515
 Alpha  occ. eigenvalues --   -0.49456  -0.49095  -0.48864  -0.48480  -0.48395
 Alpha  occ. eigenvalues --   -0.48218  -0.47965  -0.47716  -0.47519  -0.47364
 Alpha  occ. eigenvalues --   -0.46600  -0.46489  -0.46055  -0.45915  -0.45798
 Alpha  occ. eigenvalues --   -0.45575  -0.45513  -0.45383  -0.45109  -0.45003
 Alpha  occ. eigenvalues --   -0.44809  -0.44603  -0.44443  -0.44261  -0.44039
 Alpha  occ. eigenvalues --   -0.43906  -0.43875  -0.43520  -0.43489  -0.43366
 Alpha  occ. eigenvalues --   -0.42873  -0.42700  -0.42638  -0.42605  -0.42445
 Alpha  occ. eigenvalues --   -0.42179  -0.41973  -0.41815  -0.41418  -0.41123
 Alpha  occ. eigenvalues --   -0.40916  -0.40879  -0.40776  -0.40717  -0.40425
 Alpha  occ. eigenvalues --   -0.40279  -0.39910  -0.39845  -0.39738  -0.39316
 Alpha  occ. eigenvalues --   -0.39040  -0.38497  -0.38312  -0.37789  -0.37617
 Alpha  occ. eigenvalues --   -0.37457  -0.37238  -0.36944  -0.36790  -0.36683
 Alpha  occ. eigenvalues --   -0.36390  -0.36148  -0.35908  -0.35544  -0.35222
 Alpha  occ. eigenvalues --   -0.35192  -0.35048  -0.34244  -0.34177  -0.34014
 Alpha  occ. eigenvalues --   -0.33806  -0.32844  -0.32570  -0.30758  -0.29847
 Alpha  occ. eigenvalues --   -0.29020  -0.28642  -0.28179  -0.27459  -0.22888
 Alpha  occ. eigenvalues --   -0.21424
 Alpha virt. eigenvalues --   -0.06499  -0.03525   0.01866   0.03578   0.04558
 Alpha virt. eigenvalues --    0.05196   0.05736   0.06190   0.06847   0.07316
 Alpha virt. eigenvalues --    0.08054   0.10263   0.10808   0.11544   0.11555

 Mulliken charges:
               1
     1  Mg   0.824002
     2  C    0.084720
     3  C   -0.218210
     4  C   -0.193675
     5  C   -0.175883
     6  N   -0.642344
     7  C    0.323130
     8  C   -0.163987
     9  C   -0.127869
    10  C    0.352541
    11  C   -0.287124
    12  C   -0.210936
    13  C   -0.229485
    14  C    0.621432
    15  O   -0.481926
    16  O   -0.502051
    17  N   -0.716943
    18  C    0.325052
    19  C    0.074950
    20  C   -0.015631
    21  C    0.301243
    22  C   -0.364316
    23  C   -0.096762
    24  C   -0.237003
    25  N   -0.680978
    26  C    0.266665
    27  C   -0.007010
    28  C    0.008163
    29  C    0.321675
    30  C   -0.349125
    31  C   -0.222950
    32  C   -0.306733
    33  N   -0.711031
    34  C    0.247595
    35  C    0.039784
    36  C    0.010407
    37  C    0.268849
    38  C   -0.376670
    39  C    0.336953
    40  O   -0.451433
    41  C   -0.352693
    42  C    0.636642
    43  O   -0.421924
    44  O   -0.463121
    45  C   -0.078508
    46  C    0.035586
    47  C   -0.144240
    48  C    0.151403
    49  C   -0.344483
    50  C   -0.237688
    51  C   -0.180907
    52  C   -0.174945
    53  C   -0.049751
    54  C   -0.302268
    55  C   -0.191085
    56  C   -0.158531
    57  C   -0.184657
    58  C   -0.069777
    59  C   -0.291569
    60  C   -0.133993
    61  C   -0.181881
    62  C   -0.158348
    63  C   -0.047615
    64  C   -0.278528
    65  C   -0.322217
    66  H    0.070141
    67  H    0.104199
    68  H    0.081711
    69  H    0.121190
    70  H    0.099285
    71  H    0.117260
    72  H    0.082884
    73  H    0.119348
    74  H    0.106727
    75  H    0.110638
    76  H    0.120769
    77  H    0.144972
    78  H    0.107407
    79  H    0.138277
    80  H    0.105330
    81  H    0.103825
    82  H    0.107411
    83  H    0.101170
    84  H    0.131677
    85  H    0.091280
    86  H    0.134282
    87  H    0.085916
    88  H    0.106756
    89  H    0.079732
    90  H    0.119177
    91  H    0.128471
    92  H    0.130588
    93  H    0.151602
    94  H    0.108135
    95  H    0.171563
    96  H    0.115674
    97  H    0.107275
    98  H    0.119978
    99  H    0.114732
   100  H    0.115574
   101  H    0.083398
   102  H    0.094515
   103  H    0.120187
   104  H    0.118809
   105  H    0.107230
   106  H    0.098758
   107  H    0.081203
   108  H    0.104256
   109  H    0.072480
   110  H    0.088861
   111  H    0.093046
   112  H    0.084308
   113  H    0.096746
   114  H    0.102852
   115  H    0.064275
   116  H    0.085619
   117  H    0.096440
   118  H    0.101746
   119  H    0.084255
   120  H    0.097889
   121  H    0.045355
   122  H    0.103518
   123  H    0.117313
   124  H    0.073694
   125  H    0.106129
   126  H    0.032777
   127  H    0.093591
   128  H    0.074881
   129  H    0.090923
   130  H    0.110026
   131  H    0.045819
   132  H    0.112118
   133  H    0.114516
   134  H    0.050742
   135  H    0.092359
   136  H    0.101420
   137  H    0.111000
 Sum of Mulliken charges =   0.00000

 Dipole moment (field-independent basis, Debye):
    X=              1.4691    Y=              5.4417    Z=              1.1592  Tot=              5.7545
 Quadrupole moment (field-independent basis, Debye-Ang):
   XX=           -342.6778   YY=           -389.4288   ZZ=           -397.5454
   XY=            -18.4345   XZ=             17.5892   YZ=             -5.8610

 Normal termination of Gaussian 09 at Fri Jun 28 02:32:05 2019.
