 Gaussian 09, Revision D.01,
 Gaussian 09:  ES64L-G09RevD.01 24-Apr-2013

 -------------------------------------
 # td=(NStates=1) CAM-B3LYP/6-31G(d,p)
 -------------------------------------

 --
 TD
 --
 Symbolic Z-matrix:
 Charge =  0 Multiplicity = 1

                         Standard orientation:
 ---------------------------------------------------------------------
 Center     Atomic      Atomic             Coordinates (Angstroms)
 Number     Number       Type             X           Y           Z
 ---------------------------------------------------------------------
      1         12           0       -7.124354    0.609410    0.148702
      2          6           0       -4.855591   -1.963310    0.578106
      3          6           0       -4.787489    2.759604    1.117439
      4          6           0       -9.388821    3.028338   -0.297878
      5          6           0       -9.540611   -1.774601   -0.912392
      6          7           0       -5.086072    0.462241    0.625669
      7          6           0       -4.337304   -0.679130    0.753195
      8          6           0       -2.926586   -0.383617    1.312575
      9          6           0       -3.057828    1.140931    1.735108
     10          6           0       -4.373107    1.493333    1.181166
     11          6           0       -2.925218    1.259970    3.211851
     12          6           0       -1.995849   -0.548584    0.076286
     13          6           0       -0.521402   -0.514498    0.507092
     14          6           0        0.487822   -0.813417   -0.546906
     15          8           0        0.181123   -0.951951   -1.760185
     16          8           0        1.739742   -0.497717   -0.189874
     17          7           0       -7.117079    2.588347    0.395372
     18          6           0       -6.075291    3.403522    0.840506
     19          6           0       -6.405576    4.842353    0.857891
     20          6           0       -7.738971    4.818268    0.550448
     21          6           0       -8.143176    3.488919    0.201126
     22          6           0       -5.480786    5.825243    1.233609
     23          6           0       -8.643260    5.921863    0.381276
     24          6           0       -8.221204    7.230019    0.223956
     25          7           0       -9.145588    0.599897   -0.547413
     26          6           0       -9.847249    1.733127   -0.611035
     27          6           0      -11.215730    1.476735   -1.214445
     28          6           0      -11.289064    0.080132   -1.280153
     29          6           0       -9.968222   -0.455929   -0.923602
     30          6           0      -12.351439    2.477786   -1.435393
     31          6           0      -12.421099   -0.746771   -1.855286
     32          6           0      -12.202793   -1.055687   -3.308415
     33          7           0       -7.147930   -1.395303   -0.192402
     34          6           0       -8.249834   -2.167455   -0.527926
     35          6           0       -7.850015   -3.620544   -0.521629
     36          6           0       -6.507114   -3.625190   -0.181829
     37          6           0       -6.146275   -2.222632    0.018149
     38          6           0       -8.715588   -4.789590   -0.822317
     39          6           0       -5.318319   -4.324676    0.258007
     40          8           0       -5.208835   -5.520553    0.293367
     41          6           0       -4.216178   -3.257255    0.613632
     42          6           0       -3.446745   -3.658148    1.925062
     43          8           0       -3.480893   -3.035158    3.011975
     44          8           0       -2.789184   -4.809217    1.711980
     45          6           0       -2.091434   -5.225307    2.878289
     46          6           0        2.792981   -0.707429   -1.170629
     47          6           0        4.090868   -0.495298   -0.552122
     48          6           0        5.150538    0.346992   -0.924127
     49          6           0        4.996275    1.245620   -2.129872
     50          6           0        6.490762    0.457380   -0.083477
     51          6           0        7.600769   -0.077214   -0.906719
     52          6           0        8.864251   -0.005973   -0.047575
     53          6           0       10.183824   -0.531260   -0.786175
     54          6           0       10.096937   -2.037848   -1.274728
     55          6           0       11.487879   -0.328555   -0.016133
     56          6           0       12.807111   -0.622573   -0.781590
     57          6           0       13.991752   -0.130470    0.061300
     58          6           0       15.376371   -0.190906   -0.593941
     59          6           0       15.645116   -1.456572   -1.231997
     60          6           0       16.419168    0.135689    0.498184
     61          6           0       17.778059    0.514126   -0.151691
     62          6           0       18.773415    1.252227    0.754812
     63          6           0       20.293829    1.434779    0.193958
     64          6           0       20.174005    2.263435   -1.070842
     65          6           0       21.126650    1.925130    1.316523
     66          1           0       -4.133222    3.512449    1.508899
     67          1           0      -10.207834    3.772891   -0.419896
     68          1           0      -10.182491   -2.470091   -1.318960
     69          1           0       -2.300399   -1.000777    2.010149
     70          1           0       -2.288290    1.809727    1.328870
     71          1           0       -1.991283    0.897327    3.704158
     72          1           0       -2.997575    2.401160    3.405345
     73          1           0       -3.497317    0.724896    3.745926
     74          1           0       -2.102245   -1.596182   -0.242213
     75          1           0       -2.162438    0.154186   -0.531007
     76          1           0       -0.388821    0.424618    0.891239
     77          1           0       -0.382377   -1.344125    1.390011
     78          1           0       -5.097039    6.584282    0.345295
     79          1           0       -6.025394    6.590875    1.842974
     80          1           0       -4.558452    5.466105    1.747613
     81          1           0       -9.604959    5.867865    0.279860
     82          1           0       -8.961900    8.165795    0.029535
     83          1           0       -7.118130    7.512602    0.237663
     84          1           0      -12.041819    3.315415   -1.998581
     85          1           0      -13.249869    1.984469   -1.849424
     86          1           0      -12.476957    3.076981   -0.504418
     87          1           0      -12.433185   -1.666406   -1.356490
     88          1           0      -13.448578   -0.155193   -1.844632
     89          1           0      -12.963711   -1.612434   -3.920317
     90          1           0      -11.815593   -0.039640   -3.847796
     91          1           0      -11.418624   -1.834198   -3.501104
     92          1           0       -9.193245   -4.807391   -1.927026
     93          1           0       -7.998249   -5.785482   -0.544867
     94          1           0       -9.515852   -4.770618   -0.050181
     95          1           0       -3.471792   -3.547196   -0.320084
     96          1           0       -1.437404   -4.578662    3.336912
     97          1           0       -2.729277   -5.507421    3.608727
     98          1           0       -1.379138   -6.151076    2.434482
     99          1           0        2.719330   -1.620694   -1.552831
    100          1           0        2.664529    0.236603   -1.924014
    101          1           0        4.493205   -0.988622    0.327060
    102          1           0        4.067545    1.682119   -2.380473
    103          1           0        5.274452    2.352147   -1.863900
    104          1           0        5.367974    0.681514   -2.971127
    105          1           0        6.574515    1.486801    0.256903
    106          1           0        6.351257   -0.198069    0.908067
    107          1           0        7.430226   -1.117547   -1.292715
    108          1           0        7.775835    0.418061   -1.735223
    109          1           0        9.033061    1.084945    0.126561
    110          1           0        8.799372   -0.621691    0.856065
    111          1           0       10.137506    0.096531   -1.584738
    112          1           0        9.070767   -2.403388   -1.782474
    113          1           0       10.971979   -2.097531   -2.109848
    114          1           0       10.148789   -2.632741   -0.375768
    115          1           0       11.616644    0.591737    0.509464
    116          1           0       11.431277   -1.019421    0.848002
    117          1           0       12.959364   -1.803724   -0.899868
    118          1           0       12.667904   -0.088201   -1.730731
    119          1           0       13.701748    1.076333    0.369630
    120          1           0       14.164116   -0.557741    1.082262
    121          1           0       15.632945    0.712978   -1.327235
    122          1           0       15.840440   -2.149669   -0.479885
    123          1           0       14.712867   -1.906736   -1.738106
    124          1           0       16.568818   -1.482846   -2.093256
    125          1           0       16.086805    0.950884    1.166519
    126          1           0       16.208540   -0.901693    1.096755
    127          1           0       18.375685   -0.448339   -0.456594
    128          1           0       17.527057    1.228901   -0.952154
    129          1           0       18.516651    2.162467    1.008447
    130          1           0       18.872690    0.634438    1.728316
    131          1           0       20.467962    0.419921    0.030551
    132          1           0       19.600551    3.337727   -0.735589
    133          1           0       21.152300    2.493432   -1.708797
    134          1           0       19.743845    1.759677   -2.017305
    135          1           0       21.011624    1.291400    2.094649
    136          1           0       22.152553    1.658380    0.954991
    137          1           0       20.874752    2.833974    1.674300
 ---------------------------------------------------------------------

 SCF Done:  E(RCAM-B3LYP) =  -2932.61256240     A.U. after   15 cycles

 Excitation energies and oscillator strengths:

 Excited State   1:      Singlet-A      1.9499 eV  635.84 nm  f=0.3050  <S**2>=0.000
     240 -> 243        0.22894
     241 -> 242        0.66229
 This state for optimization and/or second-order correction.
 Total Energy, E(TD-HF/TD-KS) =  -2932.54090338
 Copying the excited state density for this state as the 1-particle RhoCI density.

 The electronic state is 1-A.
 Alpha  occ. eigenvalues --  -46.84716 -19.27435 -19.25998 -19.21249 -19.19919
 Alpha  occ. eigenvalues --  -19.19743 -14.41514 -14.39877 -14.39663 -14.39630
 Alpha  occ. eigenvalues --  -10.40061 -10.38922 -10.34830 -10.31916 -10.31263
 Alpha  occ. eigenvalues --  -10.30953 -10.30631 -10.29792 -10.29635 -10.29628
 Alpha  occ. eigenvalues --  -10.29446 -10.29348 -10.28944 -10.28882 -10.28856
 Alpha  occ. eigenvalues --  -10.28528 -10.28261 -10.28160 -10.27890 -10.27839
 Alpha  occ. eigenvalues --  -10.27570 -10.27500 -10.27457 -10.27362 -10.27357
 Alpha  occ. eigenvalues --  -10.27286 -10.27193 -10.27184 -10.27096 -10.27065
 Alpha  occ. eigenvalues --  -10.26959 -10.26744 -10.26557 -10.26557 -10.26465
 Alpha  occ. eigenvalues --  -10.26461 -10.26288 -10.26176 -10.26008 -10.25964
 Alpha  occ. eigenvalues --  -10.25950 -10.25731 -10.25555 -10.25455 -10.25404
 Alpha  occ. eigenvalues --  -10.25360 -10.25194 -10.25084 -10.24983 -10.24722
 Alpha  occ. eigenvalues --  -10.24591 -10.24543 -10.24441 -10.23824 -10.22751
 Alpha  occ. eigenvalues --   -3.13734  -1.88438  -1.87968  -1.87923  -1.18715
 Alpha  occ. eigenvalues --   -1.17320  -1.11645  -1.08065  -1.06437  -1.04568
 Alpha  occ. eigenvalues --   -1.03581  -1.03230  -1.02238  -0.92789  -0.91181
 Alpha  occ. eigenvalues --   -0.90808  -0.90509  -0.90266  -0.89218  -0.89064
 Alpha  occ. eigenvalues --   -0.88599  -0.88363  -0.87721  -0.87340  -0.86510
 Alpha  occ. eigenvalues --   -0.85872  -0.84407  -0.83498  -0.83139  -0.82624
 Alpha  occ. eigenvalues --   -0.82031  -0.81460  -0.80373  -0.80059  -0.78399
 Alpha  occ. eigenvalues --   -0.78250  -0.77229  -0.76309  -0.75963  -0.75799
 Alpha  occ. eigenvalues --   -0.75140  -0.74523  -0.73643  -0.73288  -0.72044
 Alpha  occ. eigenvalues --   -0.71728  -0.70280  -0.69119  -0.68832  -0.68113
 Alpha  occ. eigenvalues --   -0.66966  -0.66807  -0.65825  -0.65400  -0.64569
 Alpha  occ. eigenvalues --   -0.64365  -0.63727  -0.63294  -0.63203  -0.62787
 Alpha  occ. eigenvalues --   -0.61441  -0.61212  -0.60408  -0.59983  -0.59249
 Alpha  occ. eigenvalues --   -0.58896  -0.58688  -0.57960  -0.57457  -0.56621
 Alpha  occ. eigenvalues --   -0.56339  -0.56214  -0.55916  -0.55262  -0.55051
 Alpha  occ. eigenvalues --   -0.54804  -0.54472  -0.54146  -0.53755  -0.53303
 Alpha  occ. eigenvalues --   -0.52789  -0.52733  -0.52276  -0.51865  -0.51603
 Alpha  occ. eigenvalues --   -0.51399  -0.51096  -0.50999  -0.50678  -0.50492
 Alpha  occ. eigenvalues --   -0.50330  -0.50117  -0.49900  -0.49894  -0.49541
 Alpha  occ. eigenvalues --   -0.49447  -0.49365  -0.49198  -0.48741  -0.48609
 Alpha  occ. eigenvalues --   -0.48435  -0.48250  -0.47721  -0.47541  -0.47228
 Alpha  occ. eigenvalues --   -0.47195  -0.46369  -0.46192  -0.46079  -0.45972
 Alpha  occ. eigenvalues --   -0.45907  -0.45579  -0.45338  -0.45328  -0.45193
 Alpha  occ. eigenvalues --   -0.45003  -0.44630  -0.44452  -0.44116  -0.44032
 Alpha  occ. eigenvalues --   -0.43939  -0.43725  -0.43530  -0.43156  -0.43097
 Alpha  occ. eigenvalues --   -0.43009  -0.42860  -0.42618  -0.42168  -0.42001
 Alpha  occ. eigenvalues --   -0.41832  -0.41600  -0.41486  -0.41292  -0.41120
 Alpha  occ. eigenvalues --   -0.40939  -0.40778  -0.40598  -0.40357  -0.39911
 Alpha  occ. eigenvalues --   -0.39617  -0.39586  -0.39538  -0.39292  -0.38957
 Alpha  occ. eigenvalues --   -0.38629  -0.38337  -0.38140  -0.37983  -0.37899
 Alpha  occ. eigenvalues --   -0.37664  -0.37467  -0.37446  -0.36949  -0.36727
 Alpha  occ. eigenvalues --   -0.36657  -0.36276  -0.35833  -0.35728  -0.35254
 Alpha  occ. eigenvalues --   -0.34940  -0.34743  -0.34292  -0.33887  -0.33657
 Alpha  occ. eigenvalues --   -0.32524  -0.32390  -0.31615  -0.30760  -0.29930
 Alpha  occ. eigenvalues --   -0.29646  -0.29256  -0.28098  -0.27431  -0.23009
 Alpha  occ. eigenvalues --   -0.20947
 Alpha virt. eigenvalues --   -0.06805  -0.02813   0.01922   0.03738   0.04714
 Alpha virt. eigenvalues --    0.05069   0.05479   0.05696   0.07030   0.07211
 Alpha virt. eigenvalues --    0.07814   0.10622   0.10760   0.10842   0.11770

 Mulliken charges:
               1
     1  Mg   0.831039
     2  C    0.121391
     3  C   -0.201443
     4  C   -0.181658
     5  C   -0.148028
     6  N   -0.642773
     7  C    0.298834
     8  C   -0.165615
     9  C   -0.150570
    10  C    0.369146
    11  C   -0.284204
    12  C   -0.141240
    13  C   -0.280535
    14  C    0.597200
    15  O   -0.492570
    16  O   -0.469064
    17  N   -0.702644
    18  C    0.241207
    19  C    0.130794
    20  C    0.009793
    21  C    0.318610
    22  C   -0.423641
    23  C   -0.046812
    24  C   -0.261543
    25  N   -0.684877
    26  C    0.306810
    27  C    0.022112
    28  C   -0.005768
    29  C    0.289145
    30  C   -0.373339
    31  C   -0.224166
    32  C   -0.299064
    33  N   -0.702220
    34  C    0.272448
    35  C    0.005601
    36  C    0.058862
    37  C    0.227055
    38  C   -0.381811
    39  C    0.351950
    40  O   -0.450838
    41  C   -0.347378
    42  C    0.628499
    43  O   -0.501387
    44  O   -0.420595
    45  C   -0.082160
    46  C    0.050286
    47  C   -0.121915
    48  C    0.060903
    49  C   -0.370012
    50  C   -0.209091
    51  C   -0.160736
    52  C   -0.189696
    53  C   -0.074715
    54  C   -0.303860
    55  C   -0.175423
    56  C   -0.173330
    57  C   -0.165898
    58  C   -0.051851
    59  C   -0.289862
    60  C   -0.165357
    61  C   -0.170921
    62  C   -0.191673
    63  C   -0.062587
    64  C   -0.285324
    65  C   -0.296137
    66  H    0.051787
    67  H    0.077028
    68  H    0.088918
    69  H    0.119085
    70  H    0.110124
    71  H    0.099614
    72  H    0.084209
    73  H    0.134643
    74  H    0.116457
    75  H    0.118512
    76  H    0.144335
    77  H    0.100606
    78  H    0.105669
    79  H    0.131643
    80  H    0.125235
    81  H    0.081482
    82  H    0.096296
    83  H    0.094882
    84  H    0.128429
    85  H    0.119061
    86  H    0.121374
    87  H    0.109961
    88  H    0.094042
    89  H    0.100847
    90  H    0.093827
    91  H    0.096646
    92  H    0.118055
    93  H    0.131033
    94  H    0.132694
    95  H    0.153987
    96  H    0.135069
    97  H    0.142922
    98  H    0.095511
    99  H    0.139360
   100  H    0.108671
   101  H    0.076424
   102  H    0.125720
   103  H    0.092940
   104  H    0.136570
   105  H    0.113107
   106  H    0.086477
   107  H    0.096180
   108  H    0.113324
   109  H    0.088950
   110  H    0.088549
   111  H    0.087313
   112  H    0.080939
   113  H    0.096905
   114  H    0.111125
   115  H    0.092942
   116  H    0.083089
   117  H    0.091025
   118  H    0.105188
   119  H    0.052117
   120  H    0.094129
   121  H    0.064926
   122  H    0.104266
   123  H    0.095967
   124  H    0.079925
   125  H    0.093791
   126  H    0.059738
   127  H    0.086310
   128  H    0.103454
   129  H    0.093883
   130  H    0.069750
   131  H    0.093546
   132  H    0.071097
   133  H    0.077641
   134  H    0.104498
   135  H    0.112390
   136  H    0.097305
   137  H    0.109130
 Sum of Mulliken charges =   0.00000

 Dipole moment (field-independent basis, Debye):
    X=              1.6285    Y=              4.2787    Z=              0.8547  Tot=              4.6572
 Quadrupole moment (field-independent basis, Debye-Ang):
   XX=           -341.3923   YY=           -389.9822   ZZ=           -401.3841
   XY=            -22.7167   XZ=             10.0249   YZ=             -1.0638

 Normal termination of Gaussian 09 at Fri Jun 28 23:41:25 2019.
