 Gaussian 09, Revision D.01,
 Gaussian 09:  ES64L-G09RevD.01 24-Apr-2013

 -------------------------------------
 # td=(NStates=1) CAM-B3LYP/6-31G(d,p)
 -------------------------------------

 --
 TD
 --
 Symbolic Z-matrix:
 Charge =  0 Multiplicity = 1

                         Standard orientation:
 ---------------------------------------------------------------------
 Center     Atomic      Atomic             Coordinates (Angstroms)
 Number     Number       Type             X           Y           Z
 ---------------------------------------------------------------------
      1         12           0       -7.167202    0.602964    0.074108
      2          6           0       -4.875175   -1.915757    0.514504
      3          6           0       -4.736461    2.843299    1.205199
      4          6           0       -9.469735    3.037394   -0.290513
      5          6           0       -9.574909   -1.746967   -0.816071
      6          7           0       -5.127037    0.415807    0.747942
      7          6           0       -4.392544   -0.652781    0.809641
      8          6           0       -2.928474   -0.354364    1.113927
      9          6           0       -3.012072    1.148561    1.702263
     10          6           0       -4.385802    1.484400    1.170678
     11          6           0       -2.927218    1.327131    3.188643
     12          6           0       -1.878996   -0.569165    0.120295
     13          6           0       -0.413740   -0.382621    0.534115
     14          6           0        0.540579   -0.713876   -0.599538
     15          8           0        0.198656   -1.162496   -1.674166
     16          8           0        1.808277   -0.488099   -0.274254
     17          7           0       -7.087061    2.600941    0.418792
     18          6           0       -6.070785    3.333461    0.855774
     19          6           0       -6.485969    4.734417    0.856519
     20          6           0       -7.785604    4.808787    0.390652
     21          6           0       -8.150429    3.464096    0.099221
     22          6           0       -5.699145    5.853521    1.474483
     23          6           0       -8.610943    6.056827    0.086329
     24          6           0       -8.148872    7.274868   -0.137345
     25          7           0       -9.215855    0.643829   -0.377107
     26          6           0       -9.898343    1.862656   -0.548484
     27          6           0      -11.252177    1.361186   -1.153647
     28          6           0      -11.278887    0.043280   -1.309751
     29          6           0       -9.973566   -0.439071   -0.767038
     30          6           0      -12.344312    2.389289   -1.404148
     31          6           0      -12.368640   -0.825854   -1.795511
     32          6           0      -12.262647   -1.116562   -3.266637
     33          7           0       -7.275255   -1.398032   -0.036800
     34          6           0       -8.320623   -2.248490   -0.398457
     35          6           0       -7.805976   -3.634042   -0.408385
     36          6           0       -6.479107   -3.525755   -0.173913
     37          6           0       -6.180527   -2.159938    0.156046
     38          6           0       -8.649750   -4.849599   -0.716810
     39          6           0       -5.319418   -4.316249    0.120111
     40          8           0       -5.167453   -5.505301    0.088538
     41          6           0       -4.119835   -3.268723    0.520457
     42          6           0       -3.631782   -3.639992    1.839901
     43          8           0       -3.803705   -2.956121    2.841686
     44          8           0       -2.776653   -4.663504    1.774615
     45          6           0       -2.120346   -5.182768    3.022858
     46          6           0        2.820857   -0.761274   -1.259306
     47          6           0        4.191168   -0.493728   -0.643949
     48          6           0        5.094380    0.358008   -1.105193
     49          6           0        5.138153    1.249524   -2.253938
     50          6           0        6.374722    0.358656   -0.353684
     51          6           0        7.686271   -0.324034   -1.004564
     52          6           0        8.963094   -0.079321   -0.078228
     53          6           0       10.201478   -0.666313   -0.844070
     54          6           0       10.099198   -2.184787   -1.318634
     55          6           0       11.477260   -0.413609   -0.048193
     56          6           0       12.890953   -0.607551   -0.678405
     57          6           0       13.953011   -0.054251    0.200877
     58          6           0       15.348030   -0.146570   -0.412448
     59          6           0       15.761684   -1.574023   -0.889905
     60          6           0       16.429869    0.450432    0.492672
     61          6           0       17.732669    0.632143   -0.156631
     62          6           0       18.776439    1.325694    0.789597
     63          6           0       20.220564    1.382365    0.233630
     64          6           0       20.422879    1.987202   -1.143302
     65          6           0       21.099087    2.009884    1.337449
     66          1           0       -3.945640    3.640471    1.678017
     67          1           0      -10.162512    3.953261   -0.289168
     68          1           0      -10.344696   -2.616176   -1.222559
     69          1           0       -2.688517   -1.190712    2.034583
     70          1           0       -2.404786    1.695521    1.230364
     71          1           0       -1.808664    1.218336    3.648614
     72          1           0       -3.338462    2.427423    3.550560
     73          1           0       -3.566892    0.548452    3.784792
     74          1           0       -1.940007   -1.406154   -0.281471
     75          1           0       -1.902860    0.063172   -0.827422
     76          1           0       -0.178984    0.549272    0.893802
     77          1           0       -0.144573   -1.011472    1.253198
     78          1           0       -5.077103    6.574590    0.795269
     79          1           0       -6.399078    6.746931    1.721540
     80          1           0       -5.150565    5.472677    2.447815
     81          1           0       -9.745555    5.953145    0.219681
     82          1           0       -8.910482    8.015662   -0.163991
     83          1           0       -7.064808    7.525823   -0.302180
     84          1           0      -11.979647    3.021890   -2.291125
     85          1           0      -13.283721    1.971269   -1.632052
     86          1           0      -12.704154    3.049187   -0.521044
     87          1           0      -12.255169   -1.914740   -1.282237
     88          1           0      -13.358158   -0.513021   -1.512828
     89          1           0      -13.063384   -1.460244   -3.738642
     90          1           0      -12.229279   -0.081737   -3.838150
     91          1           0      -11.419734   -1.524101   -3.365874
     92          1           0       -9.098557   -4.823639   -1.775426
     93          1           0       -8.037156   -5.588116   -0.645046
     94          1           0       -9.318689   -4.890224    0.202134
     95          1           0       -3.164273   -3.254728   -0.099369
     96          1           0       -1.594648   -4.259870    3.453013
     97          1           0       -2.840988   -5.588047    3.822679
     98          1           0       -1.427062   -5.820888    2.511283
     99          1           0        2.808331   -1.774992   -1.545001
    100          1           0        2.787440   -0.096525   -2.056008
    101          1           0        4.284358   -1.127595    0.108819
    102          1           0        4.153614    1.110361   -2.937168
    103          1           0        5.198332    2.452945   -1.738036
    104          1           0        6.037105    1.076016   -2.948697
    105          1           0        6.740636    1.385720   -0.343873
    106          1           0        6.257938   -0.148002    0.528722
    107          1           0        7.494712   -1.383454   -1.074257
    108          1           0        7.921371    0.156596   -2.046010
    109          1           0        9.153084    0.969176    0.285182
    110          1           0        8.887690   -0.590797    0.926764
    111          1           0       10.196701   -0.059006   -1.817303
    112          1           0        9.358202   -2.018089   -2.328382
    113          1           0       11.172404   -2.569739   -1.531685
    114          1           0        9.515084   -2.707326   -0.427355
    115          1           0       11.373936    0.694723    0.133042
    116          1           0       11.216998   -0.877221    0.792843
    117          1           0       13.040802   -1.658666   -0.851232
    118          1           0       12.902421   -0.154551   -1.631765
    119          1           0       13.848693    1.003766    0.589081
    120          1           0       14.074091   -0.504051    1.204279
    121          1           0       15.332572    0.542084   -1.297648
    122          1           0       15.894281   -2.455748   -0.357037
    123          1           0       15.025138   -1.975639   -1.574824
    124          1           0       16.826847   -1.468965   -1.460794
    125          1           0       15.985313    1.364393    0.989236
    126          1           0       16.599390   -0.145437    1.395207
    127          1           0       18.196358   -0.338313   -0.459213
    128          1           0       17.760106    1.148301   -1.009836
    129          1           0       18.413726    2.447425    0.934195
    130          1           0       18.848657    0.789916    1.659974
    131          1           0       20.508239    0.314408    0.191585
    132          1           0       20.359705    3.155651   -1.015293
    133          1           0       21.517876    2.148277   -1.571949
    134          1           0       19.812617    1.700386   -1.965073
    135          1           0       20.874273    1.533892    2.545287
    136          1           0       22.074126    1.964560    1.193389
    137          1           0       20.948307    3.168801    1.686779
 ---------------------------------------------------------------------

 SCF Done:  E(RCAM-B3LYP) =  -2932.63036989     A.U. after   18 cycles

 Excitation energies and oscillator strengths:

 Excited State   1:      Singlet-A      1.9260 eV  643.75 nm  f=0.3424  <S**2>=0.000
     240 -> 243       -0.20361
     241 -> 242        0.67482
 This state for optimization and/or second-order correction.
 Total Energy, E(TD-HF/TD-KS) =  -2932.55959177
 Copying the excited state density for this state as the 1-particle RhoCI density.

 The electronic state is 1-A.
 Alpha  occ. eigenvalues --  -46.84224 -19.26383 -19.26005 -19.21151 -19.20295
 Alpha  occ. eigenvalues --  -19.19983 -14.42007 -14.39378 -14.39338 -14.39119
 Alpha  occ. eigenvalues --  -10.38849 -10.38397 -10.35659 -10.33027 -10.30656
 Alpha  occ. eigenvalues --  -10.30494 -10.29949 -10.29884 -10.29727 -10.29598
 Alpha  occ. eigenvalues --  -10.28815 -10.28807 -10.28636 -10.28631 -10.28585
 Alpha  occ. eigenvalues --  -10.28391 -10.28155 -10.28023 -10.27979 -10.27941
 Alpha  occ. eigenvalues --  -10.27568 -10.27486 -10.27265 -10.27190 -10.26946
 Alpha  occ. eigenvalues --  -10.26855 -10.26791 -10.26787 -10.26782 -10.26610
 Alpha  occ. eigenvalues --  -10.26551 -10.26482 -10.26372 -10.26228 -10.26175
 Alpha  occ. eigenvalues --  -10.26003 -10.25970 -10.25835 -10.25767 -10.25754
 Alpha  occ. eigenvalues --  -10.25706 -10.25657 -10.25594 -10.25335 -10.25045
 Alpha  occ. eigenvalues --  -10.24997 -10.24970 -10.24969 -10.24919 -10.24835
 Alpha  occ. eigenvalues --  -10.24708 -10.24575 -10.23951 -10.23672 -10.23054
 Alpha  occ. eigenvalues --   -3.13246  -1.87953  -1.87496  -1.87406  -1.18745
 Alpha  occ. eigenvalues --   -1.17203  -1.12535  -1.08993  -1.07967  -1.05738
 Alpha  occ. eigenvalues --   -1.03651  -1.02790  -1.01093  -0.92342  -0.92110
 Alpha  occ. eigenvalues --   -0.90957  -0.90771  -0.89526  -0.89436  -0.88599
 Alpha  occ. eigenvalues --   -0.88081  -0.88061  -0.87598  -0.87371  -0.85810
 Alpha  occ. eigenvalues --   -0.84989  -0.84384  -0.83591  -0.83290  -0.82653
 Alpha  occ. eigenvalues --   -0.81775  -0.81333  -0.80720  -0.79540  -0.78962
 Alpha  occ. eigenvalues --   -0.77623  -0.77000  -0.76143  -0.75838  -0.75529
 Alpha  occ. eigenvalues --   -0.75213  -0.74704  -0.74284  -0.73278  -0.72250
 Alpha  occ. eigenvalues --   -0.71340  -0.70773  -0.70295  -0.69908  -0.68510
 Alpha  occ. eigenvalues --   -0.67174  -0.66119  -0.65771  -0.65382  -0.64716
 Alpha  occ. eigenvalues --   -0.63886  -0.63846  -0.63237  -0.62402  -0.61672
 Alpha  occ. eigenvalues --   -0.61223  -0.61195  -0.60138  -0.59817  -0.59133
 Alpha  occ. eigenvalues --   -0.58251  -0.57826  -0.57572  -0.57459  -0.56783
 Alpha  occ. eigenvalues --   -0.56014  -0.55353  -0.55250  -0.55062  -0.54888
 Alpha  occ. eigenvalues --   -0.54628  -0.54409  -0.54223  -0.54065  -0.53406
 Alpha  occ. eigenvalues --   -0.53028  -0.52767  -0.52318  -0.51977  -0.51756
 Alpha  occ. eigenvalues --   -0.51580  -0.51370  -0.50901  -0.50639  -0.50488
 Alpha  occ. eigenvalues --   -0.50082  -0.49839  -0.49733  -0.49526  -0.49416
 Alpha  occ. eigenvalues --   -0.49358  -0.49070  -0.48765  -0.48239  -0.47952
 Alpha  occ. eigenvalues --   -0.47839  -0.47727  -0.47670  -0.47538  -0.47132
 Alpha  occ. eigenvalues --   -0.46899  -0.46701  -0.46524  -0.46415  -0.45970
 Alpha  occ. eigenvalues --   -0.45839  -0.45701  -0.45194  -0.44974  -0.44878
 Alpha  occ. eigenvalues --   -0.44648  -0.44622  -0.44449  -0.44252  -0.44102
 Alpha  occ. eigenvalues --   -0.43888  -0.43749  -0.43452  -0.43434  -0.43190
 Alpha  occ. eigenvalues --   -0.43174  -0.42928  -0.42721  -0.42600  -0.42376
 Alpha  occ. eigenvalues --   -0.42106  -0.42031  -0.41906  -0.41861  -0.41496
 Alpha  occ. eigenvalues --   -0.41350  -0.41043  -0.40950  -0.40625  -0.40075
 Alpha  occ. eigenvalues --   -0.39840  -0.39757  -0.39648  -0.39326  -0.39046
 Alpha  occ. eigenvalues --   -0.38495  -0.38469  -0.38099  -0.37510  -0.37398
 Alpha  occ. eigenvalues --   -0.37207  -0.37120  -0.36851  -0.36514  -0.36479
 Alpha  occ. eigenvalues --   -0.36249  -0.36161  -0.35425  -0.35111  -0.35100
 Alpha  occ. eigenvalues --   -0.35046  -0.34865  -0.34584  -0.34181  -0.33483
 Alpha  occ. eigenvalues --   -0.33165  -0.32516  -0.31969  -0.31319  -0.30322
 Alpha  occ. eigenvalues --   -0.30130  -0.29919  -0.28702  -0.27171  -0.23117
 Alpha  occ. eigenvalues --   -0.20474
 Alpha virt. eigenvalues --   -0.06830  -0.01495   0.01774   0.04913   0.05388
 Alpha virt. eigenvalues --    0.05509   0.06189   0.07270   0.07593   0.07906
 Alpha virt. eigenvalues --    0.08657   0.10654   0.10753   0.11255   0.11308

 Mulliken charges:
               1
     1  Mg   0.823013
     2  C    0.062923
     3  C   -0.193984
     4  C   -0.191254
     5  C   -0.205287
     6  N   -0.627540
     7  C    0.364727
     8  C   -0.193117
     9  C   -0.084101
    10  C    0.296201
    11  C   -0.291874
    12  C   -0.145464
    13  C   -0.258931
    14  C    0.590543
    15  O   -0.482762
    16  O   -0.473895
    17  N   -0.713840
    18  C    0.318822
    19  C   -0.012041
    20  C    0.030080
    21  C    0.252823
    22  C   -0.389277
    23  C   -0.065334
    24  C   -0.240676
    25  N   -0.711597
    26  C    0.349253
    27  C   -0.002602
    28  C    0.068815
    29  C    0.317958
    30  C   -0.371525
    31  C   -0.258059
    32  C   -0.275723
    33  N   -0.750127
    34  C    0.283050
    35  C   -0.022725
    36  C    0.027860
    37  C    0.308436
    38  C   -0.345236
    39  C    0.367342
    40  O   -0.439574
    41  C   -0.350614
    42  C    0.630383
    43  O   -0.486718
    44  O   -0.470456
    45  C   -0.083007
    46  C    0.025794
    47  C   -0.153171
    48  C    0.172686
    49  C   -0.353824
    50  C   -0.218284
    51  C   -0.192125
    52  C   -0.181955
    53  C   -0.073771
    54  C   -0.291418
    55  C   -0.169688
    56  C   -0.179199
    57  C   -0.175145
    58  C   -0.048128
    59  C   -0.322416
    60  C   -0.169382
    61  C   -0.183653
    62  C   -0.159671
    63  C   -0.046526
    64  C   -0.319637
    65  C   -0.287781
    66  H    0.096434
    67  H    0.095566
    68  H    0.095216
    69  H    0.105692
    70  H    0.105871
    71  H    0.084177
    72  H    0.087428
    73  H    0.123322
    74  H    0.114550
    75  H    0.103040
    76  H    0.137015
    77  H    0.138345
    78  H    0.101791
    79  H    0.111555
    80  H    0.104696
    81  H    0.088745
    82  H    0.100581
    83  H    0.105706
    84  H    0.117897
    85  H    0.114343
    86  H    0.109120
    87  H    0.079749
    88  H    0.108221
    89  H    0.114506
    90  H    0.077747
    91  H    0.118248
    92  H    0.123208
    93  H    0.149945
    94  H    0.128182
    95  H    0.165593
    96  H    0.129812
    97  H    0.143562
    98  H    0.145909
    99  H    0.128707
   100  H    0.108982
   101  H    0.087613
   102  H    0.098142
   103  H    0.091794
   104  H    0.129482
   105  H    0.092290
   106  H    0.105098
   107  H    0.112310
   108  H    0.080402
   109  H    0.095458
   110  H    0.081965
   111  H    0.067957
   112  H    0.083083
   113  H    0.105337
   114  H    0.092300
   115  H    0.078392
   116  H    0.098018
   117  H    0.099883
   118  H    0.103831
   119  H    0.083691
   120  H    0.089586
   121  H    0.083909
   122  H    0.113645
   123  H    0.095676
   124  H    0.076564
   125  H    0.077071
   126  H    0.088890
   127  H    0.086119
   128  H    0.102633
   129  H    0.072144
   130  H    0.101894
   131  H    0.092929
   132  H    0.086151
   133  H    0.089388
   134  H    0.118443
   135  H    0.051317
   136  H    0.116845
   137  H    0.078692
 Sum of Mulliken charges =   0.00000

 Dipole moment (field-independent basis, Debye):
    X=              2.6760    Y=              1.7862    Z=              0.0330  Tot=              3.2176
 Quadrupole moment (field-independent basis, Debye-Ang):
   XX=           -342.0143   YY=           -392.3309   ZZ=           -397.5760
   XY=             -9.3308   XZ=             10.2295   YZ=             -7.8871

 Normal termination of Gaussian 09 at Sat Jun 29 18:26:44 2019.
