 Gaussian 09, Revision D.01,
 Gaussian 09:  ES64L-G09RevD.01 24-Apr-2013

 -------------------------------------
 # td=(NStates=1) CAM-B3LYP/6-31G(d,p)
 -------------------------------------

 --
 TD
 --
 Symbolic Z-matrix:
 Charge =  0 Multiplicity = 1

                         Standard orientation:
 ---------------------------------------------------------------------
 Center     Atomic      Atomic             Coordinates (Angstroms)
 Number     Number       Type             X           Y           Z
 ---------------------------------------------------------------------
      1         12           0       -7.180028    0.611497    0.176052
      2          6           0       -4.793947   -1.789205    0.530461
      3          6           0       -4.896978    2.846645    1.160603
      4          6           0       -9.564680    2.931482   -0.382165
      5          6           0       -9.593722   -1.864913   -0.759175
      6          7           0       -5.210661    0.561891    0.854753
      7          6           0       -4.369389   -0.569696    0.763222
      8          6           0       -2.963244   -0.217162    1.191117
      9          6           0       -3.031342    1.265493    1.628935
     10          6           0       -4.494104    1.658409    1.169104
     11          6           0       -2.848908    1.418282    3.182379
     12          6           0       -2.013889   -0.347702    0.015604
     13          6           0       -0.428717   -0.325485    0.391980
     14          6           0        0.519473   -0.574928   -0.601404
     15          8           0        0.251729   -0.940988   -1.698926
     16          8           0        1.846645   -0.387308   -0.199489
     17          7           0       -7.274075    2.646026    0.339880
     18          6           0       -6.184292    3.406732    0.738303
     19          6           0       -6.567436    4.783910    0.760154
     20          6           0       -7.897746    4.797432    0.278033
     21          6           0       -8.287482    3.516676    0.012154
     22          6           0       -5.631381    5.863512    1.408226
     23          6           0       -8.746950    6.049522    0.045028
     24          6           0       -8.377699    7.255430   -0.333034
     25          7           0       -9.191876    0.595395   -0.402561
     26          6           0       -9.942526    1.694861   -0.605935
     27          6           0      -11.269892    1.324021   -1.115487
     28          6           0      -11.282691   -0.040774   -1.260359
     29          6           0       -9.969593   -0.468473   -0.726077
     30          6           0      -12.364053    2.342596   -1.380451
     31          6           0      -12.350260   -0.950033   -1.615240
     32          6           0      -12.284399   -1.509013   -3.084669
     33          7           0       -7.312366   -1.445597   -0.088542
     34          6           0       -8.270477   -2.233709   -0.498319
     35          6           0       -7.766103   -3.723459   -0.410419
     36          6           0       -6.379285   -3.580312    0.018343
     37          6           0       -6.138994   -2.103886    0.123070
     38          6           0       -8.478581   -4.998042   -0.797384
     39          6           0       -5.198213   -4.348995    0.228611
     40          8           0       -5.014778   -5.535141    0.353776
     41          6           0       -4.101752   -3.227022    0.559881
     42          6           0       -3.497826   -3.468088    1.872674
     43          8           0       -3.762817   -2.964615    2.939613
     44          8           0       -2.607381   -4.522041    1.810256
     45          6           0       -2.181070   -4.959190    3.045724
     46          6           0        2.773225   -0.707177   -1.283825
     47          6           0        4.155376   -0.635970   -0.643154
     48          6           0        5.124787    0.196723   -1.025401
     49          6           0        5.138107    0.968842   -2.367038
     50          6           0        6.508940    0.203604   -0.304446
     51          6           0        7.654202   -0.362990   -1.025634
     52          6           0        8.919443   -0.288452   -0.292592
     53          6           0       10.226798   -0.583144   -0.944830
     54          6           0       10.172724   -2.072637   -1.530475
     55          6           0       11.399086   -0.276181   -0.163973
     56          6           0       12.833036   -0.518986   -0.756327
     57          6           0       13.964069   -0.058262    0.106945
     58          6           0       15.337501   -0.173369   -0.496335
     59          6           0       15.790076   -1.598399   -0.887502
     60          6           0       16.376172    0.485769    0.398609
     61          6           0       17.850717    0.571464   -0.146311
     62          6           0       18.895938    1.297794    0.803277
     63          6           0       20.331647    1.324382    0.482361
     64          6           0       20.479237    2.044519   -0.886062
     65          6           0       21.273823    2.026980    1.528427
     66          1           0       -4.399978    3.708742    1.466053
     67          1           0      -10.248842    3.639900   -0.363312
     68          1           0      -10.372322   -2.384588   -1.021289
     69          1           0       -2.753042   -0.654751    2.145064
     70          1           0       -2.229688    1.903866    1.100858
     71          1           0       -2.015326    0.842847    3.557083
     72          1           0       -2.758393    2.609358    3.397819
     73          1           0       -3.886892    0.985327    3.572206
     74          1           0       -2.247688   -1.520338   -0.369578
     75          1           0       -2.241538    0.259231   -0.728572
     76          1           0       -0.206799    0.730999    0.819749
     77          1           0       -0.042099   -1.069871    1.252671
     78          1           0       -4.504243    5.935577    0.935289
     79          1           0       -6.255483    6.858857    1.731603
     80          1           0       -5.331254    5.384636    2.414749
     81          1           0       -9.912965    5.744405    0.482912
     82          1           0       -9.045090    7.897659   -0.527616
     83          1           0       -7.387865    7.633756   -0.606312
     84          1           0      -12.128775    2.841638   -2.205482
     85          1           0      -13.288059    1.903453   -1.417978
     86          1           0      -12.607459    2.901429   -0.331256
     87          1           0      -12.525700   -1.672856   -0.815605
     88          1           0      -13.346473   -0.371104   -1.724899
     89          1           0      -13.250657   -1.963427   -3.261598
     90          1           0      -12.357234   -0.620892   -3.801420
     91          1           0      -11.542185   -2.077556   -3.205043
     92          1           0       -9.038208   -4.769473   -1.668592
     93          1           0       -7.765051   -5.833398   -0.835255
     94          1           0       -9.146189   -5.480760    0.130797
     95          1           0       -3.260300   -3.129259   -0.092883
     96          1           0       -1.428353   -4.187662    3.596639
     97          1           0       -3.114091   -4.925417    3.675040
     98          1           0       -1.746191   -5.931532    2.794669
     99          1           0        2.523489   -1.818685   -1.652216
    100          1           0        2.466336   -0.016028   -1.948901
    101          1           0        4.267291   -1.044066    0.312515
    102          1           0        4.182060    1.149170   -2.947021
    103          1           0        5.600895    2.047383   -2.351673
    104          1           0        5.809893    0.315149   -3.173133
    105          1           0        6.734004    1.204179    0.055186
    106          1           0        6.469232   -0.311594    0.749880
    107          1           0        7.293521   -1.433788   -1.123535
    108          1           0        7.935597    0.000379   -1.918977
    109          1           0        9.336273    0.762211    0.175229
    110          1           0        8.679611   -0.868514    0.659802
    111          1           0       10.281451    0.019933   -1.950545
    112          1           0        9.304726   -2.147424   -2.199711
    113          1           0       11.004060   -2.291476   -2.018006
    114          1           0       10.074639   -2.889740   -0.694914
    115          1           0       11.357630    0.840741    0.027888
    116          1           0       11.478535   -0.664792    0.698093
    117          1           0       13.074594   -1.523281   -1.062676
    118          1           0       13.047010    0.029875   -1.652499
    119          1           0       13.835121    0.982879    0.348904
    120          1           0       13.964148   -0.554251    0.882653
    121          1           0       15.315100    0.466931   -1.367217
    122          1           0       15.868830   -2.148629   -0.114408
    123          1           0       15.187736   -2.246551   -1.466264
    124          1           0       16.692020   -1.684499   -1.367967
    125          1           0       15.981182    1.431242    0.591670
    126          1           0       16.312041   -0.191059    1.357858
    127          1           0       18.410345   -0.327723   -0.401775
    128          1           0       17.832123    1.008316   -1.102522
    129          1           0       18.610565    2.596965    0.894156
    130          1           0       18.582361    0.878803    1.882686
    131          1           0       20.827155    0.274553    0.337223
    132          1           0       20.202945    3.105029   -0.634323
    133          1           0       21.496640    2.183928   -1.275084
    134          1           0       19.888046    1.654503   -1.677056
    135          1           0       21.317503    1.604065    2.662426
    136          1           0       22.296139    2.161574    1.268289
    137          1           0       20.879047    3.017701    1.705069
 ---------------------------------------------------------------------

 SCF Done:  E(RCAM-B3LYP) =  -2932.55162495     A.U. after   17 cycles

 Excitation energies and oscillator strengths:

 Excited State   1:      Singlet-A      1.9507 eV  635.60 nm  f=0.3602  <S**2>=0.000
     240 -> 242        0.11197
     240 -> 243        0.16036
     241 -> 242        0.67060
 This state for optimization and/or second-order correction.
 Total Energy, E(TD-HF/TD-KS) =  -2932.47993910
 Copying the excited state density for this state as the 1-particle RhoCI density.

 The electronic state is 1-A.
 Alpha  occ. eigenvalues --  -46.84741 -19.25361 -19.24485 -19.21763 -19.21340
 Alpha  occ. eigenvalues --  -19.20481 -14.41161 -14.40985 -14.39817 -14.38101
 Alpha  occ. eigenvalues --  -10.38965 -10.38005 -10.36456 -10.31572 -10.31496
 Alpha  occ. eigenvalues --  -10.31491 -10.31216 -10.30941 -10.30811 -10.29828
 Alpha  occ. eigenvalues --  -10.29230 -10.29101 -10.28876 -10.28640 -10.28616
 Alpha  occ. eigenvalues --  -10.28512 -10.28372 -10.28170 -10.28155 -10.27989
 Alpha  occ. eigenvalues --  -10.27967 -10.27949 -10.27778 -10.27625 -10.27556
 Alpha  occ. eigenvalues --  -10.27471 -10.27459 -10.27348 -10.27247 -10.27237
 Alpha  occ. eigenvalues --  -10.26852 -10.26805 -10.26344 -10.26317 -10.26182
 Alpha  occ. eigenvalues --  -10.26114 -10.26092 -10.25928 -10.25843 -10.25694
 Alpha  occ. eigenvalues --  -10.25592 -10.25497 -10.25456 -10.25252 -10.25243
 Alpha  occ. eigenvalues --  -10.24967 -10.24378 -10.24354 -10.24136 -10.24088
 Alpha  occ. eigenvalues --  -10.23928 -10.23705 -10.23514 -10.22298 -10.21648
 Alpha  occ. eigenvalues --   -3.13691  -1.88410  -1.87925  -1.87863  -1.18597
 Alpha  occ. eigenvalues --   -1.17380  -1.12694  -1.09577  -1.08809  -1.05389
 Alpha  occ. eigenvalues --   -1.03947  -1.03180  -1.01670  -0.93295  -0.92193
 Alpha  occ. eigenvalues --   -0.91135  -0.90191  -0.89886  -0.89371  -0.88840
 Alpha  occ. eigenvalues --   -0.88645  -0.88116  -0.86972  -0.86597  -0.86549
 Alpha  occ. eigenvalues --   -0.85359  -0.85083  -0.84252  -0.83320  -0.82490
 Alpha  occ. eigenvalues --   -0.81977  -0.81491  -0.80824  -0.80031  -0.78782
 Alpha  occ. eigenvalues --   -0.78113  -0.77578  -0.77248  -0.75828  -0.75745
 Alpha  occ. eigenvalues --   -0.75253  -0.74940  -0.74725  -0.73270  -0.72655
 Alpha  occ. eigenvalues --   -0.71708  -0.71148  -0.70359  -0.70107  -0.69567
 Alpha  occ. eigenvalues --   -0.67829  -0.66823  -0.65965  -0.65571  -0.65096
 Alpha  occ. eigenvalues --   -0.64712  -0.64115  -0.62735  -0.62087  -0.61929
 Alpha  occ. eigenvalues --   -0.61138  -0.60990  -0.60104  -0.59459  -0.59253
 Alpha  occ. eigenvalues --   -0.58955  -0.58629  -0.58271  -0.56798  -0.56308
 Alpha  occ. eigenvalues --   -0.56186  -0.56099  -0.55598  -0.55281  -0.54844
 Alpha  occ. eigenvalues --   -0.54536  -0.54181  -0.53760  -0.53682  -0.53602
 Alpha  occ. eigenvalues --   -0.53393  -0.53190  -0.53060  -0.52641  -0.52394
 Alpha  occ. eigenvalues --   -0.52135  -0.52074  -0.51868  -0.51141  -0.51061
 Alpha  occ. eigenvalues --   -0.50987  -0.50826  -0.50565  -0.50076  -0.49637
 Alpha  occ. eigenvalues --   -0.49570  -0.49412  -0.49254  -0.48838  -0.48766
 Alpha  occ. eigenvalues --   -0.48486  -0.48172  -0.47717  -0.47479  -0.47276
 Alpha  occ. eigenvalues --   -0.47214  -0.46959  -0.46762  -0.46375  -0.46281
 Alpha  occ. eigenvalues --   -0.45966  -0.45821  -0.45716  -0.45365  -0.44793
 Alpha  occ. eigenvalues --   -0.44632  -0.44445  -0.43958  -0.43870  -0.43774
 Alpha  occ. eigenvalues --   -0.43524  -0.43439  -0.43352  -0.43163  -0.43066
 Alpha  occ. eigenvalues --   -0.42875  -0.42776  -0.42641  -0.42378  -0.42167
 Alpha  occ. eigenvalues --   -0.42131  -0.41967  -0.41800  -0.41532  -0.41328
 Alpha  occ. eigenvalues --   -0.41186  -0.41055  -0.41001  -0.40807  -0.40612
 Alpha  occ. eigenvalues --   -0.40446  -0.40001  -0.39566  -0.39358  -0.39179
 Alpha  occ. eigenvalues --   -0.38631  -0.38500  -0.38163  -0.37999  -0.37685
 Alpha  occ. eigenvalues --   -0.37156  -0.37116  -0.37062  -0.36887  -0.36763
 Alpha  occ. eigenvalues --   -0.36389  -0.36259  -0.35727  -0.35510  -0.35085
 Alpha  occ. eigenvalues --   -0.34986  -0.34656  -0.34162  -0.34018  -0.33672
 Alpha  occ. eigenvalues --   -0.33511  -0.33019  -0.32354  -0.31865  -0.31508
 Alpha  occ. eigenvalues --   -0.30056  -0.29990  -0.29106  -0.26644  -0.23812
 Alpha  occ. eigenvalues --   -0.21481
 Alpha virt. eigenvalues --   -0.07877  -0.02191   0.00098   0.05353   0.05714
 Alpha virt. eigenvalues --    0.05972   0.06279   0.06582   0.06860   0.07507
 Alpha virt. eigenvalues --    0.08219   0.10570   0.10777   0.11481   0.12117

 Mulliken charges:
               1
     1  Mg   0.809528
     2  C    0.080860
     3  C   -0.167403
     4  C   -0.154897
     5  C   -0.107272
     6  N   -0.671391
     7  C    0.278703
     8  C   -0.154739
     9  C   -0.147877
    10  C    0.395143
    11  C   -0.301361
    12  C   -0.141025
    13  C   -0.279619
    14  C    0.629773
    15  O   -0.464734
    16  O   -0.526907
    17  N   -0.710059
    18  C    0.254115
    19  C    0.023221
    20  C   -0.037355
    21  C    0.292079
    22  C   -0.375280
    23  C   -0.076916
    24  C   -0.230323
    25  N   -0.680239
    26  C    0.349318
    27  C    0.001527
    28  C    0.056171
    29  C    0.250987
    30  C   -0.350174
    31  C   -0.294815
    32  C   -0.300676
    33  N   -0.697694
    34  C    0.290701
    35  C    0.012862
    36  C   -0.000812
    37  C    0.284200
    38  C   -0.373684
    39  C    0.379152
    40  O   -0.441286
    41  C   -0.332590
    42  C    0.632788
    43  O   -0.472104
    44  O   -0.447138
    45  C   -0.072405
    46  C    0.043469
    47  C   -0.126587
    48  C    0.118674
    49  C   -0.358289
    50  C   -0.233163
    51  C   -0.151216
    52  C   -0.144767
    53  C   -0.064482
    54  C   -0.311753
    55  C   -0.155749
    56  C   -0.204305
    57  C   -0.156030
    58  C   -0.085712
    59  C   -0.324621
    60  C   -0.161409
    61  C   -0.192539
    62  C   -0.124284
    63  C   -0.061722
    64  C   -0.307143
    65  C   -0.308282
    66  H    0.052277
    67  H    0.066162
    68  H    0.068444
    69  H    0.137405
    70  H    0.089028
    71  H    0.119686
    72  H    0.093126
    73  H    0.114170
    74  H    0.074768
    75  H    0.133533
    76  H    0.132503
    77  H    0.136253
    78  H    0.107793
    79  H    0.114376
    80  H    0.118490
    81  H    0.069174
    82  H    0.100534
    83  H    0.111146
    84  H    0.141518
    85  H    0.120962
    86  H    0.102015
    87  H    0.117658
    88  H    0.095833
    89  H    0.108640
    90  H    0.105783
    91  H    0.118472
    92  H    0.134540
    93  H    0.159300
    94  H    0.114991
    95  H    0.165531
    96  H    0.088846
    97  H    0.129360
    98  H    0.124209
    99  H    0.111120
   100  H    0.127092
   101  H    0.100201
   102  H    0.113537
   103  H    0.105879
   104  H    0.100750
   105  H    0.103065
   106  H    0.081504
   107  H    0.102681
   108  H    0.102325
   109  H    0.052157
   110  H    0.076593
   111  H    0.070343
   112  H    0.100095
   113  H    0.111288
   114  H    0.077145
   115  H    0.081977
   116  H    0.106325
   117  H    0.096076
   118  H    0.087681
   119  H    0.083937
   120  H    0.093724
   121  H    0.078625
   122  H    0.111515
   123  H    0.095253
   124  H    0.106692
   125  H    0.102890
   126  H    0.071152
   127  H    0.101229
   128  H    0.103001
   129  H    0.025650
   130  H    0.078086
   131  H    0.076530
   132  H    0.094428
   133  H    0.097671
   134  H    0.110055
   135  H    0.078889
   136  H    0.112300
   137  H    0.103571
 Sum of Mulliken charges =   0.00000

 Dipole moment (field-independent basis, Debye):
    X=             -1.1823    Y=              1.9818    Z=             -1.2292  Tot=              2.6146
 Quadrupole moment (field-independent basis, Debye-Ang):
   XX=           -310.8308   YY=           -399.1032   ZZ=           -399.7969
   XY=             -3.4223   XZ=             12.1914   YZ=             -0.0197

 Normal termination of Gaussian 09 at Sat Jun 29 00:53:51 2019.
