 Gaussian 09, Revision D.01,
 Gaussian 09:  ES64L-G09RevD.01 24-Apr-2013

 -------------------------------------
 # td=(NStates=1) CAM-B3LYP/6-31G(d,p)
 -------------------------------------

 --
 TD
 --
 Symbolic Z-matrix:
 Charge =  0 Multiplicity = 1

                         Standard orientation:
 ---------------------------------------------------------------------
 Center     Atomic      Atomic             Coordinates (Angstroms)
 Number     Number       Type             X           Y           Z
 ---------------------------------------------------------------------
      1         12           0       -7.085902    0.578906    0.095505
      2          6           0       -4.917904   -1.888903    0.517005
      3          6           0       -4.907860    2.904264    1.096069
      4          6           0       -9.425600    3.117304   -0.225168
      5          6           0       -9.578470   -1.773930   -0.850903
      6          7           0       -5.175137    0.415782    0.682974
      7          6           0       -4.357963   -0.722350    0.751795
      8          6           0       -2.989675   -0.441360    1.218031
      9          6           0       -3.021258    1.087338    1.655622
     10          6           0       -4.436771    1.491187    1.082904
     11          6           0       -2.887063    1.320204    3.108980
     12          6           0       -1.947143   -0.602751    0.012211
     13          6           0       -0.444184   -0.463774    0.439308
     14          6           0        0.486039   -0.792925   -0.698846
     15          8           0        0.180490   -1.129622   -1.792573
     16          8           0        1.727780   -0.535412   -0.359855
     17          7           0       -7.104756    2.674077    0.252344
     18          6           0       -6.087855    3.455259    0.815061
     19          6           0       -6.488073    4.786890    0.821978
     20          6           0       -7.764847    4.877854    0.543377
     21          6           0       -8.143418    3.480382    0.100915
     22          6           0       -5.466171    5.879847    1.259852
     23          6           0       -8.607215    6.005711    0.391484
     24          6           0       -8.180906    7.213771    0.003620
     25          7           0       -9.150310    0.710486   -0.502397
     26          6           0       -9.831826    1.811081   -0.602105
     27          6           0      -11.245369    1.542052   -1.024043
     28          6           0      -11.393544    0.149469   -1.024911
     29          6           0       -9.989033   -0.398929   -0.802280
     30          6           0      -12.364938    2.370487   -1.171220
     31          6           0      -12.438751   -0.758631   -1.639286
     32          6           0      -12.231989   -1.179118   -3.191123
     33          7           0       -7.282680   -1.438404   -0.060676
     34          6           0       -8.338112   -2.367666   -0.580704
     35          6           0       -7.868700   -3.630217   -0.472960
     36          6           0       -6.567437   -3.485749   -0.094439
     37          6           0       -6.238651   -2.167777    0.116392
     38          6           0       -8.619987   -4.887831   -0.806666
     39          6           0       -5.417666   -4.405534    0.125545
     40          8           0       -5.264302   -5.569480    0.252602
     41          6           0       -4.141729   -3.337529    0.512384
     42          6           0       -3.494460   -3.616585    1.869709
     43          8           0       -3.758360   -3.172820    2.932894
     44          8           0       -2.720696   -4.658586    1.735578
     45          6           0       -2.118129   -5.059416    2.925159
     46          6           0        2.732164   -0.792911   -1.324673
     47          6           0        4.049636   -0.537564   -0.626919
     48          6           0        5.069415    0.317196   -1.106412
     49          6           0        5.037974    1.174059   -2.342746
     50          6           0        6.407141    0.374413   -0.242223
     51          6           0        7.712501    0.022141   -1.098791
     52          6           0        8.968667   -0.027214   -0.188166
     53          6           0       10.179141   -0.416628   -0.823757
     54          6           0       10.269758   -1.949969   -1.362753
     55          6           0       11.496900   -0.126766   -0.022162
     56          6           0       12.837423   -0.403933   -0.657332
     57          6           0       14.049088   -0.077861    0.276546
     58          6           0       15.345338   -0.077527   -0.421187
     59          6           0       15.758236   -1.465614   -0.801302
     60          6           0       16.352359    0.410184    0.602871
     61          6           0       17.766508    0.518652   -0.078462
     62          6           0       18.916030    1.202862    0.735384
     63          6           0       20.325915    1.223591    0.276404
     64          6           0       20.409243    2.054021   -1.038258
     65          6           0       21.411329    1.619805    1.317486
     66          1           0       -3.826917    3.443476    1.644877
     67          1           0       -9.986594    3.946833   -0.388041
     68          1           0      -10.553741   -2.475677   -1.058459
     69          1           0       -2.671262   -0.929208    2.059893
     70          1           0       -2.366213    1.628556    1.073483
     71          1           0       -1.897955    0.924964    3.576958
     72          1           0       -3.064846    2.297686    3.311103
     73          1           0       -3.719059    0.862284    3.672610
     74          1           0       -2.237519   -1.562777   -0.283205
     75          1           0       -2.280703    0.055386   -0.918008
     76          1           0       -0.329750    0.456159    0.763848
     77          1           0       -0.313966   -1.243863    1.071413
     78          1           0       -4.680406    6.323394    0.480904
     79          1           0       -6.096407    6.819738    1.722078
     80          1           0       -4.939725    5.659572    2.189904
     81          1           0       -9.678056    5.807262    0.491318
     82          1           0       -8.783877    8.037613    0.053549
     83          1           0       -7.167476    7.373599   -0.026583
     84          1           0      -12.486859    2.945048   -2.159989
     85          1           0      -13.443040    1.959086   -1.158945
     86          1           0      -12.372069    2.987096   -0.261962
     87          1           0      -12.562520   -1.726629   -1.174438
     88          1           0      -13.270258   -0.218672   -1.564072
     89          1           0      -13.190065   -1.615439   -3.401780
     90          1           0      -12.181438   -0.114670   -3.862651
     91          1           0      -11.212713   -1.667538   -3.391743
     92          1           0       -8.569037   -4.994112   -1.878485
     93          1           0       -8.087248   -5.788417   -0.511404
     94          1           0       -9.655088   -4.898518   -0.414873
     95          1           0       -3.383839   -3.333502   -0.428886
     96          1           0       -1.522869   -4.404690    3.589455
     97          1           0       -2.856637   -5.541455    3.547561
     98          1           0       -1.573359   -6.010459    2.815676
     99          1           0        2.539280   -1.801067   -1.545835
    100          1           0        2.748461   -0.098986   -2.020108
    101          1           0        4.266866   -1.105106    0.025971
    102          1           0        3.973818    1.162631   -2.873725
    103          1           0        5.408603    2.096976   -2.247779
    104          1           0        5.762865    0.791055   -3.025034
    105          1           0        6.399627    1.448021    0.228164
    106          1           0        6.593842   -0.418604    0.576953
    107          1           0        7.602962   -0.897754   -1.518213
    108          1           0        7.698207    0.646552   -1.971420
    109          1           0        9.180464    1.060192    0.212199
    110          1           0        8.668456   -0.438940    0.777131
    111          1           0       10.215217    0.093705   -1.984209
    112          1           0        9.477317   -2.272430   -1.884250
    113          1           0       11.227019   -2.081784   -2.066848
    114          1           0       10.236111   -2.620182   -0.689142
    115          1           0       11.347935    0.904047    0.373052
    116          1           0       11.460821   -0.870758    0.926607
    117          1           0       12.656615   -1.430142   -0.868763
    118          1           0       13.004462    0.046752   -1.606929
    119          1           0       13.885479    1.009904    0.684593
    120          1           0       14.181717   -0.770379    1.266968
    121          1           0       15.484569    0.462856   -1.492074
    122          1           0       15.719545   -1.971745    0.106323
    123          1           0       14.865257   -1.846006   -1.265182
    124          1           0       16.631138   -1.538305   -1.336517
    125          1           0       16.053354    1.396080    0.875662
    126          1           0       16.538315   -0.015725    1.601312
    127          1           0       18.110921   -0.384848   -0.455460
    128          1           0       17.526122    1.026487   -1.195113
    129          1           0       18.604800    2.157523    1.222474
    130          1           0       19.077747    0.634725    1.734860
    131          1           0       20.693973    0.265105    0.141364
    132          1           0       20.140887    3.038762   -0.527208
    133          1           0       21.459158    1.859844   -1.625586
    134          1           0       19.590612    1.910282   -1.677705
    135          1           0       21.208110    1.172044    2.287263
    136          1           0       22.395460    1.359964    0.823400
    137          1           0       21.258500    2.745647    1.392980
 ---------------------------------------------------------------------

 SCF Done:  E(RCAM-B3LYP) =  -2932.55538791     A.U. after   17 cycles

 Excitation energies and oscillator strengths:

 Excited State   1:      Singlet-A      2.1652 eV  572.63 nm  f=0.2100  <S**2>=0.000
     240 -> 242        0.13316
     240 -> 243       -0.21354
     241 -> 242        0.64314
     241 -> 243        0.12237
 This state for optimization and/or second-order correction.
 Total Energy, E(TD-HF/TD-KS) =  -2932.47582001
 Copying the excited state density for this state as the 1-particle RhoCI density.

 The electronic state is 1-A.
 Alpha  occ. eigenvalues --  -46.84576 -19.26141 -19.25294 -19.20575 -19.19998
 Alpha  occ. eigenvalues --  -19.19914 -14.42583 -14.39396 -14.39055 -14.38413
 Alpha  occ. eigenvalues --  -10.38055 -10.38049 -10.35078 -10.33212 -10.30123
 Alpha  occ. eigenvalues --  -10.30027 -10.29864 -10.29691 -10.29393 -10.29360
 Alpha  occ. eigenvalues --  -10.29254 -10.29172 -10.28911 -10.28746 -10.28538
 Alpha  occ. eigenvalues --  -10.28411 -10.28358 -10.28176 -10.27738 -10.27560
 Alpha  occ. eigenvalues --  -10.27243 -10.27235 -10.27200 -10.27133 -10.27104
 Alpha  occ. eigenvalues --  -10.26986 -10.26957 -10.26769 -10.26566 -10.26514
 Alpha  occ. eigenvalues --  -10.26422 -10.26298 -10.26286 -10.26213 -10.26207
 Alpha  occ. eigenvalues --  -10.26084 -10.26020 -10.25957 -10.25842 -10.25751
 Alpha  occ. eigenvalues --  -10.25638 -10.25511 -10.25480 -10.25262 -10.25195
 Alpha  occ. eigenvalues --  -10.25181 -10.25090 -10.24840 -10.24732 -10.24710
 Alpha  occ. eigenvalues --  -10.24664 -10.24409 -10.23643 -10.23508 -10.22213
 Alpha  occ. eigenvalues --   -3.13560  -1.88275  -1.87807  -1.87724  -1.20636
 Alpha  occ. eigenvalues --   -1.19895  -1.12637  -1.09967  -1.09957  -1.05048
 Alpha  occ. eigenvalues --   -1.04154  -1.03071  -1.02212  -0.91862  -0.90942
 Alpha  occ. eigenvalues --   -0.90793  -0.90455  -0.90358  -0.89524  -0.89045
 Alpha  occ. eigenvalues --   -0.88645  -0.88153  -0.87436  -0.87374  -0.86354
 Alpha  occ. eigenvalues --   -0.85433  -0.84467  -0.83460  -0.83060  -0.82788
 Alpha  occ. eigenvalues --   -0.81918  -0.81244  -0.80911  -0.80470  -0.79086
 Alpha  occ. eigenvalues --   -0.77500  -0.77400  -0.76386  -0.76258  -0.75772
 Alpha  occ. eigenvalues --   -0.75479  -0.75007  -0.74297  -0.73871  -0.72688
 Alpha  occ. eigenvalues --   -0.71862  -0.70801  -0.69798  -0.69424  -0.68899
 Alpha  occ. eigenvalues --   -0.67559  -0.66609  -0.65690  -0.65538  -0.65227
 Alpha  occ. eigenvalues --   -0.64084  -0.63828  -0.63238  -0.62869  -0.62073
 Alpha  occ. eigenvalues --   -0.61682  -0.61544  -0.61170  -0.59979  -0.59716
 Alpha  occ. eigenvalues --   -0.59006  -0.58657  -0.58101  -0.57907  -0.56980
 Alpha  occ. eigenvalues --   -0.56546  -0.55790  -0.55440  -0.55252  -0.54985
 Alpha  occ. eigenvalues --   -0.54416  -0.54184  -0.53934  -0.53734  -0.53310
 Alpha  occ. eigenvalues --   -0.52897  -0.52718  -0.52629  -0.52405  -0.52190
 Alpha  occ. eigenvalues --   -0.52076  -0.51703  -0.51035  -0.50950  -0.50778
 Alpha  occ. eigenvalues --   -0.50606  -0.50453  -0.50050  -0.49913  -0.49713
 Alpha  occ. eigenvalues --   -0.49528  -0.49183  -0.49088  -0.48770  -0.48676
 Alpha  occ. eigenvalues --   -0.48269  -0.48109  -0.47686  -0.47463  -0.47217
 Alpha  occ. eigenvalues --   -0.47120  -0.46812  -0.46581  -0.46433  -0.46266
 Alpha  occ. eigenvalues --   -0.46181  -0.45978  -0.45842  -0.45474  -0.45208
 Alpha  occ. eigenvalues --   -0.45066  -0.44758  -0.44730  -0.44214  -0.43950
 Alpha  occ. eigenvalues --   -0.43770  -0.43665  -0.43560  -0.43525  -0.43370
 Alpha  occ. eigenvalues --   -0.43164  -0.43042  -0.42647  -0.42584  -0.42530
 Alpha  occ. eigenvalues --   -0.42201  -0.41820  -0.41703  -0.41370  -0.41011
 Alpha  occ. eigenvalues --   -0.41004  -0.40900  -0.40686  -0.40586  -0.40502
 Alpha  occ. eigenvalues --   -0.40364  -0.39997  -0.39530  -0.39352  -0.39343
 Alpha  occ. eigenvalues --   -0.39165  -0.38845  -0.38663  -0.38107  -0.37794
 Alpha  occ. eigenvalues --   -0.37655  -0.37075  -0.37040  -0.36875  -0.36754
 Alpha  occ. eigenvalues --   -0.36189  -0.35990  -0.35666  -0.35605  -0.35558
 Alpha  occ. eigenvalues --   -0.35318  -0.34646  -0.34569  -0.33737  -0.33562
 Alpha  occ. eigenvalues --   -0.33483  -0.33132  -0.32892  -0.30974  -0.29226
 Alpha  occ. eigenvalues --   -0.29120  -0.28778  -0.28398  -0.27480  -0.23734
 Alpha  occ. eigenvalues --   -0.21072
 Alpha virt. eigenvalues --   -0.05800  -0.02657   0.02192   0.04285   0.05075
 Alpha virt. eigenvalues --    0.06094   0.06397   0.06995   0.07340   0.08395
 Alpha virt. eigenvalues --    0.08765   0.09958   0.11048   0.11556   0.11636

 Mulliken charges:
               1
     1  Mg   0.812108
     2  C    0.039336
     3  C   -0.233078
     4  C   -0.160915
     5  C   -0.189094
     6  N   -0.650597
     7  C    0.309352
     8  C   -0.158005
     9  C   -0.129767
    10  C    0.304424
    11  C   -0.309321
    12  C   -0.194930
    13  C   -0.240538
    14  C    0.575283
    15  O   -0.464801
    16  O   -0.465335
    17  N   -0.708560
    18  C    0.337742
    19  C    0.056953
    20  C    0.016548
    21  C    0.324362
    22  C   -0.373379
    23  C   -0.096789
    24  C   -0.222092
    25  N   -0.665837
    26  C    0.352475
    27  C    0.032476
    28  C    0.010897
    29  C    0.237502
    30  C   -0.407840
    31  C   -0.224511
    32  C   -0.296267
    33  N   -0.759250
    34  C    0.199057
    35  C    0.077953
    36  C   -0.070243
    37  C    0.411187
    38  C   -0.375503
    39  C    0.368866
    40  O   -0.423147
    41  C   -0.344557
    42  C    0.627438
    43  O   -0.468859
    44  O   -0.406731
    45  C   -0.103494
    46  C    0.060292
    47  C   -0.098981
    48  C    0.084121
    49  C   -0.371651
    50  C   -0.224818
    51  C   -0.192001
    52  C   -0.166821
    53  C   -0.038470
    54  C   -0.324891
    55  C   -0.173040
    56  C   -0.180396
    57  C   -0.168518
    58  C   -0.071135
    59  C   -0.289204
    60  C   -0.170750
    61  C   -0.173851
    62  C   -0.180124
    63  C   -0.073538
    64  C   -0.291821
    65  C   -0.304187
    66  H    0.063480
    67  H    0.071850
    68  H    0.088946
    69  H    0.126073
    70  H    0.116543
    71  H    0.106806
    72  H    0.116177
    73  H    0.127299
    74  H    0.117269
    75  H    0.102188
    76  H    0.138685
    77  H    0.144624
    78  H    0.118250
    79  H    0.092789
    80  H    0.125793
    81  H    0.096774
    82  H    0.106338
    83  H    0.105176
    84  H    0.109966
    85  H    0.111783
    86  H    0.119214
    87  H    0.107913
    88  H    0.104576
    89  H    0.119409
    90  H    0.071366
    91  H    0.121458
    92  H    0.133459
    93  H    0.143858
    94  H    0.118431
    95  H    0.138620
    96  H    0.124407
    97  H    0.124837
    98  H    0.111382
    99  H    0.125854
   100  H    0.099212
   101  H    0.055276
   102  H    0.109277
   103  H    0.132832
   104  H    0.132832
   105  H    0.099061
   106  H    0.096160
   107  H    0.116265
   108  H    0.094484
   109  H    0.078514
   110  H    0.098312
   111  H    0.052918
   112  H    0.100154
   113  H    0.086342
   114  H    0.111801
   115  H    0.081530
   116  H    0.069504
   117  H    0.113119
   118  H    0.100505
   119  H    0.083527
   120  H    0.079242
   121  H    0.077100
   122  H    0.099341
   123  H    0.091573
   124  H    0.110080
   125  H    0.095469
   126  H    0.099243
   127  H    0.109496
   128  H    0.048034
   129  H    0.084194
   130  H    0.067561
   131  H    0.093439
   132  H    0.089620
   133  H    0.078284
   134  H    0.114832
   135  H    0.106150
   136  H    0.103302
   137  H    0.089090
 Sum of Mulliken charges =   0.00000

 Dipole moment (field-independent basis, Debye):
    X=              2.3560    Y=              4.6880    Z=              0.6942  Tot=              5.2924
 Quadrupole moment (field-independent basis, Debye-Ang):
   XX=           -363.9523   YY=           -393.5300   ZZ=           -397.0949
   XY=            -37.2535   XZ=              9.3336   YZ=              2.3629

 Normal termination of Gaussian 09 at Sat Jun 29 12:01:00 2019.
