 Gaussian 09, Revision D.01,
 Gaussian 09:  ES64L-G09RevD.01 24-Apr-2013

 -------------------------------------
 # td=(NStates=1) CAM-B3LYP/6-31G(d,p)
 -------------------------------------

 --
 TD
 --
 Symbolic Z-matrix:
 Charge =  0 Multiplicity = 1

                         Standard orientation:
 ---------------------------------------------------------------------
 Center     Atomic      Atomic             Coordinates (Angstroms)
 Number     Number       Type             X           Y           Z
 ---------------------------------------------------------------------
      1         12           0       -7.119819    0.567874    0.041971
      2          6           0       -4.913744   -2.020610    0.507176
      3          6           0       -4.765072    2.867082    1.057406
      4          6           0       -9.424430    3.005588   -0.326901
      5          6           0       -9.546143   -1.722394   -0.819814
      6          7           0       -5.124729    0.413123    0.672888
      7          6           0       -4.453300   -0.704475    0.781605
      8          6           0       -2.950247   -0.436667    1.178651
      9          6           0       -3.021557    1.093542    1.593022
     10          6           0       -4.375404    1.524371    1.009196
     11          6           0       -2.991627    1.160263    3.061789
     12          6           0       -1.871855   -0.550572    0.045264
     13          6           0       -0.478672   -0.334797    0.538481
     14          6           0        0.475679   -0.472545   -0.643877
     15          8           0        0.269137   -0.814131   -1.779978
     16          8           0        1.784558   -0.337469   -0.296416
     17          7           0       -7.072997    2.569349    0.374734
     18          6           0       -6.051424    3.395096    0.878595
     19          6           0       -6.491398    4.822975    0.923970
     20          6           0       -7.757891    4.871796    0.369427
     21          6           0       -8.155095    3.468162    0.123542
     22          6           0       -5.578520    5.786774    1.447822
     23          6           0       -8.674208    5.942671    0.357885
     24          6           0       -8.228390    7.187896    0.163801
     25          7           0       -9.104493    0.692266   -0.487305
     26          6           0       -9.928341    1.828144   -0.595273
     27          6           0      -11.270868    1.504035   -0.996824
     28          6           0      -11.262724    0.106226   -1.218485
     29          6           0       -9.964678   -0.389693   -0.911034
     30          6           0      -12.376167    2.347360   -1.372625
     31          6           0      -12.406778   -0.777110   -1.623210
     32          6           0      -12.283554   -1.180760   -3.082860
     33          7           0       -7.230508   -1.434989   -0.096789
     34          6           0       -8.336853   -2.259480   -0.502188
     35          6           0       -7.900738   -3.602214   -0.431179
     36          6           0       -6.558701   -3.557317   -0.107407
     37          6           0       -6.191010   -2.232266    0.120008
     38          6           0       -8.662429   -4.898231   -0.758932
     39          6           0       -5.326335   -4.441200    0.122239
     40          8           0       -5.227134   -5.704613    0.045456
     41          6           0       -4.195854   -3.399309    0.470846
     42          6           0       -3.595182   -3.758490    1.821559
     43          8           0       -3.725566   -3.212958    2.976085
     44          8           0       -2.741763   -4.733477    1.558991
     45          6           0       -1.922612   -5.143872    2.732717
     46          6           0        2.802529   -0.581967   -1.283096
     47          6           0        4.087266   -0.210739   -0.550788
     48          6           0        5.073021    0.593933   -0.984528
     49          6           0        5.045801    1.286231   -2.261738
     50          6           0        6.509309    0.612266   -0.302154
     51          6           0        7.712315    0.008921   -0.948113
     52          6           0        8.960472    0.000777   -0.147645
     53          6           0       10.253430   -0.562400   -0.848172
     54          6           0       10.220129   -1.989443   -1.141303
     55          6           0       11.419813   -0.096682    0.049666
     56          6           0       12.767582   -0.409837   -0.582909
     57          6           0       13.983661   -0.142867    0.274347
     58          6           0       15.381494   -0.305392   -0.469993
     59          6           0       15.702972   -1.847463   -0.823865
     60          6           0       16.319579    0.349491    0.459740
     61          6           0       17.864383    0.474253   -0.084461
     62          6           0       18.818653    1.152060    0.747518
     63          6           0       20.238527    1.292859    0.099740
     64          6           0       20.353109    2.199500   -1.066332
     65          6           0       21.200967    1.651181    1.280428
     66          1           0       -4.078960    3.531456    1.625919
     67          1           0      -10.096401    3.752692   -0.535684
     68          1           0      -10.187590   -2.462344   -1.189547
     69          1           0       -2.544112   -1.125905    2.281535
     70          1           0       -2.304159    1.552694    1.068532
     71          1           0       -1.992374    1.023708    3.500451
     72          1           0       -3.015897    2.211101    3.320371
     73          1           0       -3.623160    0.556992    3.607271
     74          1           0       -1.922302   -1.527608   -0.522321
     75          1           0       -2.195986    0.092749   -0.711937
     76          1           0       -0.349908    0.675472    0.907555
     77          1           0       -0.199394   -1.025085    1.353072
     78          1           0       -4.895162    6.223276    0.874583
     79          1           0       -6.437134    6.605294    1.555848
     80          1           0       -4.806853    5.565286    2.251342
     81          1           0       -9.821241    5.693178    0.720725
     82          1           0       -8.909445    8.068038    0.086427
     83          1           0       -7.178604    7.148509    0.000969
     84          1           0      -12.283970    3.089687   -2.399370
     85          1           0      -13.308809    1.710531   -1.216369
     86          1           0      -12.673637    3.205717   -0.624197
     87          1           0      -12.297627   -1.588003   -1.018278
     88          1           0      -13.217881   -0.149244   -1.339479
     89          1           0      -13.061364   -1.841930   -3.322532
     90          1           0      -12.204043   -0.330268   -3.602016
     91          1           0      -11.303860   -1.664736   -3.053649
     92          1           0       -8.965358   -4.919920   -1.787602
     93          1           0       -8.092680   -5.889722   -0.575682
     94          1           0       -9.537331   -5.159285   -0.076310
     95          1           0       -3.234608   -3.485278   -0.211948
     96          1           0       -1.432803   -4.151130    3.221374
     97          1           0       -2.518977   -5.741059    3.564609
     98          1           0       -1.170240   -5.857050    2.431989
     99          1           0        2.740939   -1.669589   -1.524751
    100          1           0        2.665311   -0.065051   -2.216751
    101          1           0        4.066332   -0.661074    0.563233
    102          1           0        4.231038    1.356452   -2.792446
    103          1           0        5.397472    2.318450   -2.054642
    104          1           0        5.824559    0.827844   -2.989394
    105          1           0        6.820310    1.840212   -0.124251
    106          1           0        6.110260    0.131556    0.748721
    107          1           0        7.620315   -0.914567   -1.239450
    108          1           0        8.031986    0.615415   -1.921881
    109          1           0        9.188260    1.120301    0.240807
    110          1           0        8.791353   -0.607425    0.886438
    111          1           0       10.303937   -0.000277   -1.810474
    112          1           0        9.293770   -1.952543   -1.761863
    113          1           0       11.096312   -2.348443   -1.863860
    114          1           0       10.016187   -2.815588   -0.286911
    115          1           0       11.462189    1.010907    0.426333
    116          1           0       11.280844   -0.768242    0.860304
    117          1           0       13.002574   -1.471803   -0.881516
    118          1           0       13.011495    0.016151   -1.769232
    119          1           0       13.960017    0.961668    0.725594
    120          1           0       13.940561   -0.776126    1.167333
    121          1           0       15.084275    0.362961   -1.306062
    122          1           0       15.694197   -2.491333    0.108066
    123          1           0       14.838306   -2.192103   -1.567037
    124          1           0       16.548084   -1.937403   -1.387432
    125          1           0       15.986730    1.259796    0.623686
    126          1           0       16.482928   -0.232917    1.481511
    127          1           0       18.198133   -0.608784   -0.362480
    128          1           0       17.759660    1.000991   -1.093551
    129          1           0       18.389408    2.124585    0.904105
    130          1           0       19.043528    0.709397    1.663142
    131          1           0       20.379618    0.261867   -0.226396
    132          1           0       19.881155    3.279506   -0.575183
    133          1           0       21.347759    2.367854   -1.345825
    134          1           0       19.768180    1.862611   -1.937878
    135          1           0       21.179250    0.803354    1.987164
    136          1           0       22.194234    1.869052    1.039368
    137          1           0       20.850135    2.524994    1.661966
 ---------------------------------------------------------------------

 SCF Done:  E(RCAM-B3LYP) =  -2932.63762797     A.U. after   16 cycles

 Excitation energies and oscillator strengths:

 Excited State   1:      Singlet-A      2.0340 eV  609.57 nm  f=0.2251  <S**2>=0.000
     240 -> 243        0.27693
     241 -> 242        0.64594
 This state for optimization and/or second-order correction.
 Total Energy, E(TD-HF/TD-KS) =  -2932.56288074
 Copying the excited state density for this state as the 1-particle RhoCI density.

 The electronic state is 1-A.
 Alpha  occ. eigenvalues --  -46.83403 -19.27820 -19.25070 -19.21270 -19.20853
 Alpha  occ. eigenvalues --  -19.20641 -14.42371 -14.39877 -14.38882 -14.38501
 Alpha  occ. eigenvalues --  -10.39834 -10.39215 -10.36747 -10.33563 -10.31897
 Alpha  occ. eigenvalues --  -10.31672 -10.31266 -10.30445 -10.29924 -10.29842
 Alpha  occ. eigenvalues --  -10.29328 -10.29197 -10.29031 -10.28808 -10.28571
 Alpha  occ. eigenvalues --  -10.28556 -10.28497 -10.28290 -10.27837 -10.27746
 Alpha  occ. eigenvalues --  -10.27712 -10.27664 -10.27391 -10.27115 -10.27048
 Alpha  occ. eigenvalues --  -10.26888 -10.26841 -10.26839 -10.26766 -10.26745
 Alpha  occ. eigenvalues --  -10.26590 -10.26577 -10.26473 -10.26404 -10.26344
 Alpha  occ. eigenvalues --  -10.26292 -10.26273 -10.26137 -10.26024 -10.25843
 Alpha  occ. eigenvalues --  -10.25580 -10.25566 -10.25526 -10.25480 -10.25317
 Alpha  occ. eigenvalues --  -10.25236 -10.25168 -10.25139 -10.24798 -10.24736
 Alpha  occ. eigenvalues --  -10.24522 -10.24489 -10.23703 -10.23146 -10.23049
 Alpha  occ. eigenvalues --   -3.12554  -1.87254  -1.86795  -1.86739  -1.18231
 Alpha  occ. eigenvalues --   -1.18195  -1.08565  -1.08529  -1.06018  -1.05088
 Alpha  occ. eigenvalues --   -1.03422  -1.01448  -1.00285  -0.92531  -0.91569
 Alpha  occ. eigenvalues --   -0.90924  -0.90766  -0.90304  -0.89939  -0.89864
 Alpha  occ. eigenvalues --   -0.88564  -0.88458  -0.88112  -0.87075  -0.86419
 Alpha  occ. eigenvalues --   -0.85637  -0.84658  -0.84120  -0.83722  -0.83006
 Alpha  occ. eigenvalues --   -0.81985  -0.81615  -0.80491  -0.80195  -0.78406
 Alpha  occ. eigenvalues --   -0.78051  -0.77102  -0.76259  -0.75979  -0.75840
 Alpha  occ. eigenvalues --   -0.75798  -0.75184  -0.74892  -0.73146  -0.72567
 Alpha  occ. eigenvalues --   -0.72046  -0.70927  -0.70379  -0.68598  -0.68194
 Alpha  occ. eigenvalues --   -0.66877  -0.66144  -0.65533  -0.64902  -0.63957
 Alpha  occ. eigenvalues --   -0.63280  -0.62999  -0.62680  -0.62327  -0.61756
 Alpha  occ. eigenvalues --   -0.61651  -0.61061  -0.60650  -0.59536  -0.59279
 Alpha  occ. eigenvalues --   -0.59131  -0.58129  -0.57869  -0.56898  -0.56720
 Alpha  occ. eigenvalues --   -0.56212  -0.56098  -0.55271  -0.55197  -0.54981
 Alpha  occ. eigenvalues --   -0.54769  -0.54425  -0.54215  -0.53953  -0.53131
 Alpha  occ. eigenvalues --   -0.53055  -0.52825  -0.52696  -0.52639  -0.51959
 Alpha  occ. eigenvalues --   -0.51852  -0.51217  -0.50789  -0.50601  -0.50457
 Alpha  occ. eigenvalues --   -0.50383  -0.49913  -0.49646  -0.49576  -0.49426
 Alpha  occ. eigenvalues --   -0.49243  -0.48778  -0.48679  -0.48413  -0.48277
 Alpha  occ. eigenvalues --   -0.48126  -0.48010  -0.47866  -0.47802  -0.47329
 Alpha  occ. eigenvalues --   -0.47034  -0.46962  -0.46778  -0.46573  -0.46218
 Alpha  occ. eigenvalues --   -0.46068  -0.45631  -0.45437  -0.45178  -0.44886
 Alpha  occ. eigenvalues --   -0.44616  -0.44533  -0.44404  -0.44274  -0.44173
 Alpha  occ. eigenvalues --   -0.43973  -0.43903  -0.43605  -0.43197  -0.43022
 Alpha  occ. eigenvalues --   -0.42769  -0.42576  -0.42446  -0.42353  -0.42271
 Alpha  occ. eigenvalues --   -0.42179  -0.42029  -0.41831  -0.41484  -0.41233
 Alpha  occ. eigenvalues --   -0.41077  -0.41026  -0.40950  -0.40719  -0.40466
 Alpha  occ. eigenvalues --   -0.39846  -0.39684  -0.39492  -0.39405  -0.38748
 Alpha  occ. eigenvalues --   -0.38616  -0.38543  -0.38325  -0.38257  -0.37727
 Alpha  occ. eigenvalues --   -0.37636  -0.37163  -0.36890  -0.36619  -0.36549
 Alpha  occ. eigenvalues --   -0.36492  -0.36267  -0.35960  -0.35749  -0.35520
 Alpha  occ. eigenvalues --   -0.35336  -0.35236  -0.34199  -0.33829  -0.33374
 Alpha  occ. eigenvalues --   -0.33143  -0.32346  -0.32055  -0.31385  -0.30475
 Alpha  occ. eigenvalues --   -0.29598  -0.29497  -0.27815  -0.27192  -0.23334
 Alpha  occ. eigenvalues --   -0.21255
 Alpha virt. eigenvalues --   -0.06562  -0.03661   0.00771   0.03547   0.05000
 Alpha virt. eigenvalues --    0.05808   0.05869   0.06172   0.06396   0.07198
 Alpha virt. eigenvalues --    0.08116   0.09824   0.10924   0.11346   0.11380

 Mulliken charges:
               1
     1  Mg   0.803681
     2  C    0.084321
     3  C   -0.195265
     4  C   -0.188147
     5  C   -0.176002
     6  N   -0.626481
     7  C    0.323661
     8  C   -0.164219
     9  C   -0.125619
    10  C    0.299522
    11  C   -0.302388
    12  C   -0.184034
    13  C   -0.256256
    14  C    0.593284
    15  O   -0.466957
    16  O   -0.490982
    17  N   -0.679379
    18  C    0.291029
    19  C    0.046392
    20  C    0.016663
    21  C    0.265953
    22  C   -0.390494
    23  C   -0.053925
    24  C   -0.268792
    25  N   -0.695972
    26  C    0.326938
    27  C    0.072497
    28  C   -0.009951
    29  C    0.290584
    30  C   -0.387927
    31  C   -0.222917
    32  C   -0.296260
    33  N   -0.772190
    34  C    0.268052
    35  C    0.018708
    36  C   -0.014301
    37  C    0.346845
    38  C   -0.392976
    39  C    0.412653
    40  O   -0.477380
    41  C   -0.332566
    42  C    0.636661
    43  O   -0.513943
    44  O   -0.428289
    45  C   -0.084797
    46  C    0.025895
    47  C   -0.135387
    48  C    0.108781
    49  C   -0.349445
    50  C   -0.190700
    51  C   -0.144170
    52  C   -0.164818
    53  C   -0.063915
    54  C   -0.295862
    55  C   -0.155263
    56  C   -0.172127
    57  C   -0.177405
    58  C   -0.063383
    59  C   -0.310028
    60  C   -0.146675
    61  C   -0.197789
    62  C   -0.143453
    63  C   -0.069227
    64  C   -0.280768
    65  C   -0.319048
    66  H    0.077278
    67  H    0.067248
    68  H    0.083211
    69  H    0.082745
    70  H    0.103880
    71  H    0.101434
    72  H    0.095207
    73  H    0.144579
    74  H    0.112038
    75  H    0.126849
    76  H    0.141636
    77  H    0.147851
    78  H    0.143145
    79  H    0.099623
    80  H    0.116262
    81  H    0.100197
    82  H    0.113665
    83  H    0.112706
    84  H    0.105381
    85  H    0.115450
    86  H    0.099976
    87  H    0.117156
    88  H    0.092204
    89  H    0.110920
    90  H    0.124653
    91  H    0.104025
    92  H    0.131822
    93  H    0.144669
    94  H    0.117325
    95  H    0.171324
    96  H    0.124564
    97  H    0.130684
    98  H    0.134110
    99  H    0.121832
   100  H    0.125929
   101  H    0.085275
   102  H    0.115327
   103  H    0.111152
   104  H    0.106326
   105  H    0.057377
   106  H    0.081057
   107  H    0.113725
   108  H    0.078360
   109  H    0.071725
   110  H    0.065537
   111  H    0.089698
   112  H    0.102151
   113  H    0.100985
   114  H    0.092976
   115  H    0.088511
   116  H    0.104411
   117  H    0.095088
   118  H    0.036267
   119  H    0.058805
   120  H    0.090838
   121  H    0.092743
   122  H    0.106571
   123  H    0.081350
   124  H    0.122662
   125  H    0.099722
   126  H    0.069679
   127  H    0.068416
   128  H    0.077912
   129  H    0.084177
   130  H    0.092863
   131  H    0.081662
   132  H    0.052326
   133  H    0.112132
   134  H    0.105819
   135  H    0.099572
   136  H    0.098099
   137  H    0.112883
 Sum of Mulliken charges =   0.00000

 Dipole moment (field-independent basis, Debye):
    X=              1.4230    Y=              3.5982    Z=             -0.0404  Tot=              3.8696
 Quadrupole moment (field-independent basis, Debye-Ang):
   XX=           -353.6294   YY=           -391.0317   ZZ=           -401.0935
   XY=            -29.1641   XZ=              9.8437   YZ=             -2.2258

 Normal termination of Gaussian 09 at Sat Jun 29 05:45:54 2019.
