 Gaussian 09, Revision D.01,
 Gaussian 09:  ES64L-G09RevD.01 24-Apr-2013

 -------------------------------------
 # td=(NStates=1) CAM-B3LYP/6-31G(d,p)
 -------------------------------------

 --
 TD
 --
 Symbolic Z-matrix:
 Charge =  0 Multiplicity = 1

                         Standard orientation:
 ---------------------------------------------------------------------
 Center     Atomic      Atomic             Coordinates (Angstroms)
 Number     Number       Type             X           Y           Z
 ---------------------------------------------------------------------
      1         12           0       -7.090639    0.641769    0.078149
      2          6           0       -4.864717   -1.897140    0.502838
      3          6           0       -4.892823    2.811330    1.048597
      4          6           0       -9.478359    3.080840   -0.283938
      5          6           0       -9.540628   -1.733360   -0.845448
      6          7           0       -5.129695    0.470841    0.783784
      7          6           0       -4.337841   -0.770330    0.770142
      8          6           0       -2.940870   -0.443599    1.280982
      9          6           0       -3.099638    1.075837    1.703615
     10          6           0       -4.470444    1.493080    1.179553
     11          6           0       -2.903502    1.230340    3.186676
     12          6           0       -1.854784   -0.518265    0.087553
     13          6           0       -0.373324   -0.369966    0.512486
     14          6           0        0.585465   -0.576677   -0.636936
     15          8           0        0.170776   -0.836407   -1.752055
     16          8           0        1.769761   -0.485478   -0.152267
     17          7           0       -7.176080    2.579415    0.349823
     18          6           0       -6.071105    3.292165    0.801062
     19          6           0       -6.438608    4.766819    0.851730
     20          6           0       -7.807497    4.782258    0.460416
     21          6           0       -8.269067    3.392029    0.194056
     22          6           0       -5.582201    5.925312    1.302245
     23          6           0       -8.717067    5.943687    0.259323
     24          6           0       -8.284606    7.190192    0.036875
     25          7           0       -9.202528    0.670290   -0.489367
     26          6           0       -9.950599    1.786449   -0.621320
     27          6           0      -11.240311    1.417106   -1.091662
     28          6           0      -11.298967    0.065934   -1.164630
     29          6           0       -9.982182   -0.456230   -0.897961
     30          6           0      -12.292935    2.357644   -1.294923
     31          6           0      -12.408092   -0.890051   -1.631684
     32          6           0      -12.386027   -1.008506   -3.114088
     33          7           0       -7.164526   -1.411781   -0.149005
     34          6           0       -8.213496   -2.304961   -0.528610
     35          6           0       -7.791277   -3.585916   -0.496267
     36          6           0       -6.382303   -3.487152   -0.227977
     37          6           0       -6.109071   -2.213449   -0.014103
     38          6           0       -8.589042   -4.860918   -0.843288
     39          6           0       -5.347917   -4.387008    0.154276
     40          8           0       -5.054588   -5.523441    0.086391
     41          6           0       -4.230291   -3.318765    0.518042
     42          6           0       -3.556864   -3.682609    1.743856
     43          8           0       -3.738023   -3.059923    2.767627
     44          8           0       -2.702688   -4.737754    1.740597
     45          6           0       -2.183798   -5.157801    3.003481
     46          6           0        2.779975   -0.623395   -1.168096
     47          6           0        4.162326   -0.412861   -0.569178
     48          6           0        5.186886    0.352658   -1.006735
     49          6           0        5.189901    1.153339   -2.310794
     50          6           0        6.488277    0.339988   -0.215833
     51          6           0        7.709787   -0.133257   -0.998876
     52          6           0        9.011027   -0.156651   -0.157971
     53          6           0       10.318941   -0.492108   -0.874610
     54          6           0       10.297058   -1.973709   -1.333613
     55          6           0       11.415875   -0.212206    0.037640
     56          6           0       12.752751   -0.556759   -0.617078
     57          6           0       13.997673   -0.218104    0.273607
     58          6           0       15.374088   -0.229121   -0.523276
     59          6           0       15.660624   -1.656795   -0.939555
     60          6           0       16.378937    0.363317    0.496639
     61          6           0       17.681262    0.628964   -0.147054
     62          6           0       18.739061    1.199153    0.781489
     63          6           0       20.244296    1.387725    0.267544
     64          6           0       20.227975    2.104739   -1.129555
     65          6           0       21.198028    1.982703    1.340420
     66          1           0       -4.082928    3.525450    1.490240
     67          1           0      -10.264838    3.924925   -0.330926
     68          1           0      -10.314258   -2.555352   -1.107720
     69          1           0       -2.697865   -0.944268    2.107994
     70          1           0       -2.333579    1.719035    0.944118
     71          1           0       -1.999446    0.798660    3.637721
     72          1           0       -2.977838    2.377817    3.511560
     73          1           0       -3.617221    0.868083    3.747428
     74          1           0       -1.935633   -1.447501   -0.318091
     75          1           0       -1.930521    0.339621   -0.753602
     76          1           0       -0.410630    0.775071    0.942800
     77          1           0       -0.310121   -1.100236    1.415817
     78          1           0       -5.105624    6.427601    0.589511
     79          1           0       -6.423785    6.499831    1.686164
     80          1           0       -4.679787    5.651208    2.021146
     81          1           0       -9.725745    5.573268    0.103421
     82          1           0       -8.926253    8.062798   -0.050672
     83          1           0       -7.117652    7.639959    0.076433
     84          1           0      -12.215589    3.215339   -2.020844
     85          1           0      -13.256249    1.859885   -1.348638
     86          1           0      -12.451260    2.938568   -0.308567
     87          1           0      -12.524609   -1.907058   -1.134346
     88          1           0      -13.269706   -0.476656   -1.449261
     89          1           0      -13.083688   -1.849180   -3.550311
     90          1           0      -12.733886    0.015352   -3.629880
     91          1           0      -11.259512   -1.292315   -3.429144
     92          1           0       -8.917060   -4.749005   -1.885789
     93          1           0       -7.964729   -5.835236   -0.756073
     94          1           0       -9.254957   -5.027759    0.086384
     95          1           0       -3.362851   -3.560157   -0.175812
     96          1           0       -1.447901   -4.500824    3.583703
     97          1           0       -2.962381   -5.593049    3.615548
     98          1           0       -1.698545   -6.065602    2.742038
     99          1           0        2.670488   -1.730531   -1.549480
    100          1           0        2.665356    0.275637   -2.036421
    101          1           0        4.375325   -0.793106    0.409385
    102          1           0        4.108293    1.509650   -2.629067
    103          1           0        5.899321    2.084156   -2.275709
    104          1           0        5.689581    0.495896   -3.217965
    105          1           0        6.585335    1.353960    0.075122
    106          1           0        6.596972   -0.151469    0.932303
    107          1           0        7.568768   -1.138414   -1.378224
    108          1           0        7.851631    0.551520   -1.968960
    109          1           0        8.904231    1.038111    0.265918
    110          1           0        8.872550   -0.890451    0.658308
    111          1           0       10.593268    0.331721   -1.774036
    112          1           0        9.292891   -2.196844   -1.910523
    113          1           0       11.250467   -2.269866   -1.854529
    114          1           0       10.024375   -2.624392   -0.568769
    115          1           0       11.394068    0.785726    0.354180
    116          1           0       11.291082   -0.847578    1.067710
    117          1           0       12.655149   -1.575286   -0.801579
    118          1           0       12.707714    0.045712   -1.613681
    119          1           0       13.779542    0.953500    0.677639
    120          1           0       13.916946   -0.873298    1.165762
    121          1           0       15.301874    0.495356   -1.495082
    122          1           0       15.844708   -2.313189   -0.027499
    123          1           0       14.837833   -2.124057   -1.447085
    124          1           0       16.724170   -1.611522   -1.578214
    125          1           0       16.109395    1.383744    0.750532
    126          1           0       16.525857   -0.419803    1.319089
    127          1           0       18.199843   -0.240919   -0.638084
    128          1           0       17.585932    1.151098   -0.997227
    129          1           0       18.449024    2.233612    0.991050
    130          1           0       18.695163    0.629345    1.757115
    131          1           0       20.562275    0.243738    0.052917
    132          1           0       20.060314    3.097752   -0.868102
    133          1           0       21.371679    1.966804   -1.639588
    134          1           0       19.367097    1.585986   -1.760639
    135          1           0       21.202818    1.445979    2.337066
    136          1           0       22.198291    2.365103    0.909603
    137          1           0       20.702820    2.974141    1.667109
 ---------------------------------------------------------------------

 SCF Done:  E(RCAM-B3LYP) =  -2932.63755266     A.U. after   16 cycles

 Excitation energies and oscillator strengths:

 Excited State   1:      Singlet-A      2.5174 eV  492.51 nm  f=0.1948  <S**2>=0.000
     240 -> 242       -0.20529
     240 -> 243        0.19917
     241 -> 242        0.61941
     241 -> 243        0.13150
 This state for optimization and/or second-order correction.
 Total Energy, E(TD-HF/TD-KS) =  -2932.54504067
 Copying the excited state density for this state as the 1-particle RhoCI density.

 The electronic state is 1-A.
 Alpha  occ. eigenvalues --  -46.83734 -19.28245 -19.24943 -19.20768 -19.19206
 Alpha  occ. eigenvalues --  -19.18336 -14.41530 -14.39049 -14.39046 -14.37861
 Alpha  occ. eigenvalues --  -10.39177 -10.36990 -10.34791 -10.33398 -10.31525
 Alpha  occ. eigenvalues --  -10.30720 -10.30395 -10.30186 -10.29716 -10.29437
 Alpha  occ. eigenvalues --  -10.29009 -10.28964 -10.28948 -10.28925 -10.28596
 Alpha  occ. eigenvalues --  -10.28538 -10.28352 -10.28282 -10.28261 -10.27794
 Alpha  occ. eigenvalues --  -10.27522 -10.27496 -10.27485 -10.27476 -10.27475
 Alpha  occ. eigenvalues --  -10.27465 -10.27338 -10.26930 -10.26829 -10.26821
 Alpha  occ. eigenvalues --  -10.26672 -10.26575 -10.26574 -10.26482 -10.26464
 Alpha  occ. eigenvalues --  -10.26380 -10.26369 -10.26341 -10.26202 -10.26141
 Alpha  occ. eigenvalues --  -10.26110 -10.26021 -10.25871 -10.25819 -10.25770
 Alpha  occ. eigenvalues --  -10.25717 -10.25705 -10.25690 -10.25533 -10.25289
 Alpha  occ. eigenvalues --  -10.25100 -10.24962 -10.24740 -10.23500 -10.22479
 Alpha  occ. eigenvalues --   -3.12785  -1.87498  -1.87014  -1.86967  -1.21334
 Alpha  occ. eigenvalues --   -1.16825  -1.12192  -1.10114  -1.07288  -1.04561
 Alpha  occ. eigenvalues --   -1.03128  -1.03086  -1.01988  -0.92593  -0.91752
 Alpha  occ. eigenvalues --   -0.90685  -0.90129  -0.90040  -0.89354  -0.88894
 Alpha  occ. eigenvalues --   -0.88685  -0.87767  -0.87156  -0.86488  -0.86093
 Alpha  occ. eigenvalues --   -0.84897  -0.84446  -0.83766  -0.83209  -0.83020
 Alpha  occ. eigenvalues --   -0.82175  -0.81530  -0.81104  -0.79772  -0.78168
 Alpha  occ. eigenvalues --   -0.77555  -0.77027  -0.76128  -0.75789  -0.75144
 Alpha  occ. eigenvalues --   -0.74955  -0.74888  -0.74400  -0.73566  -0.72763
 Alpha  occ. eigenvalues --   -0.71931  -0.69877  -0.68971  -0.68338  -0.67858
 Alpha  occ. eigenvalues --   -0.67230  -0.66513  -0.65901  -0.65321  -0.64152
 Alpha  occ. eigenvalues --   -0.63288  -0.62933  -0.62583  -0.61790  -0.61475
 Alpha  occ. eigenvalues --   -0.60782  -0.60602  -0.59999  -0.59483  -0.58853
 Alpha  occ. eigenvalues --   -0.58562  -0.58317  -0.57781  -0.57121  -0.56423
 Alpha  occ. eigenvalues --   -0.55648  -0.55472  -0.55198  -0.55140  -0.54970
 Alpha  occ. eigenvalues --   -0.54603  -0.54513  -0.54096  -0.53173  -0.53055
 Alpha  occ. eigenvalues --   -0.52504  -0.52391  -0.52151  -0.51890  -0.51800
 Alpha  occ. eigenvalues --   -0.51311  -0.51129  -0.50661  -0.50496  -0.50301
 Alpha  occ. eigenvalues --   -0.50076  -0.50002  -0.49552  -0.49367  -0.49251
 Alpha  occ. eigenvalues --   -0.48961  -0.48518  -0.48353  -0.48266  -0.48209
 Alpha  occ. eigenvalues --   -0.47831  -0.47700  -0.47420  -0.47321  -0.47028
 Alpha  occ. eigenvalues --   -0.46827  -0.46673  -0.46589  -0.46416  -0.45890
 Alpha  occ. eigenvalues --   -0.45775  -0.45491  -0.45392  -0.45129  -0.44881
 Alpha  occ. eigenvalues --   -0.44706  -0.44632  -0.44297  -0.44062  -0.43839
 Alpha  occ. eigenvalues --   -0.43747  -0.43682  -0.43493  -0.43382  -0.43119
 Alpha  occ. eigenvalues --   -0.43047  -0.42687  -0.42481  -0.42270  -0.42135
 Alpha  occ. eigenvalues --   -0.42023  -0.41766  -0.41432  -0.41256  -0.41004
 Alpha  occ. eigenvalues --   -0.40501  -0.40268  -0.39814  -0.39717  -0.39447
 Alpha  occ. eigenvalues --   -0.39291  -0.39140  -0.39048  -0.38996  -0.38806
 Alpha  occ. eigenvalues --   -0.38599  -0.38397  -0.38348  -0.38119  -0.37726
 Alpha  occ. eigenvalues --   -0.37382  -0.37214  -0.37057  -0.36755  -0.36669
 Alpha  occ. eigenvalues --   -0.36547  -0.36403  -0.36169  -0.35921  -0.35859
 Alpha  occ. eigenvalues --   -0.35256  -0.34856  -0.34407  -0.33608  -0.33365
 Alpha  occ. eigenvalues --   -0.32962  -0.32808  -0.31748  -0.31383  -0.30091
 Alpha  occ. eigenvalues --   -0.28609  -0.28421  -0.27846  -0.27531  -0.24132
 Alpha  occ. eigenvalues --   -0.22734
 Alpha virt. eigenvalues --   -0.05821  -0.02248   0.02178   0.04432   0.05363
 Alpha virt. eigenvalues --    0.06042   0.06412   0.07026   0.07529   0.07809
 Alpha virt. eigenvalues --    0.09148   0.10002   0.10382   0.11124   0.11458

 Mulliken charges:
               1
     1  Mg   0.811785
     2  C    0.201238
     3  C   -0.225183
     4  C   -0.213167
     5  C   -0.176618
     6  N   -0.637458
     7  C    0.199145
     8  C   -0.131128
     9  C   -0.153958
    10  C    0.397329
    11  C   -0.316908
    12  C   -0.162503
    13  C   -0.286171
    14  C    0.638755
    15  O   -0.481838
    16  O   -0.419315
    17  N   -0.781609
    18  C    0.377306
    19  C    0.014087
    20  C   -0.032288
    21  C    0.391651
    22  C   -0.365679
    23  C   -0.037919
    24  C   -0.259244
    25  N   -0.696993
    26  C    0.346469
    27  C    0.046572
    28  C    0.021909
    29  C    0.294431
    30  C   -0.406580
    31  C   -0.217790
    32  C   -0.286836
    33  N   -0.717580
    34  C    0.238389
    35  C    0.012167
    36  C   -0.028651
    37  C    0.277370
    38  C   -0.375121
    39  C    0.372529
    40  O   -0.441486
    41  C   -0.373604
    42  C    0.622339
    43  O   -0.492046
    44  O   -0.466506
    45  C   -0.077863
    46  C    0.008398
    47  C   -0.129661
    48  C    0.120820
    49  C   -0.359873
    50  C   -0.221804
    51  C   -0.165341
    52  C   -0.164298
    53  C   -0.033443
    54  C   -0.327744
    55  C   -0.144890
    56  C   -0.183165
    57  C   -0.163975
    58  C   -0.055131
    59  C   -0.293429
    60  C   -0.148002
    61  C   -0.193087
    62  C   -0.170697
    63  C   -0.051041
    64  C   -0.290633
    65  C   -0.312023
    66  H    0.077272
    67  H    0.086042
    68  H    0.099224
    69  H    0.131940
    70  H    0.080391
    71  H    0.120108
    72  H    0.080558
    73  H    0.145268
    74  H    0.122229
    75  H    0.095182
    76  H    0.103017
    77  H    0.120025
    78  H    0.144447
    79  H    0.136121
    80  H    0.103718
    81  H    0.094468
    82  H    0.111072
    83  H    0.095494
    84  H    0.123720
    85  H    0.115414
    86  H    0.105885
    87  H    0.107106
    88  H    0.112666
    89  H    0.091108
    90  H    0.094469
    91  H    0.095154
    92  H    0.131271
    93  H    0.134221
    94  H    0.120729
    95  H    0.155369
    96  H    0.114545
    97  H    0.126821
    98  H    0.122716
    99  H    0.135034
   100  H    0.104978
   101  H    0.095958
   102  H    0.108607
   103  H    0.111165
   104  H    0.113965
   105  H    0.113683
   106  H    0.074349
   107  H    0.099358
   108  H    0.077863
   109  H    0.055542
   110  H    0.096269
   111  H    0.057502
   112  H    0.086548
   113  H    0.115446
   114  H    0.118243
   115  H    0.099487
   116  H    0.049541
   117  H    0.104379
   118  H    0.074038
   119  H    0.051951
   120  H    0.096684
   121  H    0.069151
   122  H    0.094969
   123  H    0.115136
   124  H    0.079903
   125  H    0.103106
   126  H    0.088674
   127  H    0.075917
   128  H    0.100168
   129  H    0.079612
   130  H    0.082690
   131  H    0.059086
   132  H    0.116337
   133  H    0.076281
   134  H    0.099268
   135  H    0.110970
   136  H    0.103070
   137  H    0.084890
 Sum of Mulliken charges =   0.00000

 Dipole moment (field-independent basis, Debye):
    X=              1.3878    Y=              6.1467    Z=              1.0073  Tot=              6.3815
 Quadrupole moment (field-independent basis, Debye-Ang):
   XX=           -343.7381   YY=           -388.4703   ZZ=           -401.2556
   XY=            -31.4253   XZ=              7.5812   YZ=             -3.8175

 Normal termination of Gaussian 09 at Sat Jun 29 09:29:59 2019.
