 Gaussian 09, Revision D.01,
 Gaussian 09:  ES64L-G09RevD.01 24-Apr-2013

 -------------------------------------
 # td=(NStates=1) CAM-B3LYP/6-31G(d,p)
 -------------------------------------

 --
 TD
 --
 Symbolic Z-matrix:
 Charge =  0 Multiplicity = 1

                         Standard orientation:
 ---------------------------------------------------------------------
 Center     Atomic      Atomic             Coordinates (Angstroms)
 Number     Number       Type             X           Y           Z
 ---------------------------------------------------------------------
      1         12           0       -7.189288    0.564207    0.150914
      2          6           0       -4.890895   -1.912052    0.475940
      3          6           0       -4.829870    2.843808    1.136526
      4          6           0       -9.519501    3.084881   -0.303990
      5          6           0       -9.516170   -1.872560   -0.894212
      6          7           0       -5.178931    0.462591    0.780535
      7          6           0       -4.419156   -0.684818    0.748042
      8          6           0       -2.980579   -0.298137    1.218050
      9          6           0       -3.059911    1.191093    1.669322
     10          6           0       -4.396382    1.537623    1.164082
     11          6           0       -2.748401    1.345788    3.139153
     12          6           0       -1.853646   -0.656383    0.041568
     13          6           0       -0.453284   -0.330091    0.500243
     14          6           0        0.581549   -0.582903   -0.610335
     15          8           0        0.266298   -1.069201   -1.694045
     16          8           0        1.824110   -0.258104   -0.134416
     17          7           0       -7.209603    2.629139    0.285776
     18          6           0       -6.150295    3.384531    0.786338
     19          6           0       -6.556401    4.732624    0.784166
     20          6           0       -7.813712    4.795071    0.449811
     21          6           0       -8.262039    3.403161    0.098375
     22          6           0       -5.714305    5.962262    1.326189
     23          6           0       -8.723558    5.993218    0.272070
     24          6           0       -8.420658    7.302048   -0.019610
     25          7           0       -9.151758    0.610640   -0.545872
     26          6           0       -9.974038    1.738927   -0.589402
     27          6           0      -11.214821    1.403749   -1.088992
     28          6           0      -11.212899   -0.098135   -1.282310
     29          6           0       -9.908356   -0.503508   -0.931329
     30          6           0      -12.342309    2.286914   -1.292349
     31          6           0      -12.457875   -0.872616   -1.739967
     32          6           0      -12.433569   -1.220599   -3.348163
     33          7           0       -7.255742   -1.430856   -0.179563
     34          6           0       -8.272647   -2.265107   -0.566645
     35          6           0       -7.875226   -3.706590   -0.438507
     36          6           0       -6.587054   -3.589961   -0.055651
     37          6           0       -6.232046   -2.172949    0.146508
     38          6           0       -8.592641   -4.988481   -0.733959
     39          6           0       -5.342588   -4.392251    0.167218
     40          8           0       -5.154723   -5.541689    0.087435
     41          6           0       -4.192394   -3.332646    0.512620
     42          6           0       -3.491051   -3.663310    1.823637
     43          8           0       -3.724067   -3.009604    2.856539
     44          8           0       -2.659192   -4.700317    1.711719
     45          6           0       -2.041073   -4.999953    3.031668
     46          6           0        2.930359   -0.544173   -1.130812
     47          6           0        4.144497   -0.297376   -0.513769
     48          6           0        5.150800    0.464242   -0.945117
     49          6           0        5.092202    1.159753   -2.263129
     50          6           0        6.418499    0.554070   -0.108400
     51          6           0        7.714218   -0.095165   -0.788971
     52          6           0        8.972753    0.067651    0.009850
     53          6           0       10.271153   -0.536752   -0.823432
     54          6           0       10.085353   -2.010767   -1.158660
     55          6           0       11.441492   -0.243721    0.177143
     56          6           0       12.801747   -0.522906   -0.565779
     57          6           0       13.989656   -0.041844    0.312291
     58          6           0       15.391593   -0.260341   -0.488741
     59          6           0       15.720815   -1.720335   -0.842516
     60          6           0       16.439745    0.370657    0.394231
     61          6           0       17.952392    0.465831   -0.264989
     62          6           0       18.884351    1.238582    0.590723
     63          6           0       20.400191    1.267387    0.091813
     64          6           0       20.485443    1.950125   -1.252910
     65          6           0       21.286924    1.939570    1.173871
     66          1           0       -4.276884    3.581673    1.578511
     67          1           0      -10.091822    4.044674   -0.391972
     68          1           0      -10.401762   -2.355257   -1.025144
     69          1           0       -2.741311   -1.069253    1.976557
     70          1           0       -2.338219    1.817518    1.309547
     71          1           0       -1.768095    1.095995    3.393792
     72          1           0       -2.813885    2.273314    3.581164
     73          1           0       -3.494506    0.739735    3.641305
     74          1           0       -2.057759   -1.529653   -0.447228
     75          1           0       -2.156521    0.037195   -0.817609
     76          1           0       -0.306151    0.654535    0.977938
     77          1           0       -0.271481   -0.958488    1.415455
     78          1           0       -5.021555    6.371585    0.552318
     79          1           0       -6.357203    6.785188    1.657219
     80          1           0       -5.418289    5.692089    2.165745
     81          1           0       -9.830957    5.857138    0.264729
     82          1           0       -9.193150    8.017571   -0.248485
     83          1           0       -7.485754    7.434114   -0.116193
     84          1           0      -12.115648    2.877639   -2.073162
     85          1           0      -13.270333    1.725364   -1.617848
     86          1           0      -12.554245    3.135207   -0.419443
     87          1           0      -12.535138   -1.709916   -1.128639
     88          1           0      -13.400253   -0.393280   -1.447991
     89          1           0      -13.152527   -1.978217   -3.787992
     90          1           0      -12.405439   -0.125757   -3.840484
     91          1           0      -11.463457   -1.509196   -3.683961
     92          1           0       -8.933347   -5.111074   -1.815287
     93          1           0       -7.945939   -5.961003   -0.326309
     94          1           0       -9.458675   -5.003371    0.011091
     95          1           0       -3.513301   -3.724604   -0.327224
     96          1           0       -1.171859   -4.211909    3.208593
     97          1           0       -2.885472   -5.097298    3.778526
     98          1           0       -1.574195   -5.993229    2.595502
     99          1           0        3.026269   -1.794235   -1.461151
    100          1           0        2.709627    0.037009   -1.989300
    101          1           0        4.236633   -0.598277    0.694830
    102          1           0        4.184598    1.023538   -2.588602
    103          1           0        5.365429    2.325282   -2.194050
    104          1           0        5.689609    0.696944   -3.186323
    105          1           0        6.514185    1.746577   -0.089146
    106          1           0        6.311932    0.013439    0.869273
    107          1           0        7.297867   -1.235443   -0.901894
    108          1           0        7.914037    0.333009   -1.829509
    109          1           0        9.031888    1.107397    0.215394
    110          1           0        8.942998   -0.477183    1.054506
    111          1           0       10.378977   -0.098493   -1.956893
    112          1           0        9.145812   -2.287409   -1.821090
    113          1           0       10.958460   -2.514757   -1.814113
    114          1           0        9.899791   -2.690368   -0.383246
    115          1           0       11.559342    0.934281    0.469210
    116          1           0       11.256748   -0.866596    0.999739
    117          1           0       12.890985   -1.684537   -0.749509
    118          1           0       12.807803    0.063704   -1.557033
    119          1           0       13.895418    1.020859    0.608121
    120          1           0       13.893474   -0.612011    1.249431
    121          1           0       15.319832    0.473858   -1.421924
    122          1           0       15.648564   -2.494744   -0.046144
    123          1           0       14.971834   -2.175425   -1.603344
    124          1           0       16.683465   -1.760720   -1.321314
    125          1           0       15.973203    1.351030    0.516944
    126          1           0       16.657689   -0.198068    1.312171
    127          1           0       18.469149   -0.522311   -0.361276
    128          1           0       17.914799    1.117742   -1.262605
    129          1           0       18.419531    2.326818    0.840714
    130          1           0       19.117984    0.831186    1.684775
    131          1           0       20.693201    0.301916   -0.226884
    132          1           0       20.097858    2.950638   -1.317794
    133          1           0       21.518311    1.832367   -1.574852
    134          1           0       19.995607    1.413536   -2.008306
    135          1           0       21.152556    1.329889    2.191271
    136          1           0       22.228634    1.960695    0.815774
    137          1           0       20.997004    2.967276    1.543356
 ---------------------------------------------------------------------

 SCF Done:  E(RCAM-B3LYP) =  -2932.66237494     A.U. after   15 cycles

 Excitation energies and oscillator strengths:

 Excited State   1:      Singlet-A      2.2557 eV  549.65 nm  f=0.1442  <S**2>=0.000
     240 -> 243       -0.29918
     241 -> 242        0.63037
 This state for optimization and/or second-order correction.
 Total Energy, E(TD-HF/TD-KS) =  -2932.57948038
 Copying the excited state density for this state as the 1-particle RhoCI density.

 The electronic state is 1-A.
 Alpha  occ. eigenvalues --  -46.83793 -19.27321 -19.27168 -19.21543 -19.21388
 Alpha  occ. eigenvalues --  -19.20627 -14.41024 -14.39885 -14.38941 -14.37493
 Alpha  occ. eigenvalues --  -10.39851 -10.39351 -10.35566 -10.33918 -10.33452
 Alpha  occ. eigenvalues --  -10.30757 -10.30621 -10.30355 -10.29605 -10.29295
 Alpha  occ. eigenvalues --  -10.29100 -10.28820 -10.28633 -10.28365 -10.27955
 Alpha  occ. eigenvalues --  -10.27881 -10.27777 -10.27661 -10.27487 -10.27465
 Alpha  occ. eigenvalues --  -10.27360 -10.27320 -10.27289 -10.27223 -10.27056
 Alpha  occ. eigenvalues --  -10.26750 -10.26698 -10.26655 -10.26619 -10.26616
 Alpha  occ. eigenvalues --  -10.26498 -10.26378 -10.26322 -10.26319 -10.26290
 Alpha  occ. eigenvalues --  -10.26286 -10.26225 -10.26191 -10.25995 -10.25932
 Alpha  occ. eigenvalues --  -10.25829 -10.25644 -10.25416 -10.25392 -10.25364
 Alpha  occ. eigenvalues --  -10.25212 -10.25003 -10.24994 -10.24913 -10.24895
 Alpha  occ. eigenvalues --  -10.24872 -10.24784 -10.24592 -10.24225 -10.22932
 Alpha  occ. eigenvalues --   -3.12779  -1.87498  -1.87022  -1.86939  -1.18108
 Alpha  occ. eigenvalues --   -1.16624  -1.14621  -1.08909  -1.08072  -1.05363
 Alpha  occ. eigenvalues --   -1.04054  -1.02713  -0.99773  -0.92027  -0.91712
 Alpha  occ. eigenvalues --   -0.89479  -0.89330  -0.88805  -0.88749  -0.88395
 Alpha  occ. eigenvalues --   -0.87682  -0.87543  -0.87482  -0.86011  -0.85661
 Alpha  occ. eigenvalues --   -0.84870  -0.83812  -0.83105  -0.82667  -0.81832
 Alpha  occ. eigenvalues --   -0.81292  -0.81056  -0.79791  -0.79624  -0.78459
 Alpha  occ. eigenvalues --   -0.78024  -0.76599  -0.76506  -0.76237  -0.75992
 Alpha  occ. eigenvalues --   -0.75203  -0.74349  -0.73945  -0.73014  -0.72291
 Alpha  occ. eigenvalues --   -0.71652  -0.70102  -0.69714  -0.68077  -0.67635
 Alpha  occ. eigenvalues --   -0.66843  -0.65821  -0.65319  -0.64997  -0.63632
 Alpha  occ. eigenvalues --   -0.63428  -0.62958  -0.62793  -0.62138  -0.61968
 Alpha  occ. eigenvalues --   -0.61344  -0.60552  -0.60039  -0.59762  -0.59040
 Alpha  occ. eigenvalues --   -0.58733  -0.57888  -0.57385  -0.56583  -0.56203
 Alpha  occ. eigenvalues --   -0.55890  -0.55466  -0.55282  -0.54641  -0.54439
 Alpha  occ. eigenvalues --   -0.54258  -0.53890  -0.53284  -0.53215  -0.52722
 Alpha  occ. eigenvalues --   -0.52368  -0.52080  -0.51824  -0.51761  -0.51621
 Alpha  occ. eigenvalues --   -0.51444  -0.50856  -0.50781  -0.50546  -0.50241
 Alpha  occ. eigenvalues --   -0.50034  -0.49825  -0.49698  -0.49527  -0.49046
 Alpha  occ. eigenvalues --   -0.48888  -0.48744  -0.48462  -0.48235  -0.48075
 Alpha  occ. eigenvalues --   -0.47821  -0.47677  -0.47487  -0.47294  -0.47095
 Alpha  occ. eigenvalues --   -0.46929  -0.46775  -0.46461  -0.46368  -0.46061
 Alpha  occ. eigenvalues --   -0.45404  -0.45364  -0.45186  -0.45073  -0.44984
 Alpha  occ. eigenvalues --   -0.44621  -0.44488  -0.44426  -0.44175  -0.44046
 Alpha  occ. eigenvalues --   -0.43715  -0.43666  -0.43499  -0.43338  -0.43196
 Alpha  occ. eigenvalues --   -0.42669  -0.42597  -0.42519  -0.42155  -0.41927
 Alpha  occ. eigenvalues --   -0.41822  -0.41703  -0.41473  -0.41259  -0.41138
 Alpha  occ. eigenvalues --   -0.40922  -0.40765  -0.40534  -0.40166  -0.39944
 Alpha  occ. eigenvalues --   -0.39863  -0.39681  -0.39046  -0.38769  -0.38758
 Alpha  occ. eigenvalues --   -0.38613  -0.38468  -0.38199  -0.37987  -0.37948
 Alpha  occ. eigenvalues --   -0.37783  -0.37408  -0.37385  -0.37063  -0.36808
 Alpha  occ. eigenvalues --   -0.36640  -0.36164  -0.36015  -0.35988  -0.35809
 Alpha  occ. eigenvalues --   -0.35475  -0.35249  -0.34024  -0.33860  -0.33389
 Alpha  occ. eigenvalues --   -0.32477  -0.32266  -0.31662  -0.31248  -0.30492
 Alpha  occ. eigenvalues --   -0.29995  -0.29204  -0.28064  -0.25131  -0.23121
 Alpha  occ. eigenvalues --   -0.21368
 Alpha virt. eigenvalues --   -0.05186  -0.03553   0.02499   0.04402   0.05287
 Alpha virt. eigenvalues --    0.05678   0.05769   0.06450   0.07438   0.07933
 Alpha virt. eigenvalues --    0.08747   0.10975   0.11255   0.11534   0.11847

 Mulliken charges:
               1
     1  Mg   0.811885
     2  C    0.068984
     3  C   -0.195884
     4  C   -0.136182
     5  C   -0.102776
     6  N   -0.681885
     7  C    0.320006
     8  C   -0.189664
     9  C   -0.130045
    10  C    0.366526
    11  C   -0.315313
    12  C   -0.176523
    13  C   -0.270920
    14  C    0.635462
    15  O   -0.475145
    16  O   -0.495246
    17  N   -0.727166
    18  C    0.274191
    19  C   -0.025814
    20  C    0.028193
    21  C    0.336608
    22  C   -0.350611
    23  C   -0.113472
    24  C   -0.210659
    25  N   -0.709820
    26  C    0.286150
    27  C    0.022425
    28  C   -0.034057
    29  C    0.259332
    30  C   -0.378010
    31  C   -0.238862
    32  C   -0.316689
    33  N   -0.711239
    34  C    0.244195
    35  C    0.055318
    36  C   -0.024952
    37  C    0.317038
    38  C   -0.384674
    39  C    0.367560
    40  O   -0.412821
    41  C   -0.322191
    42  C    0.640030
    43  O   -0.503772
    44  O   -0.451574
    45  C   -0.088745
    46  C    0.012429
    47  C   -0.115716
    48  C    0.126149
    49  C   -0.342851
    50  C   -0.214263
    51  C   -0.165102
    52  C   -0.161616
    53  C   -0.055611
    54  C   -0.313838
    55  C   -0.157152
    56  C   -0.174289
    57  C   -0.182772
    58  C   -0.049248
    59  C   -0.319630
    60  C   -0.154084
    61  C   -0.186195
    62  C   -0.148693
    63  C   -0.057093
    64  C   -0.317061
    65  C   -0.300221
    66  H    0.066789
    67  H    0.092279
    68  H    0.089603
    69  H    0.132669
    70  H    0.117375
    71  H    0.112706
    72  H    0.110879
    73  H    0.124736
    74  H    0.132836
    75  H    0.100244
    76  H    0.131415
    77  H    0.128384
    78  H    0.121406
    79  H    0.115051
    80  H    0.127162
    81  H    0.088039
    82  H    0.109268
    83  H    0.090007
    84  H    0.136712
    85  H    0.104199
    86  H    0.085670
    87  H    0.106572
    88  H    0.107509
    89  H    0.103476
    90  H    0.091911
    91  H    0.121116
    92  H    0.135707
    93  H    0.134539
    94  H    0.125653
    95  H    0.157889
    96  H    0.128673
    97  H    0.159147
    98  H    0.129050
    99  H    0.103720
   100  H    0.142269
   101  H    0.084281
   102  H    0.112260
   103  H    0.102291
   104  H    0.104899
   105  H    0.073534
   106  H    0.096887
   107  H    0.074514
   108  H    0.093262
   109  H    0.107099
   110  H    0.076507
   111  H    0.071023
   112  H    0.092265
   113  H    0.087391
   114  H    0.109630
   115  H    0.073001
   116  H    0.105183
   117  H    0.087017
   118  H    0.084502
   119  H    0.085289
   120  H    0.091547
   121  H    0.071203
   122  H    0.103360
   123  H    0.087236
   124  H    0.112616
   125  H    0.089855
   126  H    0.095443
   127  H    0.093952
   128  H    0.080441
   129  H    0.063340
   130  H    0.059748
   131  H    0.093197
   132  H    0.102046
   133  H    0.089326
   134  H    0.105902
   135  H    0.080382
   136  H    0.109035
   137  H    0.103539
 Sum of Mulliken charges =   0.00000

 Dipole moment (field-independent basis, Debye):
    X=              3.5095    Y=              2.2952    Z=              1.2941  Tot=              4.3886
 Quadrupole moment (field-independent basis, Debye-Ang):
   XX=           -373.3925   YY=           -383.7265   ZZ=           -396.6868
   XY=            -12.2438   XZ=             -0.7202   YZ=             -3.1539

 Normal termination of Gaussian 09 at Mon Jul  1 09:11:48 2019.
