 Gaussian 09, Revision D.01,
 Gaussian 09:  ES64L-G09RevD.01 24-Apr-2013

 -------------------------------------
 # td=(NStates=1) CAM-B3LYP/6-31G(d,p)
 -------------------------------------

 --
 TD
 --
 Symbolic Z-matrix:
 Charge =  0 Multiplicity = 1

                         Standard orientation:
 ---------------------------------------------------------------------
 Center     Atomic      Atomic             Coordinates (Angstroms)
 Number     Number       Type             X           Y           Z
 ---------------------------------------------------------------------
      1         12           0       -7.220694    0.604643   -0.008456
      2          6           0       -4.791984   -1.903206    0.514223
      3          6           0       -4.948758    2.752182    1.153224
      4          6           0       -9.548816    2.986785   -0.219766
      5          6           0       -9.520282   -1.733604   -0.920201
      6          7           0       -5.078642    0.430846    0.610832
      7          6           0       -4.388271   -0.668176    0.803654
      8          6           0       -2.883979   -0.324168    1.167880
      9          6           0       -2.963467    1.113273    1.663616
     10          6           0       -4.468825    1.489109    1.137284
     11          6           0       -2.907835    1.417085    3.179207
     12          6           0       -1.827640   -0.650495    0.105871
     13          6           0       -0.411343   -0.496642    0.673564
     14          6           0        0.580548   -0.744460   -0.500468
     15          8           0        0.363037   -1.076785   -1.668310
     16          8           0        1.865503   -0.448944   -0.109871
     17          7           0       -7.146304    2.573165    0.270096
     18          6           0       -6.143251    3.311814    0.791287
     19          6           0       -6.463878    4.778474    0.806702
     20          6           0       -7.759268    4.805762    0.337920
     21          6           0       -8.260915    3.415704    0.157888
     22          6           0       -5.593558    5.804224    1.405071
     23          6           0       -8.665116    5.967987    0.342623
     24          6           0       -8.304396    7.168843    0.005682
     25          7           0       -9.131468    0.628318   -0.613987
     26          6           0       -9.972205    1.732717   -0.672939
     27          6           0      -11.276018    1.392339   -1.091317
     28          6           0      -11.332088    0.045972   -1.232200
     29          6           0       -9.898179   -0.470374   -0.910455
     30          6           0      -12.408036    2.386093   -1.340421
     31          6           0      -12.457471   -0.812683   -1.737855
     32          6           0      -12.407727   -1.086212   -3.170902
     33          7           0       -7.243674   -1.355328   -0.243460
     34          6           0       -8.250578   -2.270507   -0.615956
     35          6           0       -7.767822   -3.533551   -0.535215
     36          6           0       -6.454690   -3.483862   -0.050141
     37          6           0       -6.169656   -2.148733    0.105446
     38          6           0       -8.460699   -4.821018   -0.849896
     39          6           0       -5.234426   -4.356912    0.133857
     40          8           0       -5.066607   -5.530326    0.083073
     41          6           0       -4.144407   -3.273085    0.521896
     42          6           0       -3.575660   -3.632944    1.907825
     43          8           0       -3.755342   -2.954141    3.011620
     44          8           0       -2.717551   -4.673874    1.838770
     45          6           0       -2.213823   -5.224794    3.019489
     46          6           0        2.827431   -0.564327   -1.096425
     47          6           0        4.236563   -0.408020   -0.520131
     48          6           0        5.136899    0.413061   -0.916272
     49          6           0        5.280977    1.099736   -2.187155
     50          6           0        6.378723    0.443448   -0.058878
     51          6           0        7.637308    0.094005   -1.018264
     52          6           0        8.960324    0.014372   -0.112893
     53          6           0       10.359778   -0.495914   -0.841933
     54          6           0       10.123448   -1.965230   -1.299671
     55          6           0       11.424570   -0.184262    0.014789
     56          6           0       12.780649   -0.595434   -0.664096
     57          6           0       13.994713   -0.098015    0.230979
     58          6           0       15.311489   -0.217284   -0.469406
     59          6           0       15.698489   -1.702657   -0.864113
     60          6           0       16.381162    0.366306    0.470138
     61          6           0       17.759521    0.467148   -0.222093
     62          6           0       18.759122    1.271406    0.764567
     63          6           0       20.242481    1.430384    0.095515
     64          6           0       20.317649    2.029110   -1.218883
     65          6           0       21.148558    1.945106    1.260910
     66          1           0       -4.230732    3.607395    1.563293
     67          1           0      -10.276061    3.903086   -0.332195
     68          1           0      -10.202661   -2.554407   -1.042804
     69          1           0       -2.921272   -0.940782    1.976787
     70          1           0       -2.079933    1.603497    0.975958
     71          1           0       -2.018344    1.034094    3.575870
     72          1           0       -3.003363    2.596747    3.464570
     73          1           0       -3.729281    1.028665    3.618735
     74          1           0       -2.013790   -1.781192   -0.168780
     75          1           0       -2.084603   -0.242034   -0.841317
     76          1           0       -0.187134    0.384396    1.246207
     77          1           0       -0.188231   -1.305713    1.407650
     78          1           0       -4.975919    6.311615    0.646105
     79          1           0       -6.101741    6.643310    2.029531
     80          1           0       -4.770613    5.405687    2.068954
     81          1           0       -9.651131    6.018219    0.835480
     82          1           0       -8.895933    8.079954    0.128851
     83          1           0       -7.161588    7.195470   -0.362807
     84          1           0      -12.321131    2.947443   -2.400685
     85          1           0      -13.351283    1.991187   -1.190528
     86          1           0      -12.415935    3.081287   -0.446830
     87          1           0      -12.768914   -1.673748   -1.265174
     88          1           0      -13.428641   -0.322401   -1.891435
     89          1           0      -13.179114   -1.777909   -3.366146
     90          1           0      -12.313633   -0.294566   -3.841273
     91          1           0      -11.585255   -1.808428   -3.559678
     92          1           0       -8.494972   -5.048686   -2.009562
     93          1           0       -7.921334   -5.794896   -0.651185
     94          1           0       -9.642581   -4.930594   -0.408843
     95          1           0       -3.286963   -3.483146   -0.257851
     96          1           0       -1.533010   -4.569567    3.535482
     97          1           0       -2.908655   -5.383025    3.820183
     98          1           0       -1.953238   -6.149316    2.700842
     99          1           0        2.700622   -1.540833   -1.550433
    100          1           0        2.552882    0.186892   -1.922480
    101          1           0        4.415781   -0.996433    0.309265
    102          1           0        4.297244    1.497526   -2.504703
    103          1           0        5.947021    2.147597   -2.279695
    104          1           0        5.700325    0.391513   -2.993481
    105          1           0        6.671969    1.487969    0.151865
    106          1           0        6.589233   -0.067938    0.773814
    107          1           0        7.397015   -0.860970   -1.339624
    108          1           0        8.079546    0.833660   -1.943732
    109          1           0        9.201008    1.188826    0.266508
    110          1           0        8.697363   -0.685394    0.659005
    111          1           0       10.383616   -0.060288   -1.924754
    112          1           0        9.128647   -1.880151   -1.869216
    113          1           0       10.777564   -2.416187   -1.868851
    114          1           0        9.815896   -2.844750   -0.487633
    115          1           0       11.344685    0.878129    0.184888
    116          1           0       11.261174   -0.722096    0.904282
    117          1           0       12.829222   -1.617065   -0.720104
    118          1           0       12.883256   -0.340403   -1.721567
    119          1           0       13.860360    1.067374    0.426556
    120          1           0       13.934841   -0.529337    1.215921
    121          1           0       15.280862    0.485033   -1.295815
    122          1           0       15.609462   -2.437520   -0.102102
    123          1           0       15.022774   -2.124689   -1.653339
    124          1           0       16.532862   -1.687494   -1.474154
    125          1           0       16.031738    1.335257    0.917280
    126          1           0       16.409460   -0.336556    1.432066
    127          1           0       18.109490   -0.634734   -0.379575
    128          1           0       17.702608    0.912761   -1.296539
    129          1           0       18.389601    2.246832    0.917193
    130          1           0       18.778709    0.628364    1.712188
    131          1           0       20.473261    0.506792   -0.127560
    132          1           0       19.830427    2.964416   -1.067354
    133          1           0       21.459524    2.281826   -1.609735
    134          1           0       19.833440    1.423034   -1.993263
    135          1           0       21.116069    1.337053    2.210048
    136          1           0       22.316648    2.008177    0.948406
    137          1           0       20.775400    2.824729    1.634883
 ---------------------------------------------------------------------

 SCF Done:  E(RCAM-B3LYP) =  -2932.65730739     A.U. after   17 cycles

 Excitation energies and oscillator strengths:

 Excited State   1:      Singlet-A      2.1598 eV  574.06 nm  f=0.2681  <S**2>=0.000
     240 -> 242       -0.15599
     240 -> 243        0.21341
     241 -> 242        0.64741
 This state for optimization and/or second-order correction.
 Total Energy, E(TD-HF/TD-KS) =  -2932.57793747
 Copying the excited state density for this state as the 1-particle RhoCI density.

 The electronic state is 1-A.
 Alpha  occ. eigenvalues --  -46.83440 -19.27045 -19.25605 -19.21365 -19.20928
 Alpha  occ. eigenvalues --  -19.20450 -14.41214 -14.39785 -14.39739 -14.38196
 Alpha  occ. eigenvalues --  -10.40187 -10.39771 -10.35444 -10.30968 -10.30835
 Alpha  occ. eigenvalues --  -10.30809 -10.30621 -10.30010 -10.29740 -10.29592
 Alpha  occ. eigenvalues --  -10.29008 -10.28924 -10.28813 -10.28731 -10.28687
 Alpha  occ. eigenvalues --  -10.28487 -10.27940 -10.27771 -10.27707 -10.27631
 Alpha  occ. eigenvalues --  -10.27393 -10.27292 -10.27273 -10.27130 -10.27125
 Alpha  occ. eigenvalues --  -10.26950 -10.26737 -10.26717 -10.26578 -10.26526
 Alpha  occ. eigenvalues --  -10.26483 -10.26453 -10.26420 -10.26412 -10.26252
 Alpha  occ. eigenvalues --  -10.26203 -10.25852 -10.25815 -10.25770 -10.25689
 Alpha  occ. eigenvalues --  -10.25516 -10.25439 -10.25250 -10.25102 -10.25045
 Alpha  occ. eigenvalues --  -10.24873 -10.24823 -10.24731 -10.24381 -10.24299
 Alpha  occ. eigenvalues --  -10.24181 -10.24179 -10.24009 -10.23720 -10.23543
 Alpha  occ. eigenvalues --   -3.12712  -1.87396  -1.86969  -1.86895  -1.18111
 Alpha  occ. eigenvalues --   -1.17830  -1.12862  -1.08603  -1.05400  -1.05065
 Alpha  occ. eigenvalues --   -1.03669  -1.03036  -1.01904  -0.92111  -0.91745
 Alpha  occ. eigenvalues --   -0.90498  -0.90120  -0.89843  -0.89773  -0.89130
 Alpha  occ. eigenvalues --   -0.88812  -0.88014  -0.87875  -0.86114  -0.85544
 Alpha  occ. eigenvalues --   -0.85026  -0.84556  -0.83953  -0.83732  -0.82220
 Alpha  occ. eigenvalues --   -0.81955  -0.81175  -0.80206  -0.79079  -0.78165
 Alpha  occ. eigenvalues --   -0.77747  -0.77385  -0.76559  -0.76167  -0.76018
 Alpha  occ. eigenvalues --   -0.75590  -0.74964  -0.74410  -0.72923  -0.72320
 Alpha  occ. eigenvalues --   -0.71600  -0.70443  -0.69755  -0.69412  -0.67555
 Alpha  occ. eigenvalues --   -0.66598  -0.65473  -0.65180  -0.64977  -0.64316
 Alpha  occ. eigenvalues --   -0.63915  -0.63351  -0.63107  -0.62852  -0.62260
 Alpha  occ. eigenvalues --   -0.61949  -0.61716  -0.60598  -0.59821  -0.59078
 Alpha  occ. eigenvalues --   -0.58606  -0.58467  -0.57623  -0.57224  -0.56820
 Alpha  occ. eigenvalues --   -0.56530  -0.55933  -0.55008  -0.54970  -0.54855
 Alpha  occ. eigenvalues --   -0.54227  -0.54002  -0.53622  -0.53366  -0.53116
 Alpha  occ. eigenvalues --   -0.52904  -0.52541  -0.52353  -0.52181  -0.52014
 Alpha  occ. eigenvalues --   -0.51570  -0.51171  -0.50919  -0.50700  -0.50399
 Alpha  occ. eigenvalues --   -0.50196  -0.50021  -0.49816  -0.49681  -0.49515
 Alpha  occ. eigenvalues --   -0.49230  -0.49014  -0.48757  -0.48508  -0.48318
 Alpha  occ. eigenvalues --   -0.48047  -0.47886  -0.47406  -0.47302  -0.47172
 Alpha  occ. eigenvalues --   -0.46754  -0.46662  -0.46257  -0.46168  -0.46077
 Alpha  occ. eigenvalues --   -0.45970  -0.45387  -0.45246  -0.44943  -0.44880
 Alpha  occ. eigenvalues --   -0.44734  -0.44541  -0.44387  -0.44285  -0.44048
 Alpha  occ. eigenvalues --   -0.43806  -0.43569  -0.43532  -0.43094  -0.42903
 Alpha  occ. eigenvalues --   -0.42685  -0.42482  -0.42104  -0.41883  -0.41771
 Alpha  occ. eigenvalues --   -0.41640  -0.41500  -0.41413  -0.41250  -0.41048
 Alpha  occ. eigenvalues --   -0.40860  -0.40810  -0.40673  -0.40630  -0.40335
 Alpha  occ. eigenvalues --   -0.39915  -0.39570  -0.39433  -0.39254  -0.38902
 Alpha  occ. eigenvalues --   -0.38198  -0.38142  -0.37636  -0.37545  -0.37228
 Alpha  occ. eigenvalues --   -0.37109  -0.37056  -0.36916  -0.36782  -0.36463
 Alpha  occ. eigenvalues --   -0.36430  -0.36084  -0.35986  -0.35753  -0.35297
 Alpha  occ. eigenvalues --   -0.35019  -0.34888  -0.34428  -0.33980  -0.33080
 Alpha  occ. eigenvalues --   -0.32757  -0.32417  -0.31910  -0.31487  -0.29957
 Alpha  occ. eigenvalues --   -0.29665  -0.29468  -0.28810  -0.28091  -0.23226
 Alpha  occ. eigenvalues --   -0.21736
 Alpha virt. eigenvalues --   -0.06806  -0.02194   0.02240   0.04109   0.05528
 Alpha virt. eigenvalues --    0.05779   0.06311   0.06699   0.07335   0.07442
 Alpha virt. eigenvalues --    0.08770   0.10664   0.10943   0.11039   0.11450

 Mulliken charges:
               1
     1  Mg   0.820521
     2  C    0.095360
     3  C   -0.234920
     4  C   -0.218813
     5  C   -0.162224
     6  N   -0.601461
     7  C    0.255338
     8  C   -0.133042
     9  C   -0.136770
    10  C    0.336098
    11  C   -0.296588
    12  C   -0.179122
    13  C   -0.266161
    14  C    0.607581
    15  O   -0.478442
    16  O   -0.472780
    17  N   -0.716445
    18  C    0.339355
    19  C    0.095017
    20  C   -0.048453
    21  C    0.313450
    22  C   -0.397102
    23  C   -0.064314
    24  C   -0.243357
    25  N   -0.709885
    26  C    0.328413
    27  C    0.020427
    28  C    0.039775
    29  C    0.315933
    30  C   -0.358327
    31  C   -0.253712
    32  C   -0.310208
    33  N   -0.752083
    34  C    0.269786
    35  C    0.038192
    36  C   -0.026051
    37  C    0.279364
    38  C   -0.389878
    39  C    0.389880
    40  O   -0.432082
    41  C   -0.350294
    42  C    0.624075
    43  O   -0.517485
    44  O   -0.429019
    45  C   -0.081215
    46  C    0.017823
    47  C   -0.132433
    48  C    0.158759
    49  C   -0.363367
    50  C   -0.222555
    51  C   -0.198126
    52  C   -0.188370
    53  C   -0.059772
    54  C   -0.306193
    55  C   -0.139362
    56  C   -0.202477
    57  C   -0.169619
    58  C   -0.052610
    59  C   -0.325994
    60  C   -0.161108
    61  C   -0.190810
    62  C   -0.188731
    63  C   -0.042700
    64  C   -0.301888
    65  C   -0.310842
    66  H    0.069246
    67  H    0.093313
    68  H    0.094128
    69  H    0.136067
    70  H    0.081225
    71  H    0.117080
    72  H    0.084419
    73  H    0.137902
    74  H    0.101365
    75  H    0.136397
    76  H    0.147495
    77  H    0.148319
    78  H    0.133656
    79  H    0.127707
    80  H    0.121007
    81  H    0.102365
    82  H    0.109745
    83  H    0.083162
    84  H    0.114372
    85  H    0.127620
    86  H    0.110919
    87  H    0.118758
    88  H    0.116003
    89  H    0.107244
    90  H    0.121106
    91  H    0.078190
    92  H    0.106185
    93  H    0.143862
    94  H    0.084061
    95  H    0.164812
    96  H    0.124389
    97  H    0.129807
    98  H    0.132691
    99  H    0.118403
   100  H    0.099443
   101  H    0.090306
   102  H    0.112699
   103  H    0.091013
   104  H    0.132366
   105  H    0.104294
   106  H    0.106803
   107  H    0.113214
   108  H    0.072763
   109  H    0.055123
   110  H    0.096613
   111  H    0.073085
   112  H    0.092861
   113  H    0.115240
   114  H    0.055948
   115  H    0.095251
   116  H    0.100511
   117  H    0.109734
   118  H    0.088257
   119  H    0.064804
   120  H    0.091868
   121  H    0.090223
   122  H    0.113649
   123  H    0.086276
   124  H    0.114193
   125  H    0.083803
   126  H    0.066761
   127  H    0.090202
   128  H    0.081277
   129  H    0.099978
   130  H    0.094771
   131  H    0.100178
   132  H    0.100168
   133  H    0.077202
   134  H    0.107931
   135  H    0.095702
   136  H    0.074031
   137  H    0.110480
 Sum of Mulliken charges =   0.00000

 Dipole moment (field-independent basis, Debye):
    X=             -0.5245    Y=              4.6033    Z=              0.8828  Tot=              4.7164
 Quadrupole moment (field-independent basis, Debye-Ang):
   XX=           -343.1393   YY=           -384.7858   ZZ=           -396.3582
   XY=            -36.4167   XZ=              4.0197   YZ=              0.9773

 Normal termination of Gaussian 09 at Fri Jun 28 05:42:16 2019.
