 Gaussian 09, Revision D.01,
 Gaussian 09:  ES64L-G09RevD.01 24-Apr-2013

 -------------------------------------
 # td=(NStates=1) CAM-B3LYP/6-31G(d,p)
 -------------------------------------

 --
 TD
 --
 Symbolic Z-matrix:
 Charge =  0 Multiplicity = 1

                         Standard orientation:
 ---------------------------------------------------------------------
 Center     Atomic      Atomic             Coordinates (Angstroms)
 Number     Number       Type             X           Y           Z
 ---------------------------------------------------------------------
      1         12           0       -7.139219    0.567488    0.054505
      2          6           0       -4.988626   -2.070913    0.460164
      3          6           0       -4.917585    2.748148    1.164941
      4          6           0       -9.518421    3.125917   -0.336114
      5          6           0       -9.584620   -1.673931   -0.982797
      6          7           0       -5.186563    0.352018    0.613914
      7          6           0       -4.458219   -0.785092    0.774192
      8          6           0       -2.955026   -0.359186    1.136054
      9          6           0       -3.036324    1.168083    1.578831
     10          6           0       -4.447873    1.442150    1.048661
     11          6           0       -2.930050    1.363467    3.052727
     12          6           0       -1.921760   -0.729504    0.054870
     13          6           0       -0.452127   -0.462328    0.543096
     14          6           0        0.627035   -0.608806   -0.605237
     15          8           0        0.377708   -0.899284   -1.747005
     16          8           0        1.830447   -0.419207   -0.148852
     17          7           0       -7.202041    2.697381    0.277467
     18          6           0       -6.123100    3.346352    0.838392
     19          6           0       -6.449205    4.847045    0.893144
     20          6           0       -7.767991    4.785739    0.435375
     21          6           0       -8.207867    3.461935    0.171520
     22          6           0       -5.504314    5.786395    1.375404
     23          6           0       -8.690737    5.962053    0.238521
     24          6           0       -8.288639    7.254869    0.103288
     25          7           0       -9.114988    0.712966   -0.492825
     26          6           0       -9.937187    1.817247   -0.516573
     27          6           0      -11.304308    1.457418   -1.056822
     28          6           0      -11.252678    0.034137   -1.082484
     29          6           0       -9.952049   -0.367443   -0.978664
     30          6           0      -12.377991    2.504248   -1.485043
     31          6           0      -12.446856   -0.854275   -1.573721
     32          6           0      -12.350279   -1.108475   -3.087361
     33          7           0       -7.324813   -1.414440   -0.184768
     34          6           0       -8.234091   -2.196339   -0.607283
     35          6           0       -7.871051   -3.624678   -0.597713
     36          6           0       -6.542763   -3.529142   -0.170034
     37          6           0       -6.242812   -2.216561    0.060620
     38          6           0       -8.729649   -4.847610   -0.753549
     39          6           0       -5.404902   -4.356878    0.128821
     40          8           0       -5.215135   -5.606048    0.118940
     41          6           0       -4.180672   -3.307404    0.433301
     42          6           0       -3.602017   -3.649345    1.857355
     43          8           0       -3.946509   -3.125412    2.855602
     44          8           0       -2.791662   -4.700331    1.696611
     45          6           0       -2.261721   -5.250760    2.863466
     46          6           0        2.906128   -0.647941   -1.102957
     47          6           0        4.176572   -0.413202   -0.420106
     48          6           0        5.205936    0.441502   -0.826025
     49          6           0        5.102769    1.199784   -2.236839
     50          6           0        6.476379    0.507802   -0.141414
     51          6           0        7.640675   -0.083332   -0.768415
     52          6           0        9.027556   -0.075880    0.048897
     53          6           0       10.317489   -0.525937   -0.744794
     54          6           0       10.243898   -2.006301   -1.090637
     55          6           0       11.536297   -0.205604    0.111908
     56          6           0       12.830975   -0.554634   -0.656754
     57          6           0       14.085486   -0.091475    0.127590
     58          6           0       15.467557   -0.214864   -0.544765
     59          6           0       15.752465   -1.657197   -1.040839
     60          6           0       16.480398    0.370705    0.340394
     61          6           0       17.826038    0.572027   -0.349543
     62          6           0       18.807699    1.292921    0.729539
     63          6           0       20.244975    1.233262    0.236570
     64          6           0       20.423348    2.080650   -1.090192
     65          6           0       21.196983    1.776630    1.278711
     66          1           0       -4.125168    3.368375    1.727070
     67          1           0      -10.296998    3.938984   -0.509877
     68          1           0      -10.364946   -2.444263   -1.229006
     69          1           0       -2.617755   -0.829093    2.164624
     70          1           0       -2.330826    1.813754    1.145810
     71          1           0       -1.843607    1.085722    3.441687
     72          1           0       -2.892997    2.499930    3.226932
     73          1           0       -3.690252    0.720090    3.794359
     74          1           0       -2.010105   -1.860914   -0.162188
     75          1           0       -2.010841   -0.280208   -1.020602
     76          1           0       -0.175036    0.473181    0.874914
     77          1           0       -0.143495   -1.114498    1.349607
     78          1           0       -4.856525    6.267500    0.689340
     79          1           0       -5.984903    6.652916    1.892525
     80          1           0       -4.956058    5.340875    2.174154
     81          1           0       -9.624210    5.731053    0.634895
     82          1           0       -9.012082    8.280438    0.100166
     83          1           0       -7.161929    7.447756    0.128294
     84          1           0      -11.972465    3.301150   -2.350176
     85          1           0      -13.422806    2.069571   -1.746657
     86          1           0      -12.299016    3.140157   -0.679816
     87          1           0      -12.226580   -1.686071   -1.078245
     88          1           0      -13.453016   -0.468031   -1.291376
     89          1           0      -12.917068   -1.999386   -3.180126
     90          1           0      -12.481293   -0.166657   -3.698291
     91          1           0      -11.321109   -1.278879   -3.520141
     92          1           0       -8.816920   -4.723936   -1.851751
     93          1           0       -8.281070   -5.737589   -0.366328
     94          1           0       -9.691186   -4.817979   -0.377847
     95          1           0       -3.267865   -3.393667   -0.251965
     96          1           0       -2.085801   -4.407097    3.754362
     97          1           0       -3.153952   -5.877261    3.268913
     98          1           0       -1.346211   -5.942347    2.587229
     99          1           0        2.891027   -1.634503   -1.437070
    100          1           0        2.599814    0.066774   -1.945828
    101          1           0        4.309461   -0.841124    0.642786
    102          1           0        4.135027    1.044128   -2.853810
    103          1           0        5.490537    2.214763   -2.078296
    104          1           0        5.851287    0.669904   -2.926280
    105          1           0        6.708634    1.543333    0.296348
    106          1           0        6.358925   -0.122980    0.684226
    107          1           0        7.271074   -1.230462   -1.024312
    108          1           0        7.771563    0.499611   -1.568401
    109          1           0        9.305155    0.947989    0.401476
    110          1           0        8.974924   -0.570057    1.078381
    111          1           0       10.457743    0.115766   -1.720807
    112          1           0        9.273879   -2.114541   -1.482787
    113          1           0       11.083121   -2.208339   -1.715440
    114          1           0       10.398421   -2.580632   -0.105004
    115          1           0       11.527832    0.951592    0.324566
    116          1           0       11.441221   -0.810750    0.920124
    117          1           0       12.876821   -1.704891   -0.880620
    118          1           0       12.777792    0.081987   -1.676203
    119          1           0       14.131629    0.881502    0.494306
    120          1           0       14.109099   -0.843058    1.133768
    121          1           0       15.201125    0.228501   -1.589395
    122          1           0       15.855524   -2.240380   -0.206483
    123          1           0       15.034399   -2.205490   -1.632556
    124          1           0       16.752555   -1.429605   -1.671405
    125          1           0       16.147756    1.351224    0.868737
    126          1           0       16.518310   -0.425891    1.128974
    127          1           0       18.272965   -0.466611   -0.445702
    128          1           0       17.785259    1.391551   -1.214708
    129          1           0       18.466265    2.400537    0.725350
    130          1           0       18.910974    0.781203    1.705418
    131          1           0       20.682347    0.279626   -0.197194
    132          1           0       20.340727    3.230492   -0.945285
    133          1           0       21.454892    2.139239   -1.213092
    134          1           0       19.976272    1.726097   -1.997117
    135          1           0       21.244844    1.150730    2.117356
    136          1           0       22.274344    1.860184    0.991854
    137          1           0       20.942309    2.893192    1.582640
 ---------------------------------------------------------------------

 SCF Done:  E(RCAM-B3LYP) =  -2932.65210986     A.U. after   16 cycles

 Excitation energies and oscillator strengths:

 Excited State   1:      Singlet-A      1.8951 eV  654.23 nm  f=0.2890  <S**2>=0.000
     240 -> 243       -0.22683
     241 -> 242        0.66881
 This state for optimization and/or second-order correction.
 Total Energy, E(TD-HF/TD-KS) =  -2932.58246574
 Copying the excited state density for this state as the 1-particle RhoCI density.

 The electronic state is 1-A.
 Alpha  occ. eigenvalues --  -46.84464 -19.26660 -19.26525 -19.21418 -19.20130
 Alpha  occ. eigenvalues --  -19.20036 -14.42941 -14.39396 -14.38958 -14.38619
 Alpha  occ. eigenvalues --  -10.39084 -10.38638 -10.35192 -10.33380 -10.32131
 Alpha  occ. eigenvalues --  -10.30938 -10.30817 -10.29632 -10.29396 -10.29078
 Alpha  occ. eigenvalues --  -10.29021 -10.28767 -10.28653 -10.28577 -10.28473
 Alpha  occ. eigenvalues --  -10.28323 -10.28118 -10.28057 -10.27932 -10.27763
 Alpha  occ. eigenvalues --  -10.27733 -10.27585 -10.27472 -10.27373 -10.27232
 Alpha  occ. eigenvalues --  -10.27198 -10.27100 -10.27087 -10.27065 -10.26915
 Alpha  occ. eigenvalues --  -10.26756 -10.26748 -10.26710 -10.26700 -10.26467
 Alpha  occ. eigenvalues --  -10.26379 -10.26271 -10.26264 -10.26193 -10.25890
 Alpha  occ. eigenvalues --  -10.25877 -10.25783 -10.25734 -10.25566 -10.25544
 Alpha  occ. eigenvalues --  -10.25433 -10.25321 -10.25306 -10.25266 -10.24945
 Alpha  occ. eigenvalues --  -10.24802 -10.24679 -10.24374 -10.24151 -10.23726
 Alpha  occ. eigenvalues --   -3.13522  -1.88229  -1.87740  -1.87720  -1.19802
 Alpha  occ. eigenvalues --   -1.19782  -1.11603  -1.09276  -1.08075  -1.06442
 Alpha  occ. eigenvalues --   -1.05152  -1.03319  -1.00744  -0.94055  -0.92075
 Alpha  occ. eigenvalues --   -0.90834  -0.89786  -0.89595  -0.89047  -0.88367
 Alpha  occ. eigenvalues --   -0.88274  -0.88095  -0.87135  -0.86991  -0.86127
 Alpha  occ. eigenvalues --   -0.85079  -0.83537  -0.83079  -0.82968  -0.82241
 Alpha  occ. eigenvalues --   -0.81288  -0.80744  -0.80322  -0.79768  -0.78101
 Alpha  occ. eigenvalues --   -0.77529  -0.77055  -0.76201  -0.75857  -0.75633
 Alpha  occ. eigenvalues --   -0.75590  -0.74959  -0.74597  -0.73218  -0.72529
 Alpha  occ. eigenvalues --   -0.70876  -0.70155  -0.69707  -0.68784  -0.68348
 Alpha  occ. eigenvalues --   -0.66634  -0.66050  -0.64585  -0.64169  -0.63852
 Alpha  occ. eigenvalues --   -0.63458  -0.63385  -0.62285  -0.61959  -0.61780
 Alpha  occ. eigenvalues --   -0.61204  -0.60464  -0.60210  -0.59670  -0.59133
 Alpha  occ. eigenvalues --   -0.58162  -0.57756  -0.57633  -0.57573  -0.56784
 Alpha  occ. eigenvalues --   -0.56265  -0.55601  -0.55299  -0.55082  -0.54799
 Alpha  occ. eigenvalues --   -0.54441  -0.54186  -0.54082  -0.53796  -0.53274
 Alpha  occ. eigenvalues --   -0.52571  -0.52516  -0.52500  -0.52097  -0.51607
 Alpha  occ. eigenvalues --   -0.51324  -0.51189  -0.51101  -0.50943  -0.50709
 Alpha  occ. eigenvalues --   -0.50212  -0.50167  -0.50131  -0.49569  -0.49233
 Alpha  occ. eigenvalues --   -0.48923  -0.48664  -0.48513  -0.48423  -0.48185
 Alpha  occ. eigenvalues --   -0.48058  -0.47831  -0.47674  -0.47549  -0.47426
 Alpha  occ. eigenvalues --   -0.47248  -0.47113  -0.46669  -0.46338  -0.46162
 Alpha  occ. eigenvalues --   -0.45760  -0.45474  -0.45398  -0.45258  -0.44876
 Alpha  occ. eigenvalues --   -0.44669  -0.44516  -0.44434  -0.44233  -0.44168
 Alpha  occ. eigenvalues --   -0.44026  -0.43880  -0.43599  -0.43428  -0.43336
 Alpha  occ. eigenvalues --   -0.43184  -0.42950  -0.42592  -0.42428  -0.42279
 Alpha  occ. eigenvalues --   -0.42230  -0.42074  -0.41994  -0.41707  -0.41486
 Alpha  occ. eigenvalues --   -0.41223  -0.41054  -0.40989  -0.40515  -0.40401
 Alpha  occ. eigenvalues --   -0.40094  -0.39971  -0.39570  -0.39024  -0.38834
 Alpha  occ. eigenvalues --   -0.38393  -0.38341  -0.37866  -0.37829  -0.37368
 Alpha  occ. eigenvalues --   -0.37297  -0.37204  -0.36818  -0.36691  -0.36510
 Alpha  occ. eigenvalues --   -0.36320  -0.36190  -0.36110  -0.35779  -0.35521
 Alpha  occ. eigenvalues --   -0.35385  -0.34369  -0.34142  -0.34000  -0.33214
 Alpha  occ. eigenvalues --   -0.32943  -0.32778  -0.32280  -0.31589  -0.29639
 Alpha  occ. eigenvalues --   -0.29470  -0.29071  -0.27146  -0.26810  -0.22616
 Alpha  occ. eigenvalues --   -0.20270
 Alpha virt. eigenvalues --   -0.06492  -0.02576   0.01021   0.03845   0.04904
 Alpha virt. eigenvalues --    0.05970   0.06470   0.06660   0.07532   0.08062
 Alpha virt. eigenvalues --    0.08469   0.10448   0.11445   0.11547   0.11978

 Mulliken charges:
               1
     1  Mg   0.817637
     2  C    0.067713
     3  C   -0.198972
     4  C   -0.189630
     5  C   -0.191967
     6  N   -0.638952
     7  C    0.293642
     8  C   -0.157199
     9  C   -0.115575
    10  C    0.328806
    11  C   -0.302727
    12  C   -0.174688
    13  C   -0.261637
    14  C    0.573530
    15  O   -0.483901
    16  O   -0.456816
    17  N   -0.673972
    18  C    0.259116
    19  C    0.099670
    20  C   -0.096037
    21  C    0.367963
    22  C   -0.407850
    23  C   -0.054850
    24  C   -0.257252
    25  N   -0.682552
    26  C    0.304273
    27  C    0.006845
    28  C   -0.037192
    29  C    0.321288
    30  C   -0.358693
    31  C   -0.214980
    32  C   -0.311952
    33  N   -0.705204
    34  C    0.251625
    35  C   -0.026042
    36  C    0.033551
    37  C    0.317143
    38  C   -0.349594
    39  C    0.352014
    40  O   -0.493346
    41  C   -0.346635
    42  C    0.618434
    43  O   -0.443531
    44  O   -0.420925
    45  C   -0.097637
    46  C    0.021190
    47  C   -0.155470
    48  C    0.122555
    49  C   -0.367923
    50  C   -0.236728
    51  C   -0.154418
    52  C   -0.188194
    53  C   -0.068163
    54  C   -0.295091
    55  C   -0.149672
    56  C   -0.181471
    57  C   -0.142887
    58  C   -0.063197
    59  C   -0.307893
    60  C   -0.162065
    61  C   -0.188087
    62  C   -0.161069
    63  C   -0.056889
    64  C   -0.326982
    65  C   -0.312810
    66  H    0.074426
    67  H    0.091135
    68  H    0.089083
    69  H    0.111236
    70  H    0.121028
    71  H    0.093655
    72  H    0.100366
    73  H    0.118188
    74  H    0.104185
    75  H    0.125487
    76  H    0.133573
    77  H    0.132965
    78  H    0.137084
    79  H    0.118523
    80  H    0.124714
    81  H    0.102653
    82  H    0.091627
    83  H    0.094320
    84  H    0.104428
    85  H    0.117993
    86  H    0.139592
    87  H    0.112594
    88  H    0.104481
    89  H    0.111720
    90  H    0.110027
    91  H    0.108549
    92  H    0.131411
    93  H    0.150257
    94  H    0.130267
    95  H    0.158009
    96  H    0.115619
    97  H    0.126515
    98  H    0.122779
    99  H    0.141518
   100  H    0.128285
   101  H    0.095675
   102  H    0.111423
   103  H    0.120919
   104  H    0.116350
   105  H    0.093215
   106  H    0.107315
   107  H    0.074758
   108  H    0.108654
   109  H    0.084632
   110  H    0.082229
   111  H    0.066541
   112  H    0.110824
   113  H    0.110321
   114  H    0.084393
   115  H    0.079201
   116  H    0.101476
   117  H    0.090774
   118  H    0.069192
   119  H    0.094879
   120  H    0.033418
   121  H    0.067650
   122  H    0.101831
   123  H    0.107366
   124  H    0.085403
   125  H    0.085132
   126  H    0.095708
   127  H    0.107431
   128  H    0.102054
   129  H    0.090314
   130  H    0.090374
   131  H    0.088741
   132  H    0.075560
   133  H    0.104693
   134  H    0.108198
   135  H    0.107155
   136  H    0.094640
   137  H    0.085596
 Sum of Mulliken charges =   0.00000

 Dipole moment (field-independent basis, Debye):
    X=              3.4216    Y=              3.7515    Z=              1.3710  Tot=              5.2593
 Quadrupole moment (field-independent basis, Debye-Ang):
   XX=           -339.5626   YY=           -400.0073   ZZ=           -400.2523
   XY=            -13.6960   XZ=              8.5367   YZ=             -0.5449

 Normal termination of Gaussian 09 at Mon Jul  1 04:18:50 2019.
