 Gaussian 09, Revision D.01,
 Gaussian 09:  ES64L-G09RevD.01 24-Apr-2013

 -------------------------------------
 # td=(NStates=1) CAM-B3LYP/6-31G(d,p)
 -------------------------------------

 --
 TD
 --
 Symbolic Z-matrix:
 Charge =  0 Multiplicity = 1

                         Standard orientation:
 ---------------------------------------------------------------------
 Center     Atomic      Atomic             Coordinates (Angstroms)
 Number     Number       Type             X           Y           Z
 ---------------------------------------------------------------------
      1         12           0       -7.038859    0.550423   -0.018979
      2          6           0       -4.711916   -1.946497    0.603539
      3          6           0       -4.904446    2.882683    1.088403
      4          6           0       -9.520343    3.064922   -0.287913
      5          6           0       -9.477191   -1.753832   -0.989209
      6          7           0       -5.210780    0.379382    0.767750
      7          6           0       -4.385455   -0.745996    0.927319
      8          6           0       -2.962389   -0.251287    1.254280
      9          6           0       -3.157694    1.147064    1.691926
     10          6           0       -4.456850    1.567369    1.126368
     11          6           0       -3.070600    1.175017    3.264281
     12          6           0       -1.926195   -0.564616    0.079922
     13          6           0       -0.451591   -0.349158    0.545202
     14          6           0        0.501158   -0.558728   -0.592149
     15          8           0        0.243444   -0.916945   -1.714216
     16          8           0        1.882757   -0.442484   -0.278588
     17          7           0       -7.185988    2.605096    0.283930
     18          6           0       -6.218985    3.360681    0.790815
     19          6           0       -6.507624    4.702471    0.903727
     20          6           0       -7.796280    4.795259    0.405073
     21          6           0       -8.230848    3.505894    0.060065
     22          6           0       -5.679926    5.839008    1.540695
     23          6           0       -8.680374    6.024586    0.259748
     24          6           0       -8.367671    7.310304    0.069749
     25          7           0       -9.053359    0.626561   -0.541224
     26          6           0       -9.880798    1.745381   -0.610386
     27          6           0      -11.235676    1.359699   -0.987093
     28          6           0      -11.263474    0.023769   -1.267793
     29          6           0       -9.969768   -0.437252   -0.918810
     30          6           0      -12.402651    2.291880   -1.154324
     31          6           0      -12.410589   -0.839803   -1.779456
     32          6           0      -12.323831   -1.008964   -3.332242
     33          7           0       -7.201738   -1.473581   -0.159487
     34          6           0       -8.235656   -2.373799   -0.508830
     35          6           0       -7.747629   -3.667337   -0.466826
     36          6           0       -6.431769   -3.564220   -0.118988
     37          6           0       -6.144031   -2.248581    0.063876
     38          6           0       -8.561116   -4.877090   -0.912594
     39          6           0       -5.197134   -4.334760    0.184017
     40          8           0       -4.997689   -5.527040    0.288891
     41          6           0       -4.078724   -3.254499    0.545048
     42          6           0       -3.527385   -3.613231    1.915095
     43          8           0       -3.746496   -3.073822    2.941322
     44          8           0       -2.565841   -4.606345    1.845045
     45          6           0       -2.149734   -5.211057    3.060869
     46          6           0        2.812440   -0.629587   -1.283557
     47          6           0        4.183020   -0.608209   -0.787656
     48          6           0        5.084236    0.326504   -1.164914
     49          6           0        5.056381    1.296609   -2.250571
     50          6           0        6.486569    0.406398   -0.314011
     51          6           0        7.586228   -0.157532   -1.188443
     52          6           0        8.952791   -0.073120   -0.388606
     53          6           0       10.298744   -0.509946   -0.978496
     54          6           0       10.178819   -2.003235   -1.338350
     55          6           0       11.491704   -0.179641   -0.019239
     56          6           0       12.834353   -0.545211   -0.699198
     57          6           0       13.930672    0.009926    0.185663
     58          6           0       15.383322   -0.279849   -0.484941
     59          6           0       15.838076   -1.649381   -0.738378
     60          6           0       16.419053    0.445292    0.403092
     61          6           0       17.756217    0.677984   -0.226285
     62          6           0       18.748283    1.210661    0.815423
     63          6           0       20.233809    1.301038    0.368484
     64          6           0       20.341031    2.123899   -0.909229
     65          6           0       21.135669    1.859882    1.346147
     66          1           0       -4.083790    3.760937    1.312349
     67          1           0      -10.286651    3.615283   -0.247662
     68          1           0      -10.176921   -2.495934   -1.190782
     69          1           0       -2.598615   -0.798884    2.081373
     70          1           0       -2.309245    1.744061    1.240618
     71          1           0       -2.182846    0.558762    3.540864
     72          1           0       -3.228586    1.942937    3.865115
     73          1           0       -4.002993    0.698998    3.723160
     74          1           0       -2.021079   -1.479335   -0.201823
     75          1           0       -2.171841    0.109301   -0.827769
     76          1           0       -0.376922    0.624235    1.009222
     77          1           0       -0.085738   -1.188444    1.170243
     78          1           0       -4.796056    6.094428    0.789060
     79          1           0       -6.409105    6.655942    2.061705
     80          1           0       -5.298371    5.236959    2.353272
     81          1           0       -9.695523    5.698901    0.159802
     82          1           0       -9.136208    7.892952   -0.157682
     83          1           0       -7.434504    7.539130    0.094101
     84          1           0      -12.224554    3.162276   -1.780190
     85          1           0      -13.434862    1.961046   -1.355733
     86          1           0      -12.599412    2.673259   -0.304284
     87          1           0      -12.390152   -1.800842   -1.373090
     88          1           0      -13.325908   -0.345838   -1.353895
     89          1           0      -13.029168   -1.691111   -3.678271
     90          1           0      -12.219635   -0.119372   -3.824327
     91          1           0      -11.463762   -1.551569   -3.668559
     92          1           0       -8.992394   -4.859079   -1.738526
     93          1           0       -7.983712   -5.771298   -0.708378
     94          1           0       -9.458749   -5.065031   -0.147577
     95          1           0       -3.469553   -3.197374   -0.313623
     96          1           0       -1.417582   -4.385862    3.426985
     97          1           0       -3.042031   -5.229595    3.874218
     98          1           0       -1.523813   -6.194499    2.842671
     99          1           0        2.911859   -1.686086   -1.501562
    100          1           0        2.672617    0.176395   -2.052064
    101          1           0        4.378058   -1.132194    0.126184
    102          1           0        3.907385    1.414873   -2.556555
    103          1           0        5.256606    2.333943   -1.900102
    104          1           0        5.730251    1.094325   -3.052076
    105          1           0        6.525779    1.614123   -0.058317
    106          1           0        6.568471   -0.095096    0.739515
    107          1           0        7.364247   -1.315847   -1.193342
    108          1           0        7.691422    0.192327   -2.316296
    109          1           0        9.068597    0.981299   -0.199177
    110          1           0        8.714054   -0.454568    0.632346
    111          1           0       10.676698    0.046065   -1.984534
    112          1           0        9.346741   -2.135549   -1.935284
    113          1           0       11.084490   -2.283877   -1.874957
    114          1           0        9.948960   -2.741048   -0.442985
    115          1           0       11.530235    0.909830    0.233567
    116          1           0       11.229014   -0.619121    1.019362
    117          1           0       12.804276   -1.837379   -0.603586
    118          1           0       12.818648   -0.204138   -1.739875
    119          1           0       13.684517    1.033347    0.535966
    120          1           0       14.280540   -0.716004    1.144976
    121          1           0       15.398608    0.334369   -1.332491
    122          1           0       16.039165   -2.307794    0.108783
    123          1           0       15.233339   -2.166866   -1.646643
    124          1           0       16.765724   -1.552497   -1.411982
    125          1           0       15.845310    1.258132    0.807521
    126          1           0       16.647987   -0.053504    1.297210
    127          1           0       17.909579   -0.320050   -0.680841
    128          1           0       17.608458    1.416977   -1.147009
    129          1           0       18.418802    2.233493    1.007117
    130          1           0       18.785485    0.602638    1.843309
    131          1           0       20.593838    0.257327    0.106924
    132          1           0       20.251680    3.308689   -0.448602
    133          1           0       21.318930    1.846143   -1.531549
    134          1           0       19.453926    1.887491   -1.601628
    135          1           0       21.070025    1.386206    2.282636
    136          1           0       22.084270    2.236631    1.097314
    137          1           0       20.634271    2.920900    1.865454
 ---------------------------------------------------------------------

 SCF Done:  E(RCAM-B3LYP) =  -2932.58226316     A.U. after   15 cycles

 Excitation energies and oscillator strengths:

 Excited State   1:      Singlet-A      2.0208 eV  613.53 nm  f=0.2542  <S**2>=0.000
     240 -> 243        0.19728
     241 -> 242        0.66774
 This state for optimization and/or second-order correction.
 Total Energy, E(TD-HF/TD-KS) =  -2932.50799868
 Copying the excited state density for this state as the 1-particle RhoCI density.

 The electronic state is 1-A.
 Alpha  occ. eigenvalues --  -46.83570 -19.24299 -19.24124 -19.21103 -19.20956
 Alpha  occ. eigenvalues --  -19.20300 -14.40771 -14.40260 -14.39461 -14.38362
 Alpha  occ. eigenvalues --  -10.39340 -10.38943 -10.35132 -10.32509 -10.31523
 Alpha  occ. eigenvalues --  -10.29985 -10.29968 -10.29962 -10.29838 -10.29411
 Alpha  occ. eigenvalues --  -10.28860 -10.28837 -10.28737 -10.28664 -10.28312
 Alpha  occ. eigenvalues --  -10.27983 -10.27875 -10.27774 -10.27738 -10.27521
 Alpha  occ. eigenvalues --  -10.27335 -10.27292 -10.27199 -10.27151 -10.27084
 Alpha  occ. eigenvalues --  -10.27039 -10.26992 -10.26916 -10.26907 -10.26842
 Alpha  occ. eigenvalues --  -10.26804 -10.26758 -10.26755 -10.26612 -10.26587
 Alpha  occ. eigenvalues --  -10.26288 -10.26239 -10.26174 -10.25960 -10.25620
 Alpha  occ. eigenvalues --  -10.25573 -10.25549 -10.25520 -10.25389 -10.25072
 Alpha  occ. eigenvalues --  -10.24960 -10.24866 -10.24765 -10.24623 -10.24518
 Alpha  occ. eigenvalues --  -10.24415 -10.24340 -10.23993 -10.23926 -10.22957
 Alpha  occ. eigenvalues --   -3.12677  -1.87373  -1.86902  -1.86879  -1.17836
 Alpha  occ. eigenvalues --   -1.16954  -1.10964  -1.09237  -1.08727  -1.05258
 Alpha  occ. eigenvalues --   -1.03770  -1.01630  -1.01136  -0.92346  -0.90901
 Alpha  occ. eigenvalues --   -0.90297  -0.89794  -0.89652  -0.89257  -0.89175
 Alpha  occ. eigenvalues --   -0.88587  -0.88329  -0.87604  -0.86759  -0.86219
 Alpha  occ. eigenvalues --   -0.85072  -0.84642  -0.84074  -0.83677  -0.82960
 Alpha  occ. eigenvalues --   -0.81762  -0.81268  -0.80119  -0.79987  -0.79079
 Alpha  occ. eigenvalues --   -0.78446  -0.78121  -0.76115  -0.75294  -0.75266
 Alpha  occ. eigenvalues --   -0.74901  -0.74483  -0.74052  -0.73658  -0.73092
 Alpha  occ. eigenvalues --   -0.72385  -0.71150  -0.70032  -0.69064  -0.68180
 Alpha  occ. eigenvalues --   -0.67564  -0.65419  -0.64929  -0.64382  -0.63582
 Alpha  occ. eigenvalues --   -0.63283  -0.63136  -0.62212  -0.61715  -0.61608
 Alpha  occ. eigenvalues --   -0.61065  -0.60876  -0.60665  -0.60154  -0.59810
 Alpha  occ. eigenvalues --   -0.58910  -0.58760  -0.58265  -0.57975  -0.57047
 Alpha  occ. eigenvalues --   -0.56563  -0.56096  -0.55394  -0.54874  -0.54579
 Alpha  occ. eigenvalues --   -0.54380  -0.53508  -0.53260  -0.53084  -0.52987
 Alpha  occ. eigenvalues --   -0.52745  -0.52402  -0.52259  -0.51948  -0.51852
 Alpha  occ. eigenvalues --   -0.51736  -0.51587  -0.51187  -0.51003  -0.50734
 Alpha  occ. eigenvalues --   -0.50671  -0.50393  -0.50156  -0.49906  -0.49701
 Alpha  occ. eigenvalues --   -0.49424  -0.49165  -0.48728  -0.48576  -0.48181
 Alpha  occ. eigenvalues --   -0.48090  -0.47805  -0.47787  -0.47680  -0.47393
 Alpha  occ. eigenvalues --   -0.47122  -0.46913  -0.46675  -0.46496  -0.46136
 Alpha  occ. eigenvalues --   -0.45756  -0.45606  -0.45262  -0.45115  -0.44886
 Alpha  occ. eigenvalues --   -0.44796  -0.44465  -0.44433  -0.44226  -0.44054
 Alpha  occ. eigenvalues --   -0.43849  -0.43420  -0.43318  -0.43220  -0.43198
 Alpha  occ. eigenvalues --   -0.42739  -0.42691  -0.42524  -0.42262  -0.42186
 Alpha  occ. eigenvalues --   -0.42139  -0.41933  -0.41717  -0.41364  -0.41115
 Alpha  occ. eigenvalues --   -0.41074  -0.40800  -0.40670  -0.40601  -0.40223
 Alpha  occ. eigenvalues --   -0.40032  -0.39890  -0.39809  -0.39593  -0.39177
 Alpha  occ. eigenvalues --   -0.38770  -0.38199  -0.38043  -0.37954  -0.37418
 Alpha  occ. eigenvalues --   -0.37118  -0.36988  -0.36718  -0.36547  -0.36272
 Alpha  occ. eigenvalues --   -0.36055  -0.35940  -0.35334  -0.35226  -0.34925
 Alpha  occ. eigenvalues --   -0.34809  -0.34353  -0.33970  -0.33816  -0.33487
 Alpha  occ. eigenvalues --   -0.32800  -0.31796  -0.31698  -0.31306  -0.29755
 Alpha  occ. eigenvalues --   -0.29457  -0.28531  -0.28488  -0.28145  -0.23226
 Alpha  occ. eigenvalues --   -0.22506
 Alpha virt. eigenvalues --   -0.07886  -0.02604   0.02860   0.04308   0.05357
 Alpha virt. eigenvalues --    0.06139   0.06368   0.06984   0.07224   0.07996
 Alpha virt. eigenvalues --    0.09092   0.10660   0.11050   0.11362   0.12061

 Mulliken charges:
               1
     1  Mg   0.811155
     2  C    0.070576
     3  C   -0.242505
     4  C   -0.113503
     5  C   -0.153211
     6  N   -0.693858
     7  C    0.324964
     8  C   -0.160414
     9  C   -0.142044
    10  C    0.352495
    11  C   -0.310478
    12  C   -0.157172
    13  C   -0.273880
    14  C    0.590046
    15  O   -0.446271
    16  O   -0.507806
    17  N   -0.700732
    18  C    0.355972
    19  C    0.015060
    20  C   -0.016946
    21  C    0.286404
    22  C   -0.361852
    23  C   -0.082469
    24  C   -0.191026
    25  N   -0.659163
    26  C    0.298983
    27  C   -0.012039
    28  C    0.063765
    29  C    0.238449
    30  C   -0.388652
    31  C   -0.223628
    32  C   -0.323438
    33  N   -0.710887
    34  C    0.217290
    35  C   -0.007450
    36  C    0.031421
    37  C    0.281051
    38  C   -0.355750
    39  C    0.350632
    40  O   -0.452142
    41  C   -0.337623
    42  C    0.630936
    43  O   -0.438243
    44  O   -0.469975
    45  C   -0.073514
    46  C    0.073321
    47  C   -0.142485
    48  C    0.095547
    49  C   -0.357711
    50  C   -0.204368
    51  C   -0.165851
    52  C   -0.178402
    53  C   -0.056778
    54  C   -0.302294
    55  C   -0.170190
    56  C   -0.156273
    57  C   -0.176676
    58  C   -0.069759
    59  C   -0.307061
    60  C   -0.178443
    61  C   -0.174567
    62  C   -0.163998
    63  C   -0.038693
    64  C   -0.283515
    65  C   -0.291060
    66  H    0.080575
    67  H    0.055739
    68  H    0.083633
    69  H    0.119174
    70  H    0.093794
    71  H    0.110667
    72  H    0.116294
    73  H    0.114263
    74  H    0.122683
    75  H    0.112018
    76  H    0.142891
    77  H    0.151452
    78  H    0.123536
    79  H    0.122279
    80  H    0.134148
    81  H    0.080391
    82  H    0.102227
    83  H    0.093602
    84  H    0.120300
    85  H    0.114683
    86  H    0.138732
    87  H    0.115107
    88  H    0.103748
    89  H    0.111555
    90  H    0.126101
    91  H    0.113093
    92  H    0.131310
    93  H    0.142637
    94  H    0.093692
    95  H    0.176915
    96  H    0.103453
    97  H    0.125120
    98  H    0.123783
    99  H    0.109847
   100  H    0.095790
   101  H    0.095679
   102  H    0.091073
   103  H    0.119329
   104  H    0.134703
   105  H    0.067734
   106  H    0.092970
   107  H    0.091164
   108  H    0.087095
   109  H    0.091169
   110  H    0.086588
   111  H    0.057979
   112  H    0.113261
   113  H    0.099417
   114  H    0.079357
   115  H    0.079838
   116  H    0.086200
   117  H    0.077507
   118  H    0.101345
   119  H    0.099783
   120  H    0.070098
   121  H    0.090682
   122  H    0.114110
   123  H    0.080365
   124  H    0.105949
   125  H    0.084014
   126  H    0.088336
   127  H    0.092170
   128  H    0.078804
   129  H    0.101866
   130  H    0.075520
   131  H    0.082597
   132  H    0.067803
   133  H    0.087017
   134  H    0.094795
   135  H    0.106910
   136  H    0.119962
   137  H    0.038304
 Sum of Mulliken charges =   0.00000

 Dipole moment (field-independent basis, Debye):
    X=             -2.0767    Y=              5.3793    Z=             -0.0420  Tot=              5.7664
 Quadrupole moment (field-independent basis, Debye-Ang):
   XX=           -324.5613   YY=           -394.3369   ZZ=           -396.4478
   XY=            -33.1683   XZ=             14.1007   YZ=              1.2433

 Normal termination of Gaussian 09 at Mon Jul  1 12:19:26 2019.
