 Gaussian 09, Revision D.01,
 Gaussian 09:  ES64L-G09RevD.01 24-Apr-2013

 -------------------------------------
 # td=(NStates=1) CAM-B3LYP/6-31G(d,p)
 -------------------------------------

 --
 TD
 --
 Symbolic Z-matrix:
 Charge =  0 Multiplicity = 1

                         Standard orientation:
 ---------------------------------------------------------------------
 Center     Atomic      Atomic             Coordinates (Angstroms)
 Number     Number       Type             X           Y           Z
 ---------------------------------------------------------------------
      1         12           0       -7.178927    0.587057    0.123549
      2          6           0       -4.797970   -1.931822    0.487783
      3          6           0       -4.821234    2.834954    1.184721
      4          6           0       -9.493327    3.022153   -0.058966
      5          6           0       -9.495553   -1.813820   -0.923826
      6          7           0       -5.120465    0.458933    0.728868
      7          6           0       -4.321217   -0.682182    0.795539
      8          6           0       -2.954826   -0.334137    1.208880
      9          6           0       -3.113541    1.097597    1.651707
     10          6           0       -4.435910    1.520072    1.156029
     11          6           0       -2.835085    1.288734    3.197560
     12          6           0       -1.895471   -0.574789    0.083155
     13          6           0       -0.403487   -0.484515    0.534959
     14          6           0        0.467632   -0.570254   -0.683040
     15          8           0        0.204461   -0.764892   -1.835296
     16          8           0        1.784435   -0.404793   -0.308648
     17          7           0       -7.164276    2.626526    0.462249
     18          6           0       -6.092977    3.396353    0.733192
     19          6           0       -6.413807    4.805742    0.808033
     20          6           0       -7.819780    4.873902    0.461783
     21          6           0       -8.224248    3.484284    0.223691
     22          6           0       -5.478685    5.890980    1.214911
     23          6           0       -8.603193    6.105806    0.321015
     24          6           0       -8.137267    7.287343    0.081186
     25          7           0       -9.121925    0.595855   -0.475884
     26          6           0       -9.975102    1.725856   -0.520183
     27          6           0      -11.216167    1.383091   -0.964384
     28          6           0      -11.246993   -0.006938   -1.297778
     29          6           0       -9.909520   -0.482414   -0.871290
     30          6           0      -12.351051    2.433769   -1.244228
     31          6           0      -12.453733   -0.860410   -1.802035
     32          6           0      -12.535272   -1.025712   -3.347706
     33          7           0       -7.254264   -1.382884   -0.199963
     34          6           0       -8.250139   -2.309828   -0.441789
     35          6           0       -7.737942   -3.621040   -0.403807
     36          6           0       -6.395101   -3.601522   -0.090078
     37          6           0       -6.127029   -2.159691    0.120384
     38          6           0       -8.670757   -4.873002   -0.624938
     39          6           0       -5.277242   -4.479871    0.218248
     40          8           0       -5.109208   -5.569793    0.072704
     41          6           0       -4.073360   -3.392416    0.559482
     42          6           0       -3.455409   -3.715989    1.871202
     43          8           0       -3.605842   -3.147370    2.955709
     44          8           0       -2.623328   -4.815260    1.626628
     45          6           0       -2.006106   -5.429234    2.807979
     46          6           0        2.833607   -0.710217   -1.308270
     47          6           0        4.164671   -0.439384   -0.631847
     48          6           0        5.100577    0.436698   -1.025696
     49          6           0        5.064635    1.411259   -2.118581
     50          6           0        6.355536    0.397206   -0.184059
     51          6           0        7.586926   -0.130532   -1.003094
     52          6           0        8.919422   -0.105071   -0.289319
     53          6           0       10.219161   -0.369619   -1.010336
     54          6           0       10.122671   -1.889059   -1.551045
     55          6           0       11.402368   -0.291729   -0.008361
     56          6           0       12.688741   -0.478004   -0.704536
     57          6           0       13.903965   -0.155051    0.313569
     58          6           0       15.296743   -0.177010   -0.455759
     59          6           0       15.631340   -1.684960   -0.774933
     60          6           0       16.324193    0.379966    0.521124
     61          6           0       17.822267    0.370661   -0.012080
     62          6           0       18.709838    1.327842    0.813728
     63          6           0       20.167158    1.314746    0.218378
     64          6           0       20.379869    2.021506   -1.091935
     65          6           0       21.242691    1.900298    1.345629
     66          1           0       -4.095992    3.565877    1.395502
     67          1           0      -10.110311    3.748204   -0.077097
     68          1           0      -10.097583   -2.494115   -1.360392
     69          1           0       -2.574736   -0.977779    2.068824
     70          1           0       -2.104911    1.532985    1.151240
     71          1           0       -1.816276    0.961241    3.525780
     72          1           0       -2.874849    2.501258    3.404381
     73          1           0       -3.600790    0.759776    3.700168
     74          1           0       -2.032783   -1.668032   -0.465151
     75          1           0       -2.071032    0.235875   -0.736982
     76          1           0       -0.336172    0.376725    1.036193
     77          1           0       -0.096230   -1.368137    1.103357
     78          1           0       -4.908262    6.244126    0.248127
     79          1           0       -5.593265    7.045647    1.807439
     80          1           0       -4.720019    5.557617    1.953331
     81          1           0       -9.737403    5.901257    0.537787
     82          1           0       -8.733605    8.213870    0.402298
     83          1           0       -7.089000    7.498771   -0.188245
     84          1           0      -12.217794    3.142633   -2.092820
     85          1           0      -13.093988    1.875917   -1.809224
     86          1           0      -12.528295    3.068323   -0.415501
     87          1           0      -12.389541   -1.621039   -1.072845
     88          1           0      -13.283010   -0.296973   -1.481673
     89          1           0      -13.439839   -1.523510   -3.480686
     90          1           0      -12.477779    0.063491   -3.702499
     91          1           0      -11.556517   -1.518386   -3.575385
     92          1           0       -8.814101   -5.001073   -1.802447
     93          1           0       -8.179926   -5.901058   -0.220399
     94          1           0       -9.712217   -4.574948   -0.139999
     95          1           0       -3.383367   -3.446159   -0.201702
     96          1           0       -1.275693   -4.656700    3.229258
     97          1           0       -2.713130   -5.623241    3.615604
     98          1           0       -1.526022   -6.172481    2.554970
     99          1           0        2.671647   -1.817244   -1.512341
    100          1           0        2.618536   -0.090513   -2.106297
    101          1           0        4.365465   -1.011483    0.289870
    102          1           0        4.069152    1.335324   -2.590957
    103          1           0        5.181863    2.505820   -1.615817
    104          1           0        5.788528    1.227644   -3.052720
    105          1           0        6.499266    1.341230    0.368593
    106          1           0        6.396780   -0.255471    0.636521
    107          1           0        7.291981   -0.977805   -1.683031
    108          1           0        7.754632    0.528249   -2.007256
    109          1           0        8.832950    0.938599    0.225322
    110          1           0        8.873013   -0.759516    0.568961
    111          1           0       10.429023    0.339987   -1.800264
    112          1           0        9.055963   -1.946506   -2.187180
    113          1           0       10.862495   -2.104879   -2.407466
    114          1           0       10.112972   -2.668004   -0.750843
    115          1           0       11.161029    0.837621    0.340502
    116          1           0       11.293874   -0.910157    0.860920
    117          1           0       12.606363   -1.449652   -0.953832
    118          1           0       12.994563    0.303857   -1.418756
    119          1           0       13.405879    0.825880    0.794529
    120          1           0       13.971791   -1.007031    0.974620
    121          1           0       15.260871    0.209883   -1.542313
    122          1           0       15.951059   -2.288983    0.084945
    123          1           0       14.944484   -2.049642   -1.218624
    124          1           0       16.578768   -1.548525   -1.261274
    125          1           0       16.095280    1.410521    0.601078
    126          1           0       16.232468    0.180095    1.459162
    127          1           0       18.250140   -0.696076   -0.026217
    128          1           0       17.881737    0.512295   -1.043373
    129          1           0       18.373435    2.617202    0.798147
    130          1           0       18.796389    0.918733    1.886030
    131          1           0       20.235555    0.141493    0.040577
    132          1           0       20.131609    3.111875   -1.097994
    133          1           0       21.376072    2.217794   -1.422621
    134          1           0       19.950630    1.557277   -1.889745
    135          1           0       21.034967    1.273474    2.155930
    136          1           0       22.257876    1.820531    0.953378
    137          1           0       20.851758    2.875738    1.520584
 ---------------------------------------------------------------------

 SCF Done:  E(RCAM-B3LYP) =  -2932.59857164     A.U. after   17 cycles

 Excitation energies and oscillator strengths:

 Excited State   1:      Singlet-A      2.0529 eV  603.96 nm  f=0.2285  <S**2>=0.000
     240 -> 242       -0.12065
     240 -> 243       -0.26178
     241 -> 242        0.63540
 This state for optimization and/or second-order correction.
 Total Energy, E(TD-HF/TD-KS) =  -2932.52313004
 Copying the excited state density for this state as the 1-particle RhoCI density.

 The electronic state is 1-A.
 Alpha  occ. eigenvalues --  -46.83889 -19.25822 -19.23950 -19.22213 -19.21250
 Alpha  occ. eigenvalues --  -19.20764 -14.41311 -14.39444 -14.39434 -14.38797
 Alpha  occ. eigenvalues --  -10.39406 -10.38640 -10.35700 -10.31337 -10.30328
 Alpha  occ. eigenvalues --  -10.30309 -10.30176 -10.29920 -10.29560 -10.29408
 Alpha  occ. eigenvalues --  -10.29135 -10.29018 -10.28777 -10.28679 -10.28620
 Alpha  occ. eigenvalues --  -10.28489 -10.28319 -10.28112 -10.28004 -10.27940
 Alpha  occ. eigenvalues --  -10.27907 -10.27802 -10.27736 -10.27624 -10.27364
 Alpha  occ. eigenvalues --  -10.27223 -10.27131 -10.27020 -10.26969 -10.26877
 Alpha  occ. eigenvalues --  -10.26853 -10.26826 -10.26765 -10.26729 -10.26534
 Alpha  occ. eigenvalues --  -10.26413 -10.26377 -10.26274 -10.26248 -10.26047
 Alpha  occ. eigenvalues --  -10.26003 -10.25882 -10.25805 -10.25710 -10.25516
 Alpha  occ. eigenvalues --  -10.25498 -10.25489 -10.25378 -10.25210 -10.24923
 Alpha  occ. eigenvalues --  -10.24066 -10.23830 -10.23226 -10.23168 -10.22023
 Alpha  occ. eigenvalues --   -3.12930  -1.87636  -1.87173  -1.87108  -1.18614
 Alpha  occ. eigenvalues --   -1.16730  -1.15492  -1.08014  -1.07945  -1.04655
 Alpha  occ. eigenvalues --   -1.03202  -1.02566  -1.00767  -0.91368  -0.91307
 Alpha  occ. eigenvalues --   -0.90367  -0.89802  -0.89123  -0.88953  -0.88274
 Alpha  occ. eigenvalues --   -0.87250  -0.87234  -0.87131  -0.86202  -0.85937
 Alpha  occ. eigenvalues --   -0.84926  -0.84403  -0.83544  -0.82783  -0.82273
 Alpha  occ. eigenvalues --   -0.81578  -0.81096  -0.80078  -0.79488  -0.77533
 Alpha  occ. eigenvalues --   -0.77390  -0.76805  -0.76559  -0.76301  -0.76135
 Alpha  occ. eigenvalues --   -0.75587  -0.74440  -0.73537  -0.72728  -0.72123
 Alpha  occ. eigenvalues --   -0.71799  -0.70174  -0.69841  -0.68847  -0.68488
 Alpha  occ. eigenvalues --   -0.67076  -0.66753  -0.65221  -0.64752  -0.63957
 Alpha  occ. eigenvalues --   -0.63843  -0.63484  -0.63120  -0.61963  -0.61753
 Alpha  occ. eigenvalues --   -0.61176  -0.60519  -0.60366  -0.59485  -0.59273
 Alpha  occ. eigenvalues --   -0.58658  -0.57637  -0.57408  -0.57249  -0.57009
 Alpha  occ. eigenvalues --   -0.55976  -0.55541  -0.55216  -0.54991  -0.54644
 Alpha  occ. eigenvalues --   -0.54068  -0.54025  -0.53859  -0.53288  -0.53105
 Alpha  occ. eigenvalues --   -0.52822  -0.52706  -0.52430  -0.52014  -0.51426
 Alpha  occ. eigenvalues --   -0.51162  -0.51126  -0.51001  -0.50743  -0.50466
 Alpha  occ. eigenvalues --   -0.50411  -0.50161  -0.50015  -0.49910  -0.49821
 Alpha  occ. eigenvalues --   -0.49431  -0.49195  -0.48825  -0.48783  -0.48623
 Alpha  occ. eigenvalues --   -0.47993  -0.47899  -0.47795  -0.47466  -0.47334
 Alpha  occ. eigenvalues --   -0.46891  -0.46753  -0.46536  -0.46382  -0.46050
 Alpha  occ. eigenvalues --   -0.45827  -0.45364  -0.45229  -0.45083  -0.45042
 Alpha  occ. eigenvalues --   -0.44809  -0.44642  -0.44511  -0.44380  -0.43988
 Alpha  occ. eigenvalues --   -0.43965  -0.43755  -0.43536  -0.43456  -0.43094
 Alpha  occ. eigenvalues --   -0.43058  -0.42807  -0.42777  -0.42536  -0.42392
 Alpha  occ. eigenvalues --   -0.42107  -0.41902  -0.41664  -0.41406  -0.41296
 Alpha  occ. eigenvalues --   -0.41161  -0.40808  -0.40347  -0.40321  -0.40076
 Alpha  occ. eigenvalues --   -0.39661  -0.39585  -0.39267  -0.39020  -0.38992
 Alpha  occ. eigenvalues --   -0.38838  -0.38655  -0.38627  -0.37725  -0.37698
 Alpha  occ. eigenvalues --   -0.37512  -0.36969  -0.36828  -0.36558  -0.35909
 Alpha  occ. eigenvalues --   -0.35873  -0.35459  -0.35378  -0.35253  -0.35113
 Alpha  occ. eigenvalues --   -0.34888  -0.34543  -0.34003  -0.33987  -0.33651
 Alpha  occ. eigenvalues --   -0.33454  -0.32127  -0.31949  -0.31035  -0.30302
 Alpha  occ. eigenvalues --   -0.29983  -0.29644  -0.27686  -0.27115  -0.22908
 Alpha  occ. eigenvalues --   -0.21396
 Alpha virt. eigenvalues --   -0.06510  -0.03488   0.01639   0.04482   0.05547
 Alpha virt. eigenvalues --    0.05725   0.06542   0.06728   0.07159   0.07583
 Alpha virt. eigenvalues --    0.08434   0.10694   0.11361   0.11651   0.11910

 Mulliken charges:
               1
     1  Mg   0.816497
     2  C    0.012933
     3  C   -0.197674
     4  C   -0.129711
     5  C   -0.156297
     6  N   -0.666082
     7  C    0.314616
     8  C   -0.156302
     9  C   -0.169093
    10  C    0.401417
    11  C   -0.291954
    12  C   -0.184289
    13  C   -0.245432
    14  C    0.596856
    15  O   -0.462634
    16  O   -0.517130
    17  N   -0.680587
    18  C    0.303171
    19  C    0.031584
    20  C   -0.004937
    21  C    0.290051
    22  C   -0.383948
    23  C   -0.043168
    24  C   -0.253907
    25  N   -0.692693
    26  C    0.306577
    27  C   -0.011432
    28  C   -0.025923
    29  C    0.285613
    30  C   -0.364611
    31  C   -0.245116
    32  C   -0.295919
    33  N   -0.708253
    34  C    0.275547
    35  C    0.002083
    36  C   -0.018680
    37  C    0.292002
    38  C   -0.355779
    39  C    0.367111
    40  O   -0.346299
    41  C   -0.309298
    42  C    0.625177
    43  O   -0.484267
    44  O   -0.487392
    45  C   -0.057471
    46  C    0.024274
    47  C   -0.128693
    48  C    0.136466
    49  C   -0.352828
    50  C   -0.226650
    51  C   -0.179863
    52  C   -0.154980
    53  C   -0.055892
    54  C   -0.316294
    55  C   -0.175983
    56  C   -0.177108
    57  C   -0.187097
    58  C   -0.090591
    59  C   -0.293459
    60  C   -0.152840
    61  C   -0.204937
    62  C   -0.142002
    63  C   -0.068627
    64  C   -0.306625
    65  C   -0.318868
    66  H    0.076206
    67  H    0.046356
    68  H    0.086426
    69  H    0.127117
    70  H    0.080770
    71  H    0.109314
    72  H    0.082543
    73  H    0.135038
    74  H    0.095717
    75  H    0.111329
    76  H    0.142748
    77  H    0.146391
    78  H    0.116862
    79  H    0.101660
    80  H    0.122333
    81  H    0.086469
    82  H    0.100114
    83  H    0.108740
    84  H    0.113678
    85  H    0.110360
    86  H    0.125362
    87  H    0.115902
    88  H    0.114549
    89  H    0.123885
    90  H    0.109693
    91  H    0.116687
    92  H    0.116091
    93  H    0.128806
    94  H    0.112598
    95  H    0.164996
    96  H    0.107291
    97  H    0.132954
    98  H    0.125413
    99  H    0.116860
   100  H    0.128225
   101  H    0.095565
   102  H    0.111900
   103  H    0.109700
   104  H    0.115914
   105  H    0.093226
   106  H    0.108621
   107  H    0.098129
   108  H    0.053536
   109  H    0.078502
   110  H    0.090201
   111  H    0.094222
   112  H    0.070669
   113  H    0.101168
   114  H    0.108859
   115  H    0.059511
   116  H    0.096632
   117  H    0.109301
   118  H    0.099438
   119  H    0.079076
   120  H    0.095874
   121  H    0.078636
   122  H    0.092664
   123  H    0.101315
   124  H    0.098272
   125  H    0.098974
   126  H    0.100930
   127  H    0.084250
   128  H    0.108350
   129  H    0.044620
   130  H    0.090260
   131  H    0.062648
   132  H    0.088858
   133  H    0.103250
   134  H    0.107913
   135  H    0.107850
   136  H    0.107109
   137  H    0.112211
 Sum of Mulliken charges =   0.00000

 Dipole moment (field-independent basis, Debye):
    X=              1.4225    Y=              2.5013    Z=              0.4639  Tot=              2.9147
 Quadrupole moment (field-independent basis, Debye-Ang):
   XX=           -345.4782   YY=           -381.9200   ZZ=           -399.6859
   XY=            -16.4352   XZ=              6.3059   YZ=             -3.0095

 Normal termination of Gaussian 09 at Sat Jun 29 02:14:53 2019.
