 Gaussian 09, Revision D.01,
 Gaussian 09:  ES64L-G09RevD.01 24-Apr-2013

 -------------------------------------
 # td=(NStates=1) CAM-B3LYP/6-31G(d,p)
 -------------------------------------

 --
 TD
 --
 Symbolic Z-matrix:
 Charge =  0 Multiplicity = 1

                         Standard orientation:
 ---------------------------------------------------------------------
 Center     Atomic      Atomic             Coordinates (Angstroms)
 Number     Number       Type             X           Y           Z
 ---------------------------------------------------------------------
      1         12           0       -7.173330    0.540914    0.163725
      2          6           0       -4.836369   -1.961064    0.368594
      3          6           0       -4.687010    2.831184    1.248601
      4          6           0       -9.381623    3.142683   -0.285589
      5          6           0       -9.513771   -1.775379   -0.829506
      6          7           0       -5.022882    0.430643    0.726571
      7          6           0       -4.292834   -0.714191    0.714182
      8          6           0       -2.908219   -0.474399    1.276506
      9          6           0       -2.993046    1.000848    1.770437
     10          6           0       -4.322895    1.454984    1.198262
     11          6           0       -2.944335    1.128060    3.289461
     12          6           0       -1.883427   -0.555687    0.064288
     13          6           0       -0.483289   -0.533746    0.520703
     14          6           0        0.429766   -0.675459   -0.601097
     15          8           0        0.150466   -1.110974   -1.732590
     16          8           0        1.670361   -0.460973   -0.194251
     17          7           0       -6.991284    2.593510    0.321826
     18          6           0       -5.926881    3.348339    0.793049
     19          6           0       -6.409283    4.785771    0.804478
     20          6           0       -7.697522    4.831796    0.391118
     21          6           0       -8.140439    3.450814    0.061728
     22          6           0       -5.508812    5.783766    1.350381
     23          6           0       -8.540181    6.052270    0.301817
     24          6           0       -8.299246    7.335805    0.173350
     25          7           0       -9.076595    0.698517   -0.520212
     26          6           0       -9.814297    1.848870   -0.566767
     27          6           0      -11.154583    1.524359   -0.983794
     28          6           0      -11.251943    0.156657   -1.216387
     29          6           0       -9.888039   -0.417629   -0.772590
     30          6           0      -12.256530    2.574142   -1.312753
     31          6           0      -12.409694   -0.591557   -1.677285
     32          6           0      -12.379144   -0.813799   -3.213116
     33          7           0       -7.251770   -1.415550   -0.171010
     34          6           0       -8.270866   -2.216976   -0.473462
     35          6           0       -7.837696   -3.642029   -0.517484
     36          6           0       -6.523188   -3.539292   -0.190474
     37          6           0       -6.205822   -2.220980    0.023316
     38          6           0       -8.739278   -4.908580   -0.905954
     39          6           0       -5.339530   -4.342777    0.142196
     40          8           0       -5.119825   -5.576835    0.296095
     41          6           0       -4.215070   -3.333575    0.537352
     42          6           0       -3.458166   -3.668705    1.849241
     43          8           0       -3.589023   -3.064829    2.890596
     44          8           0       -2.645997   -4.721525    1.671427
     45          6           0       -2.052645   -5.296163    2.902681
     46          6           0        2.727711   -0.742818   -1.237345
     47          6           0        4.051576   -0.513236   -0.633898
     48          6           0        5.118429    0.261303   -1.042285
     49          6           0        5.076496    1.102667   -2.212608
     50          6           0        6.375903    0.285930   -0.225772
     51          6           0        7.551924   -0.338367   -0.988781
     52          6           0        8.901856   -0.104113   -0.166889
     53          6           0       10.143018   -0.619409   -0.899250
     54          6           0       10.249287   -2.016169   -1.519439
     55          6           0       11.409481   -0.429390    0.012764
     56          6           0       12.671287   -0.562678   -0.660378
     57          6           0       13.877120    0.099472    0.075820
     58          6           0       15.307230   -0.156521   -0.405954
     59          6           0       15.639124   -1.581142   -0.804853
     60          6           0       16.453613    0.367693    0.543658
     61          6           0       17.714557    0.633504   -0.074276
     62          6           0       18.757168    1.352001    0.743084
     63          6           0       20.141809    1.424539    0.202645
     64          6           0       20.298660    2.278258   -1.055281
     65          6           0       21.142573    1.942825    1.235117
     66          1           0       -4.022061    3.514515    1.766823
     67          1           0       -9.905759    4.094906   -0.638600
     68          1           0      -10.388446   -2.465675   -1.175992
     69          1           0       -2.586534   -1.214952    2.084904
     70          1           0       -2.264254    1.459720    1.147095
     71          1           0       -1.888838    0.712925    3.481477
     72          1           0       -2.897890    2.191041    3.539219
     73          1           0       -3.742993    0.570057    4.014322
     74          1           0       -1.950708   -1.475054   -0.728870
     75          1           0       -2.108976    0.203307   -0.587668
     76          1           0       -0.267612    0.288570    0.985457
     77          1           0       -0.357707   -1.330295    1.486611
     78          1           0       -4.900259    6.211121    0.701394
     79          1           0       -6.163286    6.771232    1.634425
     80          1           0       -4.856362    5.573368    2.228533
     81          1           0       -9.598025    5.918959    0.527214
     82          1           0       -9.194330    8.260142    0.314613
     83          1           0       -7.198142    7.628202   -0.455558
     84          1           0      -12.078575    3.199895   -2.139997
     85          1           0      -13.185247    2.120562   -1.473401
     86          1           0      -12.340985    3.244934   -0.473497
     87          1           0      -12.345072   -1.443751   -1.211773
     88          1           0      -13.347018   -0.217630   -1.495964
     89          1           0      -13.208741   -1.381779   -3.530213
     90          1           0      -12.163582    0.076751   -3.827918
     91          1           0      -11.655719   -1.497447   -3.566486
     92          1           0       -9.074880   -5.012828   -2.018761
     93          1           0       -8.118152   -5.750609   -0.795396
     94          1           0       -9.676633   -4.715696   -0.315893
     95          1           0       -3.427168   -3.332197   -0.354222
     96          1           0       -1.492345   -4.486152    3.383166
     97          1           0       -2.799180   -5.464964    3.715392
     98          1           0       -1.313566   -6.170503    2.496994
     99          1           0        2.452677   -1.799848   -1.740161
    100          1           0        2.616400    0.085816   -2.069615
    101          1           0        4.329974   -1.446064    0.153989
    102          1           0        4.075114    1.542676   -2.567376
    103          1           0        5.890081    2.028228   -2.310488
    104          1           0        5.253587    0.617320   -3.297093
    105          1           0        6.589287    1.172389    0.043650
    106          1           0        6.313989   -0.275876    0.708015
    107          1           0        7.232843   -1.417650   -0.954996
    108          1           0        7.611096    0.129070   -2.089774
    109          1           0        8.916854    1.137167    0.041025
    110          1           0        8.870237   -0.775271    0.673563
    111          1           0       10.177253   -0.031157   -1.709895
    112          1           0        9.413907   -2.126501   -2.170028
    113          1           0       11.205013   -2.193258   -2.058502
    114          1           0       10.145997   -2.786764   -0.759188
    115          1           0       11.258985    0.652227    0.521269
    116          1           0       11.592894   -1.248974    0.826658
    117          1           0       12.920469   -1.652058   -0.824177
    118          1           0       12.454366    0.099251   -1.534959
    119          1           0       13.667596    1.265100    0.392874
    120          1           0       13.850260   -0.139103    1.295463
    121          1           0       15.489040    0.347176   -1.404096
    122          1           0       15.711969   -2.162529    0.165355
    123          1           0       14.839249   -1.952029   -1.597774
    124          1           0       16.663606   -1.803319   -1.208963
    125          1           0       15.966511    1.422427    0.849417
    126          1           0       16.318890   -0.062355    1.476448
    127          1           0       18.210359   -0.277564   -0.368280
    128          1           0       17.656626    1.321203   -0.972934
    129          1           0       18.423365    2.447784    0.833528
    130          1           0       18.814793    0.891059    1.841143
    131          1           0       20.480380    0.377987   -0.139951
    132          1           0       20.084831    3.202334   -0.807193
    133          1           0       21.287478    2.324852   -1.500899
    134          1           0       19.544463    1.918139   -1.705653
    135          1           0       21.102454    1.282431    2.132849
    136          1           0       22.076038    2.143357    0.891248
    137          1           0       20.922453    2.985679    1.583556
 ---------------------------------------------------------------------

 SCF Done:  E(RCAM-B3LYP) =  -2932.63458122     A.U. after   18 cycles

 Excitation energies and oscillator strengths:

 Excited State   1:      Singlet-A      2.1474 eV  577.37 nm  f=0.2411  <S**2>=0.000
     240 -> 243       -0.26123
     241 -> 242        0.64040
 This state for optimization and/or second-order correction.
 Total Energy, E(TD-HF/TD-KS) =  -2932.55566580
 Copying the excited state density for this state as the 1-particle RhoCI density.

 The electronic state is 1-A.
 Alpha  occ. eigenvalues --  -46.84113 -19.26433 -19.26253 -19.20905 -19.20219
 Alpha  occ. eigenvalues --  -19.19718 -14.41355 -14.39496 -14.39360 -14.39359
 Alpha  occ. eigenvalues --  -10.39468 -10.38598 -10.35091 -10.33855 -10.32816
 Alpha  occ. eigenvalues --  -10.30942 -10.30856 -10.30129 -10.29721 -10.29565
 Alpha  occ. eigenvalues --  -10.29120 -10.29091 -10.29051 -10.28810 -10.28670
 Alpha  occ. eigenvalues --  -10.28402 -10.28377 -10.28345 -10.28181 -10.27992
 Alpha  occ. eigenvalues --  -10.27907 -10.27651 -10.27595 -10.27511 -10.27390
 Alpha  occ. eigenvalues --  -10.27375 -10.27363 -10.27342 -10.27160 -10.27142
 Alpha  occ. eigenvalues --  -10.26742 -10.26647 -10.26491 -10.26374 -10.26121
 Alpha  occ. eigenvalues --  -10.26068 -10.26043 -10.26020 -10.25818 -10.25790
 Alpha  occ. eigenvalues --  -10.25650 -10.25615 -10.25568 -10.25412 -10.25234
 Alpha  occ. eigenvalues --  -10.25051 -10.24903 -10.24842 -10.24750 -10.24512
 Alpha  occ. eigenvalues --  -10.24468 -10.24163 -10.24007 -10.23648 -10.22500
 Alpha  occ. eigenvalues --   -3.13151  -1.87858  -1.87394  -1.87319  -1.17690
 Alpha  occ. eigenvalues --   -1.17604  -1.08891  -1.07989  -1.07324  -1.05705
 Alpha  occ. eigenvalues --   -1.04402  -1.01666  -1.00345  -0.92414  -0.92181
 Alpha  occ. eigenvalues --   -0.91303  -0.90724  -0.90473  -0.89261  -0.88943
 Alpha  occ. eigenvalues --   -0.88535  -0.88101  -0.87498  -0.86507  -0.86351
 Alpha  occ. eigenvalues --   -0.85694  -0.84370  -0.83872  -0.83424  -0.82878
 Alpha  occ. eigenvalues --   -0.82085  -0.80857  -0.80581  -0.80071  -0.77829
 Alpha  occ. eigenvalues --   -0.77675  -0.76821  -0.76658  -0.76563  -0.75796
 Alpha  occ. eigenvalues --   -0.75133  -0.75010  -0.74240  -0.73114  -0.72516
 Alpha  occ. eigenvalues --   -0.71509  -0.70938  -0.70251  -0.68678  -0.68181
 Alpha  occ. eigenvalues --   -0.67109  -0.65943  -0.64965  -0.64752  -0.64174
 Alpha  occ. eigenvalues --   -0.63786  -0.63118  -0.62691  -0.62423  -0.61905
 Alpha  occ. eigenvalues --   -0.61382  -0.60428  -0.60252  -0.59542  -0.58761
 Alpha  occ. eigenvalues --   -0.58354  -0.58062  -0.57478  -0.57062  -0.56480
 Alpha  occ. eigenvalues --   -0.56016  -0.55583  -0.55296  -0.55056  -0.54853
 Alpha  occ. eigenvalues --   -0.54325  -0.54024  -0.53751  -0.53282  -0.52995
 Alpha  occ. eigenvalues --   -0.52517  -0.52493  -0.52242  -0.52030  -0.52026
 Alpha  occ. eigenvalues --   -0.51287  -0.51128  -0.50894  -0.50755  -0.50580
 Alpha  occ. eigenvalues --   -0.50443  -0.50163  -0.49969  -0.49748  -0.49406
 Alpha  occ. eigenvalues --   -0.49129  -0.48904  -0.48704  -0.48361  -0.48063
 Alpha  occ. eigenvalues --   -0.47976  -0.47657  -0.47441  -0.47247  -0.47159
 Alpha  occ. eigenvalues --   -0.46724  -0.46528  -0.46265  -0.46219  -0.46047
 Alpha  occ. eigenvalues --   -0.45712  -0.45598  -0.45297  -0.45114  -0.44822
 Alpha  occ. eigenvalues --   -0.44636  -0.44603  -0.44374  -0.44220  -0.43959
 Alpha  occ. eigenvalues --   -0.43681  -0.43651  -0.43508  -0.43181  -0.43103
 Alpha  occ. eigenvalues --   -0.42893  -0.42689  -0.42513  -0.42380  -0.42253
 Alpha  occ. eigenvalues --   -0.41977  -0.41952  -0.41558  -0.41484  -0.41067
 Alpha  occ. eigenvalues --   -0.40870  -0.40661  -0.40581  -0.40455  -0.40051
 Alpha  occ. eigenvalues --   -0.39904  -0.39651  -0.39447  -0.39310  -0.39246
 Alpha  occ. eigenvalues --   -0.38941  -0.38759  -0.38621  -0.38308  -0.37934
 Alpha  occ. eigenvalues --   -0.37382  -0.37165  -0.37004  -0.36711  -0.36360
 Alpha  occ. eigenvalues --   -0.36212  -0.35721  -0.35552  -0.35509  -0.35438
 Alpha  occ. eigenvalues --   -0.35046  -0.34971  -0.34051  -0.33735  -0.33583
 Alpha  occ. eigenvalues --   -0.33517  -0.32574  -0.32346  -0.30351  -0.30036
 Alpha  occ. eigenvalues --   -0.29646  -0.29404  -0.28168  -0.27434  -0.23146
 Alpha  occ. eigenvalues --   -0.20779
 Alpha virt. eigenvalues --   -0.05635  -0.02883   0.01593   0.02953   0.04146
 Alpha virt. eigenvalues --    0.04738   0.05559   0.06286   0.07177   0.07675
 Alpha virt. eigenvalues --    0.08568   0.10631   0.10708   0.11097   0.11499

 Mulliken charges:
               1
     1  Mg   0.830672
     2  C    0.045645
     3  C   -0.201782
     4  C   -0.178731
     5  C   -0.166943
     6  N   -0.615307
     7  C    0.315231
     8  C   -0.184758
     9  C   -0.141392
    10  C    0.330485
    11  C   -0.296564
    12  C   -0.198982
    13  C   -0.238652
    14  C    0.625456
    15  O   -0.506308
    16  O   -0.475211
    17  N   -0.731767
    18  C    0.326469
    19  C    0.024774
    20  C    0.024944
    21  C    0.321506
    22  C   -0.398864
    23  C   -0.050695
    24  C   -0.260631
    25  N   -0.710812
    26  C    0.324361
    27  C   -0.023574
    28  C    0.018801
    29  C    0.250581
    30  C   -0.365845
    31  C   -0.225292
    32  C   -0.332238
    33  N   -0.729163
    34  C    0.263639
    35  C   -0.010249
    36  C    0.030330
    37  C    0.294468
    38  C   -0.349118
    39  C    0.361605
    40  O   -0.488111
    41  C   -0.304649
    42  C    0.624860
    43  O   -0.480163
    44  O   -0.442665
    45  C   -0.090364
    46  C    0.009816
    47  C   -0.131451
    48  C    0.165631
    49  C   -0.395379
    50  C   -0.210948
    51  C   -0.192637
    52  C   -0.166660
    53  C   -0.059431
    54  C   -0.326547
    55  C   -0.161727
    56  C   -0.168877
    57  C   -0.173240
    58  C   -0.040865
    59  C   -0.306024
    60  C   -0.176128
    61  C   -0.161702
    62  C   -0.160271
    63  C   -0.058324
    64  C   -0.312195
    65  C   -0.304594
    66  H    0.082408
    67  H    0.108143
    68  H    0.105381
    69  H    0.127689
    70  H    0.120412
    71  H    0.100269
    72  H    0.111364
    73  H    0.127270
    74  H    0.115760
    75  H    0.119186
    76  H    0.136470
    77  H    0.115434
    78  H    0.142594
    79  H    0.098284
    80  H    0.118066
    81  H    0.098422
    82  H    0.098524
    83  H    0.077838
    84  H    0.124915
    85  H    0.112633
    86  H    0.113863
    87  H    0.106631
    88  H    0.115695
    89  H    0.102068
    90  H    0.114133
    91  H    0.109792
    92  H    0.113892
    93  H    0.154963
    94  H    0.125305
    95  H    0.156264
    96  H    0.129824
    97  H    0.144732
    98  H    0.129297
    99  H    0.143303
   100  H    0.105599
   101  H    0.068145
   102  H    0.126427
   103  H    0.096695
   104  H    0.118629
   105  H    0.111531
   106  H    0.105611
   107  H    0.102894
   108  H    0.081064
   109  H    0.073855
   110  H    0.105792
   111  H    0.096997
   112  H    0.105804
   113  H    0.114060
   114  H    0.099320
   115  H    0.066503
   116  H    0.075208
   117  H    0.108203
   118  H    0.093971
   119  H    0.076059
   120  H    0.048514
   121  H    0.079904
   122  H    0.087385
   123  H    0.086787
   124  H    0.104492
   125  H    0.061453
   126  H    0.105517
   127  H    0.095567
   128  H    0.096907
   129  H    0.077956
   130  H    0.069255
   131  H    0.070753
   132  H    0.110198
   133  H    0.102110
   134  H    0.098490
   135  H    0.094365
   136  H    0.106643
   137  H    0.087072
 Sum of Mulliken charges =   0.00000

 Dipole moment (field-independent basis, Debye):
    X=              2.4817    Y=              4.1549    Z=              0.2225  Tot=              4.8447
 Quadrupole moment (field-independent basis, Debye-Ang):
   XX=           -344.2365   YY=           -394.5437   ZZ=           -395.9085
   XY=            -15.8077   XZ=              1.8368   YZ=             -3.4884

 Normal termination of Gaussian 09 at Thu Jun 27 00:44:49 2019.
