 Gaussian 09, Revision D.01,
 Gaussian 09:  ES64L-G09RevD.01 24-Apr-2013

 -------------------------------------
 # td=(NStates=1) CAM-B3LYP/6-31G(d,p)
 -------------------------------------

 --
 TD
 --
 Symbolic Z-matrix:
 Charge =  0 Multiplicity = 1

                         Standard orientation:
 ---------------------------------------------------------------------
 Center     Atomic      Atomic             Coordinates (Angstroms)
 Number     Number       Type             X           Y           Z
 ---------------------------------------------------------------------
      1         12           0       -7.192512    0.539996    0.109965
      2          6           0       -4.891485   -2.010532    0.517199
      3          6           0       -4.778939    2.792788    1.097584
      4          6           0       -9.360479    3.130071   -0.451857
      5          6           0       -9.581949   -1.691129   -0.926789
      6          7           0       -5.117020    0.424684    0.878941
      7          6           0       -4.334848   -0.700567    0.877707
      8          6           0       -2.975503   -0.529160    1.225667
      9          6           0       -2.973548    0.990050    1.720484
     10          6           0       -4.393507    1.412789    1.112730
     11          6           0       -2.847463    1.211323    3.188947
     12          6           0       -1.913566   -0.817712    0.167983
     13          6           0       -0.490021   -0.503819    0.685303
     14          6           0        0.441270   -0.733552   -0.464282
     15          8           0        0.164373   -1.046760   -1.562693
     16          8           0        1.749176   -0.387873   -0.178691
     17          7           0       -7.021695    2.587683    0.365744
     18          6           0       -6.018819    3.302604    0.864924
     19          6           0       -6.306843    4.762915    0.923702
     20          6           0       -7.711320    4.898731    0.559448
     21          6           0       -8.165000    3.476468    0.033540
     22          6           0       -5.417562    5.934518    1.466412
     23          6           0       -8.560653    6.018571    0.483603
     24          6           0       -8.175573    7.210626    0.197782
     25          7           0       -9.054906    0.760554   -0.596167
     26          6           0       -9.755314    1.826741   -0.632503
     27          6           0      -11.057575    1.539959   -1.209319
     28          6           0      -11.241116    0.132456   -1.231102
     29          6           0       -9.967516   -0.374422   -0.874187
     30          6           0      -12.184972    2.565138   -1.531824
     31          6           0      -12.321740   -0.519645   -1.811230
     32          6           0      -12.258652   -0.778992   -3.370330
     33          7           0       -7.275332   -1.445789   -0.129226
     34          6           0       -8.315653   -2.246229   -0.695989
     35          6           0       -7.839326   -3.627394   -0.711129
     36          6           0       -6.493779   -3.611924   -0.302453
     37          6           0       -6.133619   -2.201318    0.065021
     38          6           0       -8.628619   -4.880883   -0.989927
     39          6           0       -5.297679   -4.429320    0.157815
     40          8           0       -5.309623   -5.600521    0.149649
     41          6           0       -4.208637   -3.364439    0.461550
     42          6           0       -3.665179   -3.683333    1.898667
     43          8           0       -3.933941   -3.180888    2.852800
     44          8           0       -2.792945   -4.785899    1.750664
     45          6           0       -2.163822   -5.105517    2.953437
     46          6           0        2.784687   -0.573261   -1.173984
     47          6           0        4.058982   -0.386684   -0.417604
     48          6           0        5.095039    0.335576   -0.811690
     49          6           0        5.100377    1.221300   -2.020852
     50          6           0        6.359722    0.445309   -0.021387
     51          6           0        7.617545   -0.266128   -0.850117
     52          6           0        8.848217   -0.222285    0.012975
     53          6           0       10.190569   -0.635432   -0.714854
     54          6           0       10.208012   -2.192962   -1.088873
     55          6           0       11.387982   -0.303226    0.128904
     56          6           0       12.772144   -0.426057   -0.646994
     57          6           0       13.890526   -0.043268    0.245871
     58          6           0       15.162113   -0.137172   -0.565867
     59          6           0       15.720935   -1.488494   -0.977096
     60          6           0       16.375859    0.498111    0.277139
     61          6           0       17.752398    0.598998   -0.295751
     62          6           0       18.852567    1.261664    0.692284
     63          6           0       20.286708    1.272184    0.076457
     64          6           0       20.412108    1.993916   -1.293235
     65          6           0       21.175744    1.965038    1.047006
     66          1           0       -4.007350    3.531401    1.374649
     67          1           0      -10.084958    3.716528   -0.564612
     68          1           0      -10.311803   -2.367773   -1.287539
     69          1           0       -2.971561   -0.990391    2.179219
     70          1           0       -2.314694    1.647761    0.973429
     71          1           0       -1.950789    1.004354    3.685557
     72          1           0       -3.144686    2.404047    3.281778
     73          1           0       -3.760007    0.646523    3.790045
     74          1           0       -2.042743   -1.757863   -0.418814
     75          1           0       -2.038996   -0.127752   -0.606965
     76          1           0       -0.349420    0.596967    1.097664
     77          1           0       -0.136464   -1.151782    1.549744
     78          1           0       -5.069421    6.484399    0.529230
     79          1           0       -5.893968    6.714751    2.048175
     80          1           0       -4.677413    5.529709    2.088560
     81          1           0       -9.553785    5.749017    0.600755
     82          1           0       -8.834861    8.233779    0.204437
     83          1           0       -7.285801    7.484288   -0.148836
     84          1           0      -11.866996    3.112645   -2.481068
     85          1           0      -13.162831    2.119080   -2.077471
     86          1           0      -12.394194    3.017742   -0.555744
     87          1           0      -12.350014   -1.504735   -1.368870
     88          1           0      -13.352413   -0.054099   -1.751329
     89          1           0      -13.083786   -1.401578   -3.703140
     90          1           0      -12.023633    0.011082   -3.977558
     91          1           0      -11.163371   -1.448606   -3.752831
     92          1           0       -8.877374   -5.012203   -2.170386
     93          1           0       -8.170549   -5.817136   -0.667551
     94          1           0       -9.463313   -4.972152   -0.385368
     95          1           0       -3.482513   -3.443595   -0.266898
     96          1           0       -1.546006   -4.273569    3.540611
     97          1           0       -2.976345   -5.508298    3.747829
     98          1           0       -1.338341   -6.003722    2.553888
     99          1           0        2.797154   -1.571252   -1.535690
    100          1           0        2.662722    0.066207   -2.130337
    101          1           0        4.265654   -0.884047    0.464628
    102          1           0        4.066169    1.679923   -2.182803
    103          1           0        5.530406    2.254689   -1.806942
    104          1           0        5.581759    0.769047   -2.783941
    105          1           0        6.535354    1.595048    0.180786
    106          1           0        6.250475   -0.266899    0.795083
    107          1           0        7.134695   -1.218402   -1.141275
    108          1           0        7.957292    0.338432   -1.881348
    109          1           0        9.034338    0.753897    0.251807
    110          1           0        8.723375   -0.790891    0.957896
    111          1           0       10.286312    0.041510   -1.586853
    112          1           0        9.184879   -2.195491   -1.783122
    113          1           0       10.936682   -2.455956   -1.706976
    114          1           0        9.996425   -2.878682   -0.138374
    115          1           0       11.378139    0.573249    0.719634
    116          1           0       11.418495   -1.005300    0.923991
    117          1           0       12.889556   -1.495932   -1.165005
    118          1           0       12.799598    0.288390   -1.658687
    119          1           0       13.830106    0.947195    0.648949
    120          1           0       14.088598   -0.802037    1.126886
    121          1           0       14.952070    0.532954   -1.232549
    122          1           0       15.635864   -2.001923   -0.029130
    123          1           0       15.057941   -1.940076   -1.824081
    124          1           0       16.819897   -1.407357   -1.252955
    125          1           0       16.254604    1.513716    0.688653
    126          1           0       16.416421   -0.034441    1.262225
    127          1           0       18.186811   -0.547073   -0.387364
    128          1           0       17.843783    1.032991   -1.479974
    129          1           0       18.524663    2.291204    0.842722
    130          1           0       18.747231    0.873504    1.545869
    131          1           0       20.499376    0.140424   -0.077084
    132          1           0       19.984809    3.020837   -1.331009
    133          1           0       21.481925    2.076764   -1.597878
    134          1           0       19.844069    1.335017   -2.081724
    135          1           0       21.251554    1.464328    1.922375
    136          1           0       22.195692    2.116627    0.710491
    137          1           0       20.832668    2.988711    1.290555
 ---------------------------------------------------------------------

 SCF Done:  E(RCAM-B3LYP) =  -2932.56882686     A.U. after   18 cycles

 Excitation energies and oscillator strengths:

 Excited State   1:      Singlet-A      2.1762 eV  569.72 nm  f=0.1800  <S**2>=0.000
     240 -> 242       -0.19138
     240 -> 243       -0.25411
     241 -> 242        0.57898
     241 -> 243       -0.23812
 This state for optimization and/or second-order correction.
 Total Energy, E(TD-HF/TD-KS) =  -2932.48885137
 Copying the excited state density for this state as the 1-particle RhoCI density.

 The electronic state is 1-A.
 Alpha  occ. eigenvalues --  -46.83811 -19.25566 -19.24762 -19.23653 -19.21332
 Alpha  occ. eigenvalues --  -19.20473 -14.42134 -14.39330 -14.38712 -14.38640
 Alpha  occ. eigenvalues --  -10.39451 -10.38992 -10.34927 -10.33829 -10.31771
 Alpha  occ. eigenvalues --  -10.31083 -10.31053 -10.30472 -10.30064 -10.29590
 Alpha  occ. eigenvalues --  -10.29278 -10.28677 -10.28639 -10.28558 -10.28309
 Alpha  occ. eigenvalues --  -10.28245 -10.28079 -10.27950 -10.27885 -10.27838
 Alpha  occ. eigenvalues --  -10.27638 -10.27536 -10.27513 -10.27436 -10.27361
 Alpha  occ. eigenvalues --  -10.26996 -10.26938 -10.26891 -10.26878 -10.26859
 Alpha  occ. eigenvalues --  -10.26596 -10.26513 -10.26267 -10.26183 -10.26100
 Alpha  occ. eigenvalues --  -10.26070 -10.26020 -10.25966 -10.25514 -10.25480
 Alpha  occ. eigenvalues --  -10.25411 -10.25244 -10.25190 -10.25172 -10.25065
 Alpha  occ. eigenvalues --  -10.25012 -10.24785 -10.24760 -10.24571 -10.24507
 Alpha  occ. eigenvalues --  -10.24236 -10.24184 -10.23985 -10.23968 -10.23069
 Alpha  occ. eigenvalues --   -3.12888  -1.87594  -1.87156  -1.87031  -1.22074
 Alpha  occ. eigenvalues --   -1.18302  -1.13575  -1.12450  -1.09438  -1.07559
 Alpha  occ. eigenvalues --   -1.03147  -1.00851  -1.00382  -0.92912  -0.91296
 Alpha  occ. eigenvalues --   -0.91074  -0.90793  -0.90408  -0.89835  -0.89168
 Alpha  occ. eigenvalues --   -0.88476  -0.87905  -0.86565  -0.86266  -0.85679
 Alpha  occ. eigenvalues --   -0.84606  -0.84168  -0.83458  -0.82923  -0.82084
 Alpha  occ. eigenvalues --   -0.81414  -0.80621  -0.80343  -0.79264  -0.77915
 Alpha  occ. eigenvalues --   -0.77204  -0.76494  -0.76392  -0.75553  -0.75188
 Alpha  occ. eigenvalues --   -0.74913  -0.74721  -0.74121  -0.73603  -0.71959
 Alpha  occ. eigenvalues --   -0.71260  -0.71206  -0.70431  -0.69059  -0.68826
 Alpha  occ. eigenvalues --   -0.66728  -0.66379  -0.65788  -0.64648  -0.63876
 Alpha  occ. eigenvalues --   -0.63599  -0.63298  -0.62932  -0.62873  -0.62577
 Alpha  occ. eigenvalues --   -0.62083  -0.60688  -0.59909  -0.59868  -0.59375
 Alpha  occ. eigenvalues --   -0.58678  -0.58471  -0.57742  -0.57267  -0.56679
 Alpha  occ. eigenvalues --   -0.56435  -0.55731  -0.55428  -0.54999  -0.54937
 Alpha  occ. eigenvalues --   -0.54406  -0.54263  -0.54083  -0.53577  -0.53349
 Alpha  occ. eigenvalues --   -0.53087  -0.52854  -0.52353  -0.52201  -0.51797
 Alpha  occ. eigenvalues --   -0.51755  -0.51602  -0.51059  -0.50970  -0.50736
 Alpha  occ. eigenvalues --   -0.50621  -0.50255  -0.50003  -0.49908  -0.49439
 Alpha  occ. eigenvalues --   -0.49335  -0.49075  -0.48923  -0.48701  -0.48563
 Alpha  occ. eigenvalues --   -0.48414  -0.48261  -0.48172  -0.47655  -0.47422
 Alpha  occ. eigenvalues --   -0.47247  -0.47053  -0.46822  -0.46639  -0.46278
 Alpha  occ. eigenvalues --   -0.46002  -0.45933  -0.45633  -0.45305  -0.45174
 Alpha  occ. eigenvalues --   -0.44836  -0.44608  -0.44532  -0.44339  -0.44138
 Alpha  occ. eigenvalues --   -0.43926  -0.43874  -0.43602  -0.43371  -0.43053
 Alpha  occ. eigenvalues --   -0.42911  -0.42823  -0.42637  -0.42588  -0.42193
 Alpha  occ. eigenvalues --   -0.42149  -0.42030  -0.41789  -0.41554  -0.41291
 Alpha  occ. eigenvalues --   -0.41112  -0.41018  -0.40853  -0.40801  -0.40480
 Alpha  occ. eigenvalues --   -0.40428  -0.40100  -0.39117  -0.39044  -0.38783
 Alpha  occ. eigenvalues --   -0.38440  -0.38424  -0.37768  -0.37660  -0.37595
 Alpha  occ. eigenvalues --   -0.37452  -0.37235  -0.36971  -0.36709  -0.36556
 Alpha  occ. eigenvalues --   -0.36432  -0.36104  -0.35732  -0.35642  -0.35388
 Alpha  occ. eigenvalues --   -0.35231  -0.35105  -0.34449  -0.34416  -0.34013
 Alpha  occ. eigenvalues --   -0.33180  -0.32659  -0.32409  -0.30552  -0.29552
 Alpha  occ. eigenvalues --   -0.29206  -0.28380  -0.27284  -0.26858  -0.23240
 Alpha  occ. eigenvalues --   -0.20363
 Alpha virt. eigenvalues --   -0.04994  -0.03497   0.01553   0.04606   0.06296
 Alpha virt. eigenvalues --    0.06351   0.06729   0.07130   0.07260   0.07865
 Alpha virt. eigenvalues --    0.08260   0.10620   0.11258   0.11595   0.12148

 Mulliken charges:
               1
     1  Mg   0.807532
     2  C    0.067200
     3  C   -0.222974
     4  C   -0.105812
     5  C   -0.176177
     6  N   -0.567606
     7  C    0.273993
     8  C   -0.163838
     9  C   -0.154497
    10  C    0.326108
    11  C   -0.294304
    12  C   -0.174244
    13  C   -0.274075
    14  C    0.610946
    15  O   -0.443022
    16  O   -0.509180
    17  N   -0.709389
    18  C    0.374682
    19  C   -0.014663
    20  C   -0.009638
    21  C    0.271279
    22  C   -0.360224
    23  C   -0.051076
    24  C   -0.236107
    25  N   -0.701420
    26  C    0.344539
    27  C   -0.048548
    28  C    0.085300
    29  C    0.260709
    30  C   -0.369508
    31  C   -0.263529
    32  C   -0.290496
    33  N   -0.751052
    34  C    0.261949
    35  C    0.003945
    36  C   -0.042185
    37  C    0.283403
    38  C   -0.377688
    39  C    0.390681
    40  O   -0.415127
    41  C   -0.331977
    42  C    0.609347
    43  O   -0.369641
    44  O   -0.461145
    45  C   -0.071291
    46  C    0.021952
    47  C   -0.117088
    48  C    0.106050
    49  C   -0.359511
    50  C   -0.222900
    51  C   -0.180356
    52  C   -0.157609
    53  C   -0.075976
    54  C   -0.293607
    55  C   -0.170078
    56  C   -0.174277
    57  C   -0.160978
    58  C   -0.046847
    59  C   -0.297933
    60  C   -0.197673
    61  C   -0.171718
    62  C   -0.160138
    63  C   -0.053634
    64  C   -0.302210
    65  C   -0.307355
    66  H    0.074463
    67  H    0.048739
    68  H    0.097782
    69  H    0.142299
    70  H    0.096078
    71  H    0.130282
    72  H    0.092515
    73  H    0.106527
    74  H    0.131938
    75  H    0.133924
    76  H    0.141348
    77  H    0.135910
    78  H    0.123251
    79  H    0.133253
    80  H    0.120045
    81  H    0.097680
    82  H    0.082139
    83  H    0.105123
    84  H    0.122618
    85  H    0.094445
    86  H    0.132847
    87  H    0.105818
    88  H    0.107789
    89  H    0.112702
    90  H    0.128783
    91  H    0.040325
    92  H    0.102800
    93  H    0.143074
    94  H    0.128079
    95  H    0.167889
    96  H    0.100828
    97  H    0.109616
    98  H    0.095613
    99  H    0.129157
   100  H    0.115357
   101  H    0.079129
   102  H    0.105634
   103  H    0.096637
   104  H    0.135917
   105  H    0.095658
   106  H    0.097873
   107  H    0.105742
   108  H    0.064245
   109  H    0.106541
   110  H    0.085716
   111  H    0.081382
   112  H    0.070893
   113  H    0.120662
   114  H    0.095353
   115  H    0.087228
   116  H    0.094709
   117  H    0.087037
   118  H    0.059101
   119  H    0.105576
   120  H    0.070706
   121  H    0.093271
   122  H    0.104191
   123  H    0.086393
   124  H    0.111889
   125  H    0.080253
   126  H    0.080051
   127  H    0.055911
   128  H    0.067403
   129  H    0.083986
   130  H    0.102284
   131  H    0.079163
   132  H    0.101938
   133  H    0.100245
   134  H    0.087707
   135  H    0.107217
   136  H    0.094766
   137  H    0.097265
 Sum of Mulliken charges =   0.00000

 Dipole moment (field-independent basis, Debye):
    X=              2.0475    Y=              5.4499    Z=              1.5839  Tot=              6.0335
 Quadrupole moment (field-independent basis, Debye-Ang):
   XX=           -358.5055   YY=           -398.0703   ZZ=           -394.3316
   XY=            -19.5194   XZ=             15.6522   YZ=             -1.2250

 Normal termination of Gaussian 09 at Sat Jun 29 02:32:58 2019.
