 Gaussian 09, Revision D.01,
 Gaussian 09:  ES64L-G09RevD.01 24-Apr-2013

 -------------------------------------
 # td=(NStates=1) CAM-B3LYP/6-31G(d,p)
 -------------------------------------

 --
 TD
 --
 Symbolic Z-matrix:
 Charge =  0 Multiplicity = 1

                         Standard orientation:
 ---------------------------------------------------------------------
 Center     Atomic      Atomic             Coordinates (Angstroms)
 Number     Number       Type             X           Y           Z
 ---------------------------------------------------------------------
      1         12           0       -7.132964    0.554738    0.166710
      2          6           0       -4.841777   -1.930779    0.533620
      3          6           0       -4.810601    2.805714    1.329181
      4          6           0       -9.512831    2.984750   -0.247602
      5          6           0       -9.530168   -1.745907   -0.740219
      6          7           0       -5.150963    0.468845    0.793560
      7          6           0       -4.366451   -0.782599    0.789493
      8          6           0       -2.915290   -0.361552    1.345665
      9          6           0       -3.043562    1.048755    1.709776
     10          6           0       -4.350100    1.515764    1.154560
     11          6           0       -2.892429    1.187282    3.326948
     12          6           0       -1.909707   -0.625395    0.135226
     13          6           0       -0.421965   -0.371539    0.560504
     14          6           0        0.531142   -0.615025   -0.647354
     15          8           0        0.197663   -1.051709   -1.747701
     16          8           0        1.718620   -0.295874   -0.271192
     17          7           0       -7.169172    2.561666    0.411488
     18          6           0       -6.097345    3.381389    0.892631
     19          6           0       -6.518932    4.691312    0.900694
     20          6           0       -7.780440    4.807203    0.456464
     21          6           0       -8.271467    3.449424    0.149659
     22          6           0       -5.603758    5.803324    1.195772
     23          6           0       -8.647437    5.935663    0.097763
     24          6           0       -8.315846    7.236748   -0.101685
     25          7           0       -9.142226    0.668997   -0.472576
     26          6           0       -9.900151    1.738908   -0.649748
     27          6           0      -11.289018    1.443371   -1.033217
     28          6           0      -11.292397    0.086311   -1.217071
     29          6           0       -9.988110   -0.470728   -0.789573
     30          6           0      -12.240618    2.567173   -1.254113
     31          6           0      -12.509554   -0.738400   -1.632293
     32          6           0      -12.488716   -1.151766   -3.064268
     33          7           0       -7.177442   -1.425273   -0.123379
     34          6           0       -8.241089   -2.294684   -0.410140
     35          6           0       -7.815957   -3.601050   -0.534073
     36          6           0       -6.411921   -3.478412   -0.133248
     37          6           0       -6.190817   -2.182497    0.068734
     38          6           0       -8.664389   -4.813831   -0.728181
     39          6           0       -5.261332   -4.273830    0.157642
     40          8           0       -5.112633   -5.469031    0.084110
     41          6           0       -4.150256   -3.342292    0.501435
     42          6           0       -3.426843   -3.646257    1.780778
     43          8           0       -3.606637   -3.094540    2.794325
     44          8           0       -2.635049   -4.736633    1.572744
     45          6           0       -2.052668   -5.277173    2.765034
     46          6           0        2.677749   -0.590232   -1.266252
     47          6           0        4.071994   -0.403390   -0.697053
     48          6           0        5.108884    0.355162   -1.112201
     49          6           0        5.158148    1.075366   -2.471402
     50          6           0        6.357686    0.431090   -0.286151
     51          6           0        7.592299   -0.110049   -1.020910
     52          6           0        8.992333   -0.069625   -0.200179
     53          6           0       10.240381   -0.513770   -0.964249
     54          6           0       10.148030   -1.958708   -1.287944
     55          6           0       11.403369   -0.304186   -0.053023
     56          6           0       12.796687   -0.565860   -0.767926
     57          6           0       13.948328   -0.086052    0.215081
     58          6           0       15.444750   -0.175433   -0.546813
     59          6           0       15.719449   -1.705184   -0.780345
     60          6           0       16.459619    0.462957    0.437063
     61          6           0       17.800775    0.463873   -0.099666
     62          6           0       18.918982    1.273001    0.869331
     63          6           0       20.286014    1.381908    0.373641
     64          6           0       20.387604    2.069892   -1.033524
     65          6           0       21.147841    2.088218    1.451856
     66          1           0       -4.091016    3.558172    1.607532
     67          1           0      -10.007722    3.996452   -0.396652
     68          1           0      -10.107874   -2.446401   -1.195754
     69          1           0       -2.618727   -0.976500    2.131691
     70          1           0       -2.274810    1.869812    1.299758
     71          1           0       -1.904690    1.029435    3.625339
     72          1           0       -3.135938    2.190240    3.469730
     73          1           0       -3.687000    0.581638    3.725997
     74          1           0       -2.195750   -1.604494   -0.237096
     75          1           0       -2.188025   -0.080084   -0.810829
     76          1           0       -0.205404    0.666587    1.039438
     77          1           0       -0.053786   -1.102940    1.217505
     78          1           0       -5.246496    6.373515    0.121697
     79          1           0       -6.095989    6.701325    1.887543
     80          1           0       -4.681689    5.622456    1.821245
     81          1           0       -9.732751    5.781436    0.020199
     82          1           0       -9.013007    8.020986   -0.233596
     83          1           0       -7.379101    7.620192   -0.100944
     84          1           0      -11.733918    3.148530   -2.097883
     85          1           0      -13.215933    2.130482   -1.680746
     86          1           0      -12.427024    3.227895   -0.337216
     87          1           0      -12.474216   -1.919910   -1.060352
     88          1           0      -13.490610   -0.386474   -1.155111
     89          1           0      -13.352321   -1.776817   -3.369099
     90          1           0      -12.440872   -0.351086   -3.846569
     91          1           0      -11.685963   -1.517241   -3.304166
     92          1           0       -9.149391   -4.851682   -1.767978
     93          1           0       -7.921845   -5.696670   -0.497216
     94          1           0       -9.497452   -4.830786    0.124214
     95          1           0       -3.403743   -3.215745   -0.420249
     96          1           0       -1.438080   -4.506532    3.257099
     97          1           0       -2.734245   -5.805467    3.534486
     98          1           0       -1.299923   -5.976849    2.530264
     99          1           0        2.594053   -1.577639   -1.562915
    100          1           0        2.438801    0.172566   -1.995289
    101          1           0        4.210216   -0.880873    0.303113
    102          1           0        4.054806    1.439313   -2.827909
    103          1           0        5.635598    2.151828   -2.158601
    104          1           0        5.693356    0.442882   -3.284734
    105          1           0        6.744383    1.460284    0.040469
    106          1           0        6.096825   -0.340962    0.515929
    107          1           0        7.371393   -1.125636   -0.957704
    108          1           0        7.768699    0.448719   -1.947373
    109          1           0        9.087186    1.074317    0.049060
    110          1           0        8.759548   -0.379460    0.796050
    111          1           0       10.215558    0.103725   -1.943671
    112          1           0        9.355944   -2.389309   -1.986292
    113          1           0       11.001392   -2.345637   -2.029109
    114          1           0       10.032590   -2.563890   -0.368533
    115          1           0       11.397816    0.840689    0.154993
    116          1           0       11.464128   -0.954212    0.892197
    117          1           0       12.799733   -1.715702   -1.007963
    118          1           0       12.809538    0.061628   -1.811336
    119          1           0       13.615791    0.947096    0.428651
    120          1           0       13.818471   -0.861976    0.981702
    121          1           0       15.574269    0.344222   -1.520584
    122          1           0       15.493536   -2.369580    0.101558
    123          1           0       15.070404   -2.049751   -1.458972
    124          1           0       16.694528   -1.836298   -1.182179
    125          1           0       16.107127    1.511586    0.740462
    126          1           0       16.500461   -0.068901    1.323446
    127          1           0       18.156311   -0.442870   -0.329255
    128          1           0       17.864418    0.768626   -1.008769
    129          1           0       18.239894    2.285662    0.772122
    130          1           0       18.706667    0.973543    1.783901
    131          1           0       20.917692    0.356473    0.423848
    132          1           0       20.008442    3.129115   -1.106533
    133          1           0       21.404028    2.122999   -1.284076
    134          1           0       19.988255    1.172598   -1.818270
    135          1           0       21.080525    1.474639    2.329329
    136          1           0       22.161926    1.997502    1.109863
    137          1           0       20.900758    3.164883    1.649846
 ---------------------------------------------------------------------

 SCF Done:  E(RCAM-B3LYP) =  -2932.63673101     A.U. after   17 cycles

 Excitation energies and oscillator strengths:

 Excited State   1:      Singlet-A      2.1117 eV  587.14 nm  f=0.2443  <S**2>=0.000
     240 -> 242        0.21344
     240 -> 243       -0.17255
     241 -> 242        0.63357
 This state for optimization and/or second-order correction.
 Total Energy, E(TD-HF/TD-KS) =  -2932.55912905
 Copying the excited state density for this state as the 1-particle RhoCI density.

 The electronic state is 1-A.
 Alpha  occ. eigenvalues --  -46.83240 -19.27255 -19.25783 -19.21269 -19.20132
 Alpha  occ. eigenvalues --  -19.17926 -14.40829 -14.40153 -14.39072 -14.37899
 Alpha  occ. eigenvalues --  -10.38680 -10.38665 -10.32556 -10.31348 -10.31109
 Alpha  occ. eigenvalues --  -10.30895 -10.30724 -10.30306 -10.29717 -10.29442
 Alpha  occ. eigenvalues --  -10.29427 -10.29120 -10.28935 -10.28747 -10.28552
 Alpha  occ. eigenvalues --  -10.28307 -10.28085 -10.27917 -10.27888 -10.27842
 Alpha  occ. eigenvalues --  -10.27651 -10.27580 -10.27493 -10.27370 -10.27295
 Alpha  occ. eigenvalues --  -10.27191 -10.27023 -10.27020 -10.26958 -10.26867
 Alpha  occ. eigenvalues --  -10.26850 -10.26734 -10.26654 -10.26604 -10.26371
 Alpha  occ. eigenvalues --  -10.26288 -10.26286 -10.26231 -10.26138 -10.26113
 Alpha  occ. eigenvalues --  -10.26107 -10.26054 -10.26052 -10.25637 -10.25570
 Alpha  occ. eigenvalues --  -10.25201 -10.24952 -10.24707 -10.24680 -10.23909
 Alpha  occ. eigenvalues --  -10.23864 -10.23512 -10.23294 -10.22525 -10.21499
 Alpha  occ. eigenvalues --   -3.12361  -1.87073  -1.86598  -1.86544  -1.21315
 Alpha  occ. eigenvalues --   -1.18657  -1.10727  -1.09768  -1.08655  -1.05369
 Alpha  occ. eigenvalues --   -1.03196  -1.01829  -1.00702  -0.92363  -0.91288
 Alpha  occ. eigenvalues --   -0.90206  -0.89689  -0.89650  -0.89153  -0.88577
 Alpha  occ. eigenvalues --   -0.88505  -0.87498  -0.87234  -0.87021  -0.86210
 Alpha  occ. eigenvalues --   -0.84992  -0.84080  -0.83867  -0.83196  -0.82718
 Alpha  occ. eigenvalues --   -0.81497  -0.80973  -0.80671  -0.79535  -0.78214
 Alpha  occ. eigenvalues --   -0.77401  -0.77163  -0.76063  -0.75530  -0.75240
 Alpha  occ. eigenvalues --   -0.75047  -0.74611  -0.74197  -0.73226  -0.72843
 Alpha  occ. eigenvalues --   -0.71677  -0.70686  -0.70017  -0.69503  -0.68732
 Alpha  occ. eigenvalues --   -0.67397  -0.66618  -0.65352  -0.64697  -0.64363
 Alpha  occ. eigenvalues --   -0.64044  -0.63507  -0.63028  -0.62111  -0.61641
 Alpha  occ. eigenvalues --   -0.61591  -0.60699  -0.60319  -0.59886  -0.58706
 Alpha  occ. eigenvalues --   -0.58542  -0.58407  -0.57922  -0.57134  -0.56995
 Alpha  occ. eigenvalues --   -0.55899  -0.55644  -0.55268  -0.55149  -0.54556
 Alpha  occ. eigenvalues --   -0.54365  -0.53935  -0.53817  -0.53454  -0.52811
 Alpha  occ. eigenvalues --   -0.52599  -0.52437  -0.52342  -0.51996  -0.51603
 Alpha  occ. eigenvalues --   -0.51147  -0.50990  -0.50726  -0.50672  -0.50635
 Alpha  occ. eigenvalues --   -0.50167  -0.49898  -0.49555  -0.49295  -0.49096
 Alpha  occ. eigenvalues --   -0.49027  -0.48799  -0.48418  -0.48265  -0.48031
 Alpha  occ. eigenvalues --   -0.47936  -0.47650  -0.47548  -0.47395  -0.47212
 Alpha  occ. eigenvalues --   -0.46907  -0.46854  -0.46596  -0.46396  -0.45863
 Alpha  occ. eigenvalues --   -0.45618  -0.45582  -0.45556  -0.45448  -0.45201
 Alpha  occ. eigenvalues --   -0.45192  -0.44938  -0.44719  -0.44427  -0.44292
 Alpha  occ. eigenvalues --   -0.43978  -0.43495  -0.43281  -0.43125  -0.42991
 Alpha  occ. eigenvalues --   -0.42877  -0.42816  -0.42268  -0.42194  -0.41759
 Alpha  occ. eigenvalues --   -0.41734  -0.41480  -0.41083  -0.40840  -0.40726
 Alpha  occ. eigenvalues --   -0.40638  -0.40492  -0.40389  -0.40317  -0.39924
 Alpha  occ. eigenvalues --   -0.39766  -0.39519  -0.39325  -0.38973  -0.38908
 Alpha  occ. eigenvalues --   -0.38515  -0.38264  -0.38234  -0.38157  -0.37739
 Alpha  occ. eigenvalues --   -0.37398  -0.37106  -0.36835  -0.36715  -0.36652
 Alpha  occ. eigenvalues --   -0.36481  -0.36200  -0.36058  -0.35762  -0.35719
 Alpha  occ. eigenvalues --   -0.35464  -0.35184  -0.34027  -0.33612  -0.33378
 Alpha  occ. eigenvalues --   -0.32659  -0.32003  -0.31490  -0.31027  -0.29894
 Alpha  occ. eigenvalues --   -0.29233  -0.28728  -0.28029  -0.27831  -0.23309
 Alpha  occ. eigenvalues --   -0.22494
 Alpha virt. eigenvalues --   -0.07607  -0.02303   0.02938   0.04099   0.05826
 Alpha virt. eigenvalues --    0.06460   0.06810   0.07016   0.07465   0.07768
 Alpha virt. eigenvalues --    0.08628   0.10538   0.10986   0.11347   0.11486

 Mulliken charges:
               1
     1  Mg   0.798870
     2  C    0.092242
     3  C   -0.206046
     4  C   -0.138446
     5  C   -0.162503
     6  N   -0.644190
     7  C    0.205412
     8  C   -0.124537
     9  C   -0.152087
    10  C    0.373534
    11  C   -0.308211
    12  C   -0.180345
    13  C   -0.264416
    14  C    0.595048
    15  O   -0.500727
    16  O   -0.429011
    17  N   -0.713805
    18  C    0.311241
    19  C    0.044595
    20  C    0.070879
    21  C    0.240875
    22  C   -0.379564
    23  C   -0.100718
    24  C   -0.238720
    25  N   -0.655017
    26  C    0.315924
    27  C    0.050861
    28  C    0.021797
    29  C    0.275625
    30  C   -0.368193
    31  C   -0.235540
    32  C   -0.286458
    33  N   -0.738318
    34  C    0.212152
    35  C    0.041844
    36  C   -0.031019
    37  C    0.371684
    38  C   -0.378145
    39  C    0.349864
    40  O   -0.477197
    41  C   -0.316999
    42  C    0.639703
    43  O   -0.435066
    44  O   -0.455774
    45  C   -0.087018
    46  C    0.025038
    47  C   -0.164756
    48  C    0.145756
    49  C   -0.351614
    50  C   -0.238403
    51  C   -0.176893
    52  C   -0.193048
    53  C   -0.033658
    54  C   -0.306586
    55  C   -0.160491
    56  C   -0.193285
    57  C   -0.171034
    58  C   -0.074423
    59  C   -0.318791
    60  C   -0.152373
    61  C   -0.200254
    62  C   -0.144522
    63  C   -0.057977
    64  C   -0.296259
    65  C   -0.309668
    66  H    0.072217
    67  H    0.071215
    68  H    0.089506
    69  H    0.126320
    70  H    0.082670
    71  H    0.118939
    72  H    0.108739
    73  H    0.134675
    74  H    0.106398
    75  H    0.114738
    76  H    0.123574
    77  H    0.139861
    78  H    0.101650
    79  H    0.101553
    80  H    0.120370
    81  H    0.104217
    82  H    0.106782
    83  H    0.106306
    84  H    0.128549
    85  H    0.110498
    86  H    0.126088
    87  H    0.057075
    88  H    0.110484
    89  H    0.104815
    90  H    0.089442
    91  H    0.125209
    92  H    0.116506
    93  H    0.145905
    94  H    0.113426
    95  H    0.167382
    96  H    0.114279
    97  H    0.121952
    98  H    0.125928
    99  H    0.143327
   100  H    0.122225
   101  H    0.084549
   102  H    0.096000
   103  H    0.095708
   104  H    0.133444
   105  H    0.096249
   106  H    0.088598
   107  H    0.111892
   108  H    0.096741
   109  H    0.059547
   110  H    0.096990
   111  H    0.087024
   112  H    0.095039
   113  H    0.085607
   114  H    0.101371
   115  H    0.080759
   116  H    0.091727
   117  H    0.087557
   118  H    0.063067
   119  H    0.096369
   120  H    0.100287
   121  H    0.085771
   122  H    0.092317
   123  H    0.117378
   124  H    0.102031
   125  H    0.071221
   126  H    0.095787
   127  H    0.090124
   128  H    0.092334
   129  H    0.063206
   130  H    0.096689
   131  H    0.068607
   132  H    0.109759
   133  H    0.109189
   134  H    0.077134
   135  H    0.104216
   136  H    0.096771
   137  H    0.095284
 Sum of Mulliken charges =   0.00000

 Dipole moment (field-independent basis, Debye):
    X=              1.3406    Y=              6.0576    Z=              0.3608  Tot=              6.2147
 Quadrupole moment (field-independent basis, Debye-Ang):
   XX=           -326.9973   YY=           -390.9535   ZZ=           -396.5336
   XY=            -42.4519   XZ=              9.5112   YZ=             -5.7245

 Normal termination of Gaussian 09 at Mon Jul  1 04:08:07 2019.
