 Gaussian 09, Revision D.01,
 Gaussian 09:  ES64L-G09RevD.01 24-Apr-2013

 -------------------------------------
 # td=(NStates=1) CAM-B3LYP/6-31G(d,p)
 -------------------------------------

 --
 TD
 --
 Symbolic Z-matrix:
 Charge =  0 Multiplicity = 1

                         Standard orientation:
 ---------------------------------------------------------------------
 Center     Atomic      Atomic             Coordinates (Angstroms)
 Number     Number       Type             X           Y           Z
 ---------------------------------------------------------------------
      1         12           0       -7.167424    0.614652    0.181088
      2          6           0       -4.804355   -2.032684    0.540028
      3          6           0       -4.742984    2.844142    1.117476
      4          6           0       -9.389974    3.171208   -0.358615
      5          6           0       -9.492271   -1.608635   -0.825266
      6          7           0       -5.175457    0.392569    0.813873
      7          6           0       -4.367113   -0.762151    0.842482
      8          6           0       -2.830803   -0.496094    1.231820
      9          6           0       -2.960816    1.034674    1.636186
     10          6           0       -4.431730    1.455489    1.273071
     11          6           0       -2.848327    1.277335    3.191859
     12          6           0       -1.897487   -0.787855    0.093498
     13          6           0       -0.398275   -0.561768    0.488593
     14          6           0        0.555830   -0.753348   -0.660545
     15          8           0        0.250222   -1.081526   -1.755509
     16          8           0        1.782480   -0.574749   -0.268751
     17          7           0       -7.084475    2.664017    0.347618
     18          6           0       -5.934832    3.332789    0.739901
     19          6           0       -6.288155    4.772582    0.830842
     20          6           0       -7.623708    4.879052    0.380422
     21          6           0       -8.125259    3.632798    0.127564
     22          6           0       -5.471510    5.875356    1.416900
     23          6           0       -8.494526    5.981471    0.329863
     24          6           0       -8.147574    7.287550    0.058236
     25          7           0       -9.035224    0.698103   -0.501496
     26          6           0       -9.822227    1.947736   -0.629469
     27          6           0      -11.132747    1.544586   -1.065159
     28          6           0      -11.247732    0.227559   -1.211100
     29          6           0       -9.976863   -0.275879   -0.866123
     30          6           0      -12.213162    2.574949   -1.456598
     31          6           0      -12.432153   -0.639806   -1.567471
     32          6           0      -12.437307   -0.947559   -3.006145
     33          7           0       -7.230997   -1.333530   -0.059918
     34          6           0       -8.267806   -2.179862   -0.513396
     35          6           0       -7.838930   -3.568967   -0.507266
     36          6           0       -6.534036   -3.575516   -0.285843
     37          6           0       -6.196440   -2.252760    0.041514
     38          6           0       -8.650078   -4.755244   -0.859917
     39          6           0       -5.385489   -4.430727    0.127839
     40          8           0       -5.315512   -5.631110    0.258862
     41          6           0       -4.214909   -3.357644    0.497088
     42          6           0       -3.540671   -3.704708    1.762666
     43          8           0       -3.741594   -3.280952    2.881748
     44          8           0       -2.718335   -4.734328    1.583365
     45          6           0       -2.179057   -5.274614    2.791648
     46          6           0        2.826189   -0.747762   -1.231119
     47          6           0        4.164554   -0.622348   -0.598543
     48          6           0        5.084381    0.259691   -0.938413
     49          6           0        4.986471    1.332331   -2.147077
     50          6           0        6.384663    0.337873   -0.170713
     51          6           0        7.526143   -0.215669   -1.023647
     52          6           0        8.868312   -0.110368   -0.257555
     53          6           0       10.194403   -0.641146   -1.010046
     54          6           0       10.163530   -2.170218   -1.337533
     55          6           0       11.377009   -0.256438   -0.102659
     56          6           0       12.738217   -0.529443   -0.776541
     57          6           0       13.890601   -0.134392    0.233953
     58          6           0       15.279201   -0.275894   -0.494999
     59          6           0       15.648095   -1.649365   -0.822596
     60          6           0       16.420753    0.330568    0.384668
     61          6           0       17.767946    0.589589   -0.206206
     62          6           0       18.739680    1.262976    0.853226
     63          6           0       20.181190    1.493562    0.332439
     64          6           0       20.334927    2.226350   -0.956470
     65          6           0       21.066074    2.157007    1.371246
     66          1           0       -3.890740    3.450410    1.547020
     67          1           0       -9.960613    4.061678   -0.628766
     68          1           0      -10.376569   -2.362057   -0.871829
     69          1           0       -2.564696   -0.879550    2.136723
     70          1           0       -2.430510    1.714055    1.203687
     71          1           0       -1.928733    0.883544    3.598550
     72          1           0       -3.179286    2.243486    3.381108
     73          1           0       -3.659945    0.640255    3.645069
     74          1           0       -1.989529   -1.984903   -0.302694
     75          1           0       -2.016693   -0.191145   -0.730250
     76          1           0       -0.186474    0.500701    0.770614
     77          1           0       -0.039259   -1.030413    1.381028
     78          1           0       -4.658396    6.280504    0.597188
     79          1           0       -5.842591    6.665162    1.760862
     80          1           0       -4.774990    5.422230    2.231731
     81          1           0       -9.716849    5.869272    0.092533
     82          1           0       -8.801939    7.981345    0.343349
     83          1           0       -6.980936    7.665421    0.019099
     84          1           0      -12.009961    3.071597   -2.463210
     85          1           0      -13.110180    2.211121   -1.387982
     86          1           0      -12.388771    3.402918   -0.713747
     87          1           0      -12.526548   -1.517109   -0.831595
     88          1           0      -13.510852   -0.129593   -1.243390
     89          1           0      -13.172796   -1.559187   -3.059774
     90          1           0      -12.546009   -0.055426   -3.571024
     91          1           0      -11.606243   -1.738610   -3.363484
     92          1           0       -9.123547   -4.638202   -1.932373
     93          1           0       -8.216096   -5.837465   -0.802340
     94          1           0       -9.496304   -4.845086   -0.086093
     95          1           0       -3.501032   -3.457624   -0.198183
     96          1           0       -1.572634   -4.527084    3.332803
     97          1           0       -2.990277   -5.712522    3.402497
     98          1           0       -1.578279   -6.142893    2.633894
     99          1           0        2.767642   -1.730579   -1.659455
    100          1           0        2.641133    0.121621   -2.150076
    101          1           0        4.286028   -1.182450    0.262271
    102          1           0        4.048652    1.658785   -2.547398
    103          1           0        5.480163    2.075886   -1.640232
    104          1           0        5.312170    0.898838   -3.057229
    105          1           0        6.676452    1.267158    0.175251
    106          1           0        6.376653   -0.310560    0.718609
    107          1           0        7.291143   -1.357313   -1.124318
    108          1           0        7.517720    0.604572   -1.843818
    109          1           0        8.840649    0.874333    0.082471
    110          1           0        8.809149   -0.730382    0.717927
    111          1           0       10.464421    0.068750   -1.882218
    112          1           0        9.194707   -2.368574   -1.806104
    113          1           0       11.058501   -2.422796   -2.003856
    114          1           0       10.089390   -2.834143   -0.552361
    115          1           0       11.282307    0.976077   -0.015424
    116          1           0       11.284788   -0.669002    0.727603
    117          1           0       12.773553   -1.557852   -1.217937
    118          1           0       12.742728   -0.156313   -1.893684
    119          1           0       13.724018    0.949588    0.457509
    120          1           0       13.753611   -0.738996    1.107375
    121          1           0       15.171831    0.252767   -1.502377
    122          1           0       15.335158   -2.250733    0.119958
    123          1           0       15.155331   -2.094286   -1.727239
    124          1           0       16.758473   -1.908104   -1.086177
    125          1           0       16.063757    1.339055    0.614180
    126          1           0       16.519459   -0.135625    1.394164
    127          1           0       18.103144   -0.450421   -0.580973
    128          1           0       17.695200    1.338352   -1.147286
    129          1           0       18.455520    2.331458    1.089835
    130          1           0       19.000589    0.692148    1.850359
    131          1           0       20.794925    0.514299    0.259601
    132          1           0       19.945624    3.344950   -1.084440
    133          1           0       21.405797    2.524509   -1.123116
    134          1           0       19.754317    1.791694   -1.643088
    135          1           0       21.144234    1.513838    2.294837
    136          1           0       22.067128    2.163107    1.050162
    137          1           0       20.923101    3.176739    1.656371
 ---------------------------------------------------------------------

 SCF Done:  E(RCAM-B3LYP) =  -2932.61776908     A.U. after   18 cycles

 Excitation energies and oscillator strengths:

 Excited State   1:      Singlet-A      1.8778 eV  660.25 nm  f=0.2972  <S**2>=0.000
     240 -> 243        0.19996
     241 -> 242        0.66808
 This state for optimization and/or second-order correction.
 Total Energy, E(TD-HF/TD-KS) =  -2932.54875977
 Copying the excited state density for this state as the 1-particle RhoCI density.

 The electronic state is 1-A.
 Alpha  occ. eigenvalues --  -46.82660 -19.26239 -19.25988 -19.22187 -19.19942
 Alpha  occ. eigenvalues --  -19.19932 -14.42142 -14.39718 -14.39204 -14.38598
 Alpha  occ. eigenvalues --  -10.38315 -10.38137 -10.37008 -10.32798 -10.31293
 Alpha  occ. eigenvalues --  -10.31196 -10.30602 -10.29570 -10.29556 -10.29480
 Alpha  occ. eigenvalues --  -10.29057 -10.28619 -10.28589 -10.28516 -10.28398
 Alpha  occ. eigenvalues --  -10.28115 -10.28102 -10.27889 -10.27863 -10.27714
 Alpha  occ. eigenvalues --  -10.27589 -10.27438 -10.27303 -10.27177 -10.27107
 Alpha  occ. eigenvalues --  -10.26991 -10.26981 -10.26733 -10.26707 -10.26625
 Alpha  occ. eigenvalues --  -10.26491 -10.26430 -10.26246 -10.26131 -10.26130
 Alpha  occ. eigenvalues --  -10.25998 -10.25983 -10.25909 -10.25850 -10.25799
 Alpha  occ. eigenvalues --  -10.25730 -10.25681 -10.25516 -10.25477 -10.25332
 Alpha  occ. eigenvalues --  -10.25323 -10.25312 -10.25288 -10.24966 -10.24950
 Alpha  occ. eigenvalues --  -10.24541 -10.24454 -10.24407 -10.23976 -10.23326
 Alpha  occ. eigenvalues --   -3.11962  -1.86643  -1.86213  -1.86164  -1.20243
 Alpha  occ. eigenvalues --   -1.18900  -1.12644  -1.10189  -1.08315  -1.03645
 Alpha  occ. eigenvalues --   -1.02012  -1.01335  -1.00445  -0.93090  -0.91481
 Alpha  occ. eigenvalues --   -0.90273  -0.89877  -0.89525  -0.89147  -0.88974
 Alpha  occ. eigenvalues --   -0.88517  -0.88244  -0.87928  -0.86863  -0.86367
 Alpha  occ. eigenvalues --   -0.85311  -0.84182  -0.83977  -0.83152  -0.82786
 Alpha  occ. eigenvalues --   -0.81700  -0.81172  -0.80646  -0.79948  -0.78624
 Alpha  occ. eigenvalues --   -0.78421  -0.77700  -0.76957  -0.76505  -0.76094
 Alpha  occ. eigenvalues --   -0.75383  -0.74866  -0.74489  -0.73680  -0.72634
 Alpha  occ. eigenvalues --   -0.71848  -0.70468  -0.69487  -0.69064  -0.68673
 Alpha  occ. eigenvalues --   -0.66936  -0.65998  -0.65794  -0.65092  -0.64892
 Alpha  occ. eigenvalues --   -0.63784  -0.63365  -0.63069  -0.61772  -0.61580
 Alpha  occ. eigenvalues --   -0.61351  -0.61123  -0.60699  -0.59668  -0.59410
 Alpha  occ. eigenvalues --   -0.58491  -0.58066  -0.57745  -0.57481  -0.57216
 Alpha  occ. eigenvalues --   -0.56742  -0.56148  -0.55807  -0.55357  -0.54730
 Alpha  occ. eigenvalues --   -0.54235  -0.54171  -0.54143  -0.53841  -0.53561
 Alpha  occ. eigenvalues --   -0.52797  -0.52563  -0.52244  -0.52069  -0.51993
 Alpha  occ. eigenvalues --   -0.51769  -0.51692  -0.51233  -0.51049  -0.50806
 Alpha  occ. eigenvalues --   -0.50683  -0.50587  -0.50052  -0.49998  -0.49568
 Alpha  occ. eigenvalues --   -0.49377  -0.49170  -0.48999  -0.48922  -0.48714
 Alpha  occ. eigenvalues --   -0.48394  -0.48142  -0.47829  -0.47526  -0.47317
 Alpha  occ. eigenvalues --   -0.46993  -0.46577  -0.46304  -0.45926  -0.45545
 Alpha  occ. eigenvalues --   -0.45475  -0.45307  -0.45073  -0.44930  -0.44723
 Alpha  occ. eigenvalues --   -0.44508  -0.44425  -0.44242  -0.44106  -0.44049
 Alpha  occ. eigenvalues --   -0.43813  -0.43591  -0.43470  -0.43255  -0.43240
 Alpha  occ. eigenvalues --   -0.42994  -0.42895  -0.42557  -0.42322  -0.42007
 Alpha  occ. eigenvalues --   -0.41951  -0.41843  -0.41390  -0.41352  -0.41248
 Alpha  occ. eigenvalues --   -0.41007  -0.40809  -0.40632  -0.40587  -0.40254
 Alpha  occ. eigenvalues --   -0.39983  -0.39702  -0.39468  -0.39184  -0.38950
 Alpha  occ. eigenvalues --   -0.38576  -0.38352  -0.37967  -0.37834  -0.37637
 Alpha  occ. eigenvalues --   -0.37625  -0.37466  -0.37206  -0.37021  -0.36712
 Alpha  occ. eigenvalues --   -0.36244  -0.36108  -0.36010  -0.35933  -0.35775
 Alpha  occ. eigenvalues --   -0.35135  -0.34828  -0.34655  -0.33705  -0.33465
 Alpha  occ. eigenvalues --   -0.33353  -0.33126  -0.32071  -0.31436  -0.30968
 Alpha  occ. eigenvalues --   -0.30327  -0.30147  -0.28731  -0.25815  -0.23750
 Alpha  occ. eigenvalues --   -0.20547
 Alpha virt. eigenvalues --   -0.07032  -0.02939   0.01239   0.03332   0.05792
 Alpha virt. eigenvalues --    0.06540   0.06736   0.06944   0.07479   0.08196
 Alpha virt. eigenvalues --    0.08388   0.10656   0.11216   0.11287   0.12183

 Mulliken charges:
               1
     1  Mg   0.804634
     2  C    0.120501
     3  C   -0.203644
     4  C   -0.181338
     5  C   -0.219800
     6  N   -0.619768
     7  C    0.246421
     8  C   -0.114665
     9  C   -0.146931
    10  C    0.307251
    11  C   -0.326127
    12  C   -0.144058
    13  C   -0.291010
    14  C    0.601871
    15  O   -0.470733
    16  O   -0.452528
    17  N   -0.728059
    18  C    0.362124
    19  C    0.007629
    20  C    0.061726
    21  C    0.265847
    22  C   -0.344252
    23  C   -0.126498
    24  C   -0.238152
    25  N   -0.693273
    26  C    0.319672
    27  C   -0.019707
    28  C    0.108026
    29  C    0.281764
    30  C   -0.359218
    31  C   -0.257674
    32  C   -0.280359
    33  N   -0.689611
    34  C    0.288474
    35  C    0.056117
    36  C    0.017316
    37  C    0.219053
    38  C   -0.388103
    39  C    0.396315
    40  O   -0.434765
    41  C   -0.336359
    42  C    0.620543
    43  O   -0.488458
    44  O   -0.449448
    45  C   -0.080611
    46  C    0.027840
    47  C   -0.137825
    48  C    0.111488
    49  C   -0.360610
    50  C   -0.250803
    51  C   -0.172564
    52  C   -0.174146
    53  C   -0.065362
    54  C   -0.320938
    55  C   -0.128304
    56  C   -0.202355
    57  C   -0.168875
    58  C   -0.058842
    59  C   -0.291169
    60  C   -0.169511
    61  C   -0.173481
    62  C   -0.155307
    63  C   -0.054259
    64  C   -0.297531
    65  C   -0.323662
    66  H    0.090366
    67  H    0.089437
    68  H    0.079328
    69  H    0.130401
    70  H    0.104449
    71  H    0.111811
    72  H    0.116662
    73  H    0.119966
    74  H    0.086785
    75  H    0.133748
    76  H    0.127714
    77  H    0.136448
    78  H    0.090457
    79  H    0.128408
    80  H    0.097057
    81  H    0.085708
    82  H    0.107340
    83  H    0.078030
    84  H    0.119940
    85  H    0.117722
    86  H    0.102775
    87  H    0.107342
    88  H    0.082363
    89  H    0.119835
    90  H    0.124696
    91  H    0.091082
    92  H    0.118400
    93  H    0.141416
    94  H    0.117421
    95  H    0.165050
    96  H    0.122846
    97  H    0.129766
    98  H    0.121327
    99  H    0.130677
   100  H    0.084104
   101  H    0.091652
   102  H    0.115260
   103  H    0.123031
   104  H    0.137276
   105  H    0.104778
   106  H    0.096771
   107  H    0.094707
   108  H    0.097168
   109  H    0.093085
   110  H    0.069907
   111  H    0.079509
   112  H    0.104439
   113  H    0.101861
   114  H    0.114452
   115  H    0.055874
   116  H    0.094269
   117  H    0.091237
   118  H    0.070364
   119  H    0.100006
   120  H    0.103301
   121  H    0.079706
   122  H    0.085973
   123  H    0.093524
   124  H    0.089826
   125  H    0.085962
   126  H    0.089796
   127  H    0.085478
   128  H    0.079848
   129  H    0.096184
   130  H    0.082565
   131  H    0.079532
   132  H    0.066563
   133  H    0.100045
   134  H    0.112475
   135  H    0.083157
   136  H    0.104033
   137  H    0.101591
 Sum of Mulliken charges =   0.00000

 Dipole moment (field-independent basis, Debye):
    X=              1.4000    Y=              2.3174    Z=              0.5579  Tot=              2.7643
 Quadrupole moment (field-independent basis, Debye-Ang):
   XX=           -339.4439   YY=           -393.9083   ZZ=           -400.4244
   XY=             -7.0619   XZ=             13.5502   YZ=              0.1106

 Normal termination of Gaussian 09 at Fri Jun 28 20:06:49 2019.
