 Gaussian 09, Revision D.01,
 Gaussian 09:  ES64L-G09RevD.01 24-Apr-2013

 -------------------------------------
 # td=(NStates=1) CAM-B3LYP/6-31G(d,p)
 -------------------------------------

 --
 TD
 --
 Symbolic Z-matrix:
 Charge =  0 Multiplicity = 1

                         Standard orientation:
 ---------------------------------------------------------------------
 Center     Atomic      Atomic             Coordinates (Angstroms)
 Number     Number       Type             X           Y           Z
 ---------------------------------------------------------------------
      1         12           0       -7.141737    0.544136    0.051472
      2          6           0       -4.904283   -1.968230    0.527634
      3          6           0       -4.839011    2.774903    1.037023
      4          6           0       -9.405266    3.108584   -0.385320
      5          6           0       -9.438891   -1.730707   -0.962804
      6          7           0       -5.037871    0.459785    0.697264
      7          6           0       -4.319854   -0.690145    0.764327
      8          6           0       -2.877112   -0.291373    1.269288
      9          6           0       -3.067809    1.192648    1.523654
     10          6           0       -4.419134    1.534620    1.034141
     11          6           0       -2.962306    1.448061    3.053464
     12          6           0       -1.931628   -0.581644    0.104691
     13          6           0       -0.531312   -0.305851    0.510597
     14          6           0        0.491640   -0.699782   -0.570744
     15          8           0        0.312934   -1.131491   -1.647288
     16          8           0        1.754815   -0.417109   -0.101468
     17          7           0       -7.158007    2.564275    0.380665
     18          6           0       -6.076404    3.339936    0.671130
     19          6           0       -6.366614    4.740991    0.840248
     20          6           0       -7.743453    4.837554    0.510604
     21          6           0       -8.158991    3.479146    0.197793
     22          6           0       -5.504341    5.824183    1.405697
     23          6           0       -8.569381    5.994792    0.306976
     24          6           0       -8.137348    7.262420    0.154837
     25          7           0       -9.079050    0.615317   -0.438097
     26          6           0       -9.850835    1.788490   -0.624205
     27          6           0      -11.150948    1.432062   -1.115334
     28          6           0      -11.213488   -0.012801   -1.239059
     29          6           0       -9.878524   -0.458381   -0.837814
     30          6           0      -12.202215    2.464659   -1.494792
     31          6           0      -12.369723   -0.827495   -1.734790
     32          6           0      -11.971101   -1.221200   -3.281478
     33          7           0       -7.276593   -1.480687   -0.099150
     34          6           0       -8.205676   -2.302842   -0.532816
     35          6           0       -7.771219   -3.641492   -0.575924
     36          6           0       -6.464542   -3.588715   -0.165655
     37          6           0       -6.211302   -2.211722    0.254725
     38          6           0       -8.640371   -4.900651   -0.963622
     39          6           0       -5.291587   -4.397688    0.245981
     40          8           0       -5.073222   -5.601952    0.232177
     41          6           0       -4.151250   -3.250292    0.619867
     42          6           0       -3.526312   -3.594888    1.906112
     43          8           0       -3.751860   -3.019852    2.923796
     44          8           0       -2.755717   -4.697036    1.877406
     45          6           0       -2.262120   -5.288026    3.048542
     46          6           0        2.732780   -0.461384   -1.150791
     47          6           0        4.087281   -0.508399   -0.539571
     48          6           0        5.056817    0.354905   -0.939935
     49          6           0        4.922372    1.298491   -1.977153
     50          6           0        6.355833    0.414737   -0.156556
     51          6           0        7.535119   -0.110566   -0.973287
     52          6           0        9.000457    0.136186   -0.102000
     53          6           0       10.137131   -0.360535   -0.915756
     54          6           0       10.006394   -1.852262   -1.330310
     55          6           0       11.388645   -0.147172   -0.081173
     56          6           0       12.723893   -0.315102   -0.757048
     57          6           0       13.863129   -0.002277    0.094367
     58          6           0       15.305555   -0.199782   -0.562444
     59          6           0       15.625433   -1.598960   -0.999677
     60          6           0       16.460299    0.478009    0.303564
     61          6           0       17.852678    0.421440   -0.216501
     62          6           0       18.831693    1.080678    0.824115
     63          6           0       20.264643    1.084311    0.302834
     64          6           0       20.285596    1.902927   -1.024897
     65          6           0       21.147393    1.684294    1.402602
     66          1           0       -3.890652    3.533885    1.466110
     67          1           0      -10.195786    4.201064   -0.672210
     68          1           0      -10.216096   -2.415034   -1.213195
     69          1           0       -2.431314   -0.944153    2.241934
     70          1           0       -2.329763    1.735054    0.925674
     71          1           0       -2.090234    0.905633    3.344754
     72          1           0       -2.961068    2.625755    3.393983
     73          1           0       -3.811364    0.920443    3.598552
     74          1           0       -1.753993   -1.696006   -0.191462
     75          1           0       -2.049128   -0.018491   -0.812468
     76          1           0       -0.305736    0.739136    0.778415
     77          1           0       -0.502841   -1.075463    1.349883
     78          1           0       -4.738879    6.382280    0.787206
     79          1           0       -6.192732    6.437139    1.821132
     80          1           0       -5.038869    5.540366    2.480580
     81          1           0       -9.682662    5.748480    0.486181
     82          1           0       -8.831393    8.191741    0.169106
     83          1           0       -6.903210    7.399087    0.250040
     84          1           0      -12.167392    2.961692   -2.359260
     85          1           0      -13.125568    1.772793   -1.909416
     86          1           0      -12.404605    3.101089   -0.655299
     87          1           0      -12.655772   -1.882536   -1.149452
     88          1           0      -13.316191   -0.297256   -1.672983
     89          1           0      -12.834351   -1.668070   -3.608775
     90          1           0      -12.001060   -0.375715   -3.861368
     91          1           0      -11.095593   -1.922213   -3.158213
     92          1           0       -8.635605   -4.967944   -2.159499
     93          1           0       -8.150263   -5.836457   -0.614270
     94          1           0       -9.696635   -4.609346   -0.462294
     95          1           0       -3.246906   -3.263235   -0.133567
     96          1           0       -1.779242   -4.470509    3.680433
     97          1           0       -3.079909   -5.492920    3.671968
     98          1           0       -1.811032   -6.330841    2.790767
     99          1           0        2.598291   -1.477577   -1.620885
    100          1           0        2.572708    0.102245   -2.075624
    101          1           0        4.187473   -1.219230    0.416576
    102          1           0        3.770422    1.483988   -2.351734
    103          1           0        5.541768    2.247429   -1.799668
    104          1           0        5.409953    0.800921   -2.785440
    105          1           0        6.703485    1.469154    0.043557
    106          1           0        6.405418   -0.123430    0.740632
    107          1           0        7.511157   -1.252576   -1.258011
    108          1           0        7.766993    0.231144   -1.915857
    109          1           0        8.954784    1.149723    0.019397
    110          1           0        8.798591   -0.566805    0.647228
    111          1           0       10.143931    0.227913   -1.826205
    112          1           0        9.109854   -1.746339   -2.077766
    113          1           0       10.973804   -2.112592   -1.870612
    114          1           0       10.040237   -2.630263   -0.426134
    115          1           0       11.068648    0.909276    0.394171
    116          1           0       11.468864   -0.945209    0.653933
    117          1           0       12.806645   -1.197185   -1.363328
    118          1           0       12.686699    0.430006   -1.648484
    119          1           0       13.733254    1.093003    0.183791
    120          1           0       13.695373   -0.521006    1.069603
    121          1           0       15.270882    0.586979   -1.494375
    122          1           0       15.682478   -2.399824   -0.099110
    123          1           0       14.753918   -2.061627   -1.622887
    124          1           0       16.619310   -1.836112   -1.488645
    125          1           0       16.213186    1.375411    0.503708
    126          1           0       16.272041    0.115443    1.445614
    127          1           0       18.246697   -0.526622   -0.384550
    128          1           0       17.743405    1.033294   -1.180290
    129          1           0       18.560234    2.082717    0.875061
    130          1           0       18.798120    0.588170    1.727443
    131          1           0       20.403705    0.129625    0.010093
    132          1           0       19.679935    2.768240   -0.883329
    133          1           0       21.244901    2.204407   -1.152796
    134          1           0       20.008150    1.181203   -1.847102
    135          1           0       21.322601    0.974790    2.249617
    136          1           0       22.124794    1.883088    0.892968
    137          1           0       20.736461    2.565875    1.796907
 ---------------------------------------------------------------------

 SCF Done:  E(RCAM-B3LYP) =  -2932.61335579     A.U. after   18 cycles

 Excitation energies and oscillator strengths:

 Excited State   1:      Singlet-A      2.0141 eV  615.59 nm  f=0.2928  <S**2>=0.000
     240 -> 243        0.25689
     241 -> 242        0.64910
 This state for optimization and/or second-order correction.
 Total Energy, E(TD-HF/TD-KS) =  -2932.53933999
 Copying the excited state density for this state as the 1-particle RhoCI density.

 The electronic state is 1-A.
 Alpha  occ. eigenvalues --  -46.84617 -19.25434 -19.25036 -19.21973 -19.21220
 Alpha  occ. eigenvalues --  -19.19960 -14.41573 -14.39871 -14.39241 -14.39140
 Alpha  occ. eigenvalues --  -10.39027 -10.38309 -10.36218 -10.31346 -10.31287
 Alpha  occ. eigenvalues --  -10.30748 -10.29815 -10.29794 -10.29765 -10.29561
 Alpha  occ. eigenvalues --  -10.29256 -10.28918 -10.28907 -10.28814 -10.28793
 Alpha  occ. eigenvalues --  -10.28773 -10.28628 -10.28467 -10.28435 -10.28162
 Alpha  occ. eigenvalues --  -10.27911 -10.27648 -10.27546 -10.27524 -10.27489
 Alpha  occ. eigenvalues --  -10.27328 -10.27247 -10.27147 -10.27112 -10.27085
 Alpha  occ. eigenvalues --  -10.26878 -10.26796 -10.26582 -10.26492 -10.26492
 Alpha  occ. eigenvalues --  -10.26480 -10.26410 -10.26326 -10.26095 -10.26038
 Alpha  occ. eigenvalues --  -10.25849 -10.25813 -10.25369 -10.25163 -10.25134
 Alpha  occ. eigenvalues --  -10.25104 -10.24977 -10.24530 -10.24448 -10.24314
 Alpha  occ. eigenvalues --  -10.24227 -10.24036 -10.23928 -10.23190 -10.22941
 Alpha  occ. eigenvalues --   -3.13657  -1.88361  -1.87885  -1.87843  -1.18997
 Alpha  occ. eigenvalues --   -1.18500  -1.10858  -1.10367  -1.09478  -1.06432
 Alpha  occ. eigenvalues --   -1.05690  -1.03882  -1.00981  -0.93138  -0.91744
 Alpha  occ. eigenvalues --   -0.91306  -0.90826  -0.90179  -0.89525  -0.88797
 Alpha  occ. eigenvalues --   -0.88150  -0.87942  -0.87235  -0.86837  -0.86186
 Alpha  occ. eigenvalues --   -0.85252  -0.84442  -0.83560  -0.83241  -0.82202
 Alpha  occ. eigenvalues --   -0.81465  -0.81059  -0.80111  -0.79792  -0.78007
 Alpha  occ. eigenvalues --   -0.77246  -0.77154  -0.76254  -0.76113  -0.75532
 Alpha  occ. eigenvalues --   -0.75297  -0.74880  -0.74347  -0.73093  -0.72599
 Alpha  occ. eigenvalues --   -0.71770  -0.70319  -0.69916  -0.68900  -0.68535
 Alpha  occ. eigenvalues --   -0.67129  -0.66760  -0.65719  -0.64999  -0.64672
 Alpha  occ. eigenvalues --   -0.64137  -0.63842  -0.62875  -0.62811  -0.61880
 Alpha  occ. eigenvalues --   -0.61399  -0.60774  -0.60488  -0.59038  -0.58753
 Alpha  occ. eigenvalues --   -0.58545  -0.57988  -0.57642  -0.57273  -0.56843
 Alpha  occ. eigenvalues --   -0.55853  -0.55352  -0.55174  -0.54947  -0.54851
 Alpha  occ. eigenvalues --   -0.54828  -0.54234  -0.53888  -0.53749  -0.53457
 Alpha  occ. eigenvalues --   -0.52938  -0.52655  -0.52470  -0.52334  -0.51515
 Alpha  occ. eigenvalues --   -0.51280  -0.51151  -0.51093  -0.50798  -0.50733
 Alpha  occ. eigenvalues --   -0.50676  -0.50552  -0.50148  -0.49715  -0.49504
 Alpha  occ. eigenvalues --   -0.49184  -0.48937  -0.48646  -0.48423  -0.48114
 Alpha  occ. eigenvalues --   -0.47747  -0.47688  -0.47231  -0.47077  -0.46978
 Alpha  occ. eigenvalues --   -0.46843  -0.46485  -0.46257  -0.46160  -0.45724
 Alpha  occ. eigenvalues --   -0.45685  -0.45483  -0.45315  -0.45209  -0.45055
 Alpha  occ. eigenvalues --   -0.44841  -0.44658  -0.44239  -0.44165  -0.43983
 Alpha  occ. eigenvalues --   -0.43923  -0.43724  -0.43694  -0.43302  -0.43141
 Alpha  occ. eigenvalues --   -0.43013  -0.42902  -0.42622  -0.42533  -0.42273
 Alpha  occ. eigenvalues --   -0.42050  -0.41958  -0.41869  -0.41808  -0.41429
 Alpha  occ. eigenvalues --   -0.41275  -0.40977  -0.40647  -0.40456  -0.40400
 Alpha  occ. eigenvalues --   -0.40219  -0.39635  -0.39459  -0.39445  -0.39316
 Alpha  occ. eigenvalues --   -0.39297  -0.38574  -0.38243  -0.38201  -0.38040
 Alpha  occ. eigenvalues --   -0.37509  -0.37422  -0.37320  -0.36926  -0.36727
 Alpha  occ. eigenvalues --   -0.36274  -0.35863  -0.35634  -0.35418  -0.35120
 Alpha  occ. eigenvalues --   -0.34983  -0.34852  -0.34520  -0.33520  -0.33303
 Alpha  occ. eigenvalues --   -0.33094  -0.32435  -0.32132  -0.31595  -0.30234
 Alpha  occ. eigenvalues --   -0.29982  -0.27935  -0.27861  -0.27174  -0.23058
 Alpha  occ. eigenvalues --   -0.21227
 Alpha virt. eigenvalues --   -0.06908  -0.03303   0.00896   0.03855   0.05254
 Alpha virt. eigenvalues --    0.06074   0.06595   0.06680   0.07226   0.07383
 Alpha virt. eigenvalues --    0.08687   0.09480   0.10264   0.10722   0.11401

 Mulliken charges:
               1
     1  Mg   0.824033
     2  C    0.088565
     3  C   -0.188780
     4  C   -0.185414
     5  C   -0.196497
     6  N   -0.639720
     7  C    0.287163
     8  C   -0.161333
     9  C   -0.155958
    10  C    0.409440
    11  C   -0.297583
    12  C   -0.179128
    13  C   -0.265528
    14  C    0.600348
    15  O   -0.440513
    16  O   -0.486932
    17  N   -0.683003
    18  C    0.278591
    19  C    0.037892
    20  C    0.014878
    21  C    0.298106
    22  C   -0.385456
    23  C   -0.060794
    24  C   -0.263749
    25  N   -0.717542
    26  C    0.306355
    27  C   -0.008695
    28  C    0.059073
    29  C    0.325052
    30  C   -0.355871
    31  C   -0.276881
    32  C   -0.307599
    33  N   -0.695867
    34  C    0.299220
    35  C    0.000472
    36  C   -0.033334
    37  C    0.269032
    38  C   -0.345322
    39  C    0.389912
    40  O   -0.449812
    41  C   -0.339700
    42  C    0.607607
    43  O   -0.467882
    44  O   -0.447799
    45  C   -0.085762
    46  C    0.005855
    47  C   -0.148587
    48  C    0.154505
    49  C   -0.370901
    50  C   -0.215621
    51  C   -0.239116
    52  C   -0.171403
    53  C   -0.068616
    54  C   -0.300954
    55  C   -0.151940
    56  C   -0.186271
    57  C   -0.164531
    58  C   -0.045295
    59  C   -0.305360
    60  C   -0.150766
    61  C   -0.188359
    62  C   -0.167427
    63  C   -0.071337
    64  C   -0.307889
    65  C   -0.312086
    66  H    0.069786
    67  H    0.079419
    68  H    0.081224
    69  H    0.113722
    70  H    0.107884
    71  H    0.115468
    72  H    0.089125
    73  H    0.125789
    74  H    0.107290
    75  H    0.120046
    76  H    0.133152
    77  H    0.129024
    78  H    0.125419
    79  H    0.143180
    80  H    0.096985
    81  H    0.092796
    82  H    0.111251
    83  H    0.091610
    84  H    0.140404
    85  H    0.071940
    86  H    0.126674
    87  H    0.085368
    88  H    0.114355
    89  H    0.110450
    90  H    0.124236
    91  H    0.119795
    92  H    0.118523
    93  H    0.150334
    94  H    0.112396
    95  H    0.151413
    96  H    0.117754
    97  H    0.132168
    98  H    0.129590
    99  H    0.117577
   100  H    0.118735
   101  H    0.092691
   102  H    0.096336
   103  H    0.109155
   104  H    0.139314
   105  H    0.092601
   106  H    0.111881
   107  H    0.085081
   108  H    0.098751
   109  H    0.103476
   110  H    0.110413
   111  H    0.083702
   112  H    0.096758
   113  H    0.095926
   114  H    0.092170
   115  H    0.067864
   116  H    0.088352
   117  H    0.097001
   118  H    0.065617
   119  H    0.099058
   120  H    0.087047
   121  H    0.055666
   122  H    0.078292
   123  H    0.091586
   124  H    0.107369
   125  H    0.100428
   126  H    0.044205
   127  H    0.097562
   128  H    0.090553
   129  H    0.090182
   130  H    0.096790
   131  H    0.089922
   132  H    0.100558
   133  H    0.100810
   134  H    0.099983
   135  H    0.099105
   136  H    0.091109
   137  H    0.110612
 Sum of Mulliken charges =   0.00000

 Dipole moment (field-independent basis, Debye):
    X=              0.4599    Y=              4.5001    Z=             -0.3866  Tot=              4.5400
 Quadrupole moment (field-independent basis, Debye-Ang):
   XX=           -339.5427   YY=           -390.9028   ZZ=           -398.2339
   XY=            -16.4177   XZ=             14.1145   YZ=             -1.5600

 Normal termination of Gaussian 09 at Sat Jun 29 20:15:50 2019.
