 Gaussian 09, Revision D.01,
 Gaussian 09:  ES64L-G09RevD.01 24-Apr-2013

 -------------------------------------
 # td=(NStates=1) CAM-B3LYP/6-31G(d,p)
 -------------------------------------

 --
 TD
 --
 Symbolic Z-matrix:
 Charge =  0 Multiplicity = 1

                         Standard orientation:
 ---------------------------------------------------------------------
 Center     Atomic      Atomic             Coordinates (Angstroms)
 Number     Number       Type             X           Y           Z
 ---------------------------------------------------------------------
      1         12           0       -7.215947    0.622082    0.227334
      2          6           0       -4.849885   -1.978287    0.566211
      3          6           0       -4.773751    2.895688    1.222508
      4          6           0       -9.480537    3.111345   -0.353700
      5          6           0       -9.506491   -1.785536   -0.784994
      6          7           0       -5.194456    0.460154    0.943810
      7          6           0       -4.401475   -0.699689    0.912423
      8          6           0       -2.867131   -0.346187    1.325183
      9          6           0       -3.032861    1.186533    1.541450
     10          6           0       -4.417356    1.540090    1.179466
     11          6           0       -2.800718    1.407308    3.070364
     12          6           0       -1.935214   -0.662088    0.097477
     13          6           0       -0.449930   -0.522980    0.493659
     14          6           0        0.559958   -0.733046   -0.589277
     15          8           0        0.193323   -1.057616   -1.738106
     16          8           0        1.779430   -0.585011   -0.171466
     17          7           0       -7.165630    2.672866    0.371597
     18          6           0       -6.030504    3.354127    0.843955
     19          6           0       -6.483731    4.759118    0.910306
     20          6           0       -7.753982    4.841805    0.470273
     21          6           0       -8.193068    3.463060    0.136335
     22          6           0       -5.618204    5.898520    1.367909
     23          6           0       -8.672875    6.095868    0.204284
     24          6           0       -8.268749    7.305572    0.106657
     25          7           0       -9.109461    0.658779   -0.442924
     26          6           0       -9.815989    1.795507   -0.685649
     27          6           0      -11.161630    1.428371   -1.175524
     28          6           0      -11.137065    0.116228   -1.284510
     29          6           0       -9.905656   -0.340487   -0.717805
     30          6           0      -12.092269    2.446280   -1.466595
     31          6           0      -12.218779   -0.789238   -1.821563
     32          6           0      -12.117859   -1.153837   -3.317354
     33          7           0       -7.264076   -1.341525   -0.048966
     34          6           0       -8.288171   -2.218578   -0.431153
     35          6           0       -7.815485   -3.667116   -0.647211
     36          6           0       -6.506253   -3.471382   -0.111556
     37          6           0       -6.142872   -2.163440    0.212575
     38          6           0       -8.614744   -4.804051   -0.810309
     39          6           0       -5.384609   -4.419327    0.260881
     40          8           0       -5.288056   -5.562061    0.124770
     41          6           0       -4.202540   -3.312315    0.565982
     42          6           0       -3.534976   -3.746897    1.852600
     43          8           0       -3.727242   -3.249178    2.964388
     44          8           0       -2.659179   -4.820171    1.684575
     45          6           0       -2.169164   -5.303566    2.919181
     46          6           0        2.882810   -0.714727   -1.236836
     47          6           0        4.166922   -0.421781   -0.656246
     48          6           0        5.105138    0.352485   -1.027421
     49          6           0        4.959866    1.115759   -2.288782
     50          6           0        6.389175    0.429208   -0.313951
     51          6           0        7.643306   -0.122823   -0.985839
     52          6           0        8.948853   -0.103917   -0.148426
     53          6           0       10.130419   -0.552430   -0.888541
     54          6           0       10.038042   -2.030451   -1.235500
     55          6           0       11.477610   -0.214097   -0.083560
     56          6           0       12.770532   -0.491262   -0.853217
     57          6           0       14.007377   -0.055457    0.122305
     58          6           0       15.351579   -0.244577   -0.578243
     59          6           0       15.687104   -1.729943   -0.906967
     60          6           0       16.403887    0.385434    0.350143
     61          6           0       17.760375    0.626694   -0.192339
     62          6           0       18.738046    1.252395    0.788838
     63          6           0       20.247701    1.447415    0.307416
     64          6           0       20.434837    2.135598   -1.023415
     65          6           0       20.961681    1.992059    1.538034
     66          1           0       -4.073901    3.553596    1.670289
     67          1           0      -10.190422    3.949229   -0.428058
     68          1           0      -10.049924   -2.463286   -1.222867
     69          1           0       -2.582941   -0.741299    2.407162
     70          1           0       -2.263639    1.835670    0.979360
     71          1           0       -1.743923    1.001096    3.263109
     72          1           0       -2.683838    2.521514    3.296367
     73          1           0       -3.573850    1.237767    3.792605
     74          1           0       -1.867413   -1.652484   -0.370511
     75          1           0       -2.259475    0.051143   -0.752063
     76          1           0       -0.332393    0.429778    0.522209
     77          1           0       -0.166481   -1.195317    1.320472
     78          1           0       -5.159001    6.315212    0.563626
     79          1           0       -6.155382    6.596065    1.863467
     80          1           0       -4.988442    5.505832    2.200709
     81          1           0       -9.944347    5.893784    0.232802
     82          1           0       -8.968260    8.154497   -0.260338
     83          1           0       -7.302373    7.632034    0.095487
     84          1           0      -11.864393    2.901577   -2.499235
     85          1           0      -13.143498    1.857039   -1.409183
     86          1           0      -12.343684    3.295275   -0.783783
     87          1           0      -12.404795   -1.638557   -1.347739
     88          1           0      -13.254227   -0.301083   -1.704658
     89          1           0      -13.001688   -1.634813   -3.637123
     90          1           0      -12.010668   -0.280338   -4.064399
     91          1           0      -11.198342   -1.717339   -3.403897
     92          1           0       -8.787548   -4.966886   -1.898322
     93          1           0       -7.900068   -5.738257   -0.600234
     94          1           0       -9.531824   -4.797244   -0.307948
     95          1           0       -3.437808   -3.640011   -0.105616
     96          1           0       -1.542803   -4.612980    3.580584
     97          1           0       -3.046006   -5.686115    3.559130
     98          1           0       -1.483247   -6.268614    2.758423
     99          1           0        2.571839   -1.870901   -1.583084
    100          1           0        2.701462   -0.350812   -2.305752
    101          1           0        4.324199   -1.090105    0.225000
    102          1           0        4.048307    1.099550   -2.884267
    103          1           0        5.017766    2.282390   -2.240743
    104          1           0        5.944952    0.759800   -2.847610
    105          1           0        6.574378    1.520591   -0.391316
    106          1           0        6.202661   -0.257619    0.566361
    107          1           0        7.289773   -1.008633   -1.494955
    108          1           0        7.728673    0.625941   -1.960102
    109          1           0        8.910018    0.963167    0.124838
    110          1           0        8.710432   -0.547402    0.595914
    111          1           0       10.312222    0.099830   -1.845047
    112          1           0        9.050356   -2.171991   -1.686630
    113          1           0       10.779677   -2.337444   -2.021161
    114          1           0        9.955248   -2.608803   -0.144330
    115          1           0       11.611164    0.879062    0.275711
    116          1           0       11.173810   -0.732388    0.982246
    117          1           0       12.918716   -1.653519   -1.117460
    118          1           0       12.877038    0.181130   -1.689675
    119          1           0       13.709092    1.050879    0.512664
    120          1           0       14.061549   -0.891219    1.062812
    121          1           0       15.387973    0.511657   -1.246826
    122          1           0       15.961845   -2.213372    0.161029
    123          1           0       14.848311   -2.282844   -1.370619
    124          1           0       16.611176   -1.858726   -1.457451
    125          1           0       15.917573    1.489610    0.901537
    126          1           0       16.677817   -0.319526    1.306264
    127          1           0       18.239409   -0.398405   -0.553370
    128          1           0       17.741100    1.270761   -1.180265
    129          1           0       18.248128    2.387733    1.033285
    130          1           0       18.953548    0.751964    1.761201
    131          1           0       20.378545    0.370551    0.084156
    132          1           0       20.088362    3.039778   -1.134645
    133          1           0       21.540496    2.145884   -1.303120
    134          1           0       19.911428    1.616279   -1.882191
    135          1           0       21.001202    1.130790    2.414350
    136          1           0       22.080177    2.232949    1.350151
    137          1           0       20.412520    2.864621    1.767742
 ---------------------------------------------------------------------

 SCF Done:  E(RCAM-B3LYP) =  -2932.54823648     A.U. after   16 cycles

 Excitation energies and oscillator strengths:

 Excited State   1:      Singlet-A      1.9635 eV  631.44 nm  f=0.2395  <S**2>=0.000
     240 -> 243       -0.23281
     241 -> 242        0.65370
 This state for optimization and/or second-order correction.
 Total Energy, E(TD-HF/TD-KS) =  -2932.47607810
 Copying the excited state density for this state as the 1-particle RhoCI density.

 The electronic state is 1-A.
 Alpha  occ. eigenvalues --  -46.83348 -19.27189 -19.26380 -19.22501 -19.20506
 Alpha  occ. eigenvalues --  -19.19131 -14.42375 -14.39283 -14.38931 -14.38916
 Alpha  occ. eigenvalues --  -10.39130 -10.38134 -10.36000 -10.33986 -10.32131
 Alpha  occ. eigenvalues --  -10.31943 -10.30406 -10.29614 -10.28990 -10.28947
 Alpha  occ. eigenvalues --  -10.28898 -10.28893 -10.28693 -10.28591 -10.28495
 Alpha  occ. eigenvalues --  -10.28396 -10.27899 -10.27757 -10.27726 -10.27631
 Alpha  occ. eigenvalues --  -10.27605 -10.27548 -10.27139 -10.27110 -10.27057
 Alpha  occ. eigenvalues --  -10.27038 -10.26950 -10.26943 -10.26915 -10.26896
 Alpha  occ. eigenvalues --  -10.26778 -10.26764 -10.26599 -10.26581 -10.26521
 Alpha  occ. eigenvalues --  -10.26502 -10.26495 -10.26257 -10.26227 -10.26144
 Alpha  occ. eigenvalues --  -10.25793 -10.25779 -10.25770 -10.25760 -10.25656
 Alpha  occ. eigenvalues --  -10.25556 -10.25440 -10.25247 -10.24935 -10.24718
 Alpha  occ. eigenvalues --  -10.24607 -10.24498 -10.24236 -10.23963 -10.23934
 Alpha  occ. eigenvalues --   -3.12548  -1.87249  -1.86803  -1.86718  -1.18028
 Alpha  occ. eigenvalues --   -1.17003  -1.15891  -1.07921  -1.06723  -1.04704
 Alpha  occ. eigenvalues --   -1.03519  -1.02543  -1.01586  -0.93917  -0.93207
 Alpha  occ. eigenvalues --   -0.91036  -0.90327  -0.89555  -0.89030  -0.88563
 Alpha  occ. eigenvalues --   -0.88431  -0.88113  -0.87689  -0.87220  -0.86348
 Alpha  occ. eigenvalues --   -0.85417  -0.84178  -0.83985  -0.83486  -0.82761
 Alpha  occ. eigenvalues --   -0.81748  -0.81069  -0.80739  -0.80106  -0.78243
 Alpha  occ. eigenvalues --   -0.77613  -0.77204  -0.77022  -0.76797  -0.75561
 Alpha  occ. eigenvalues --   -0.74831  -0.74741  -0.74405  -0.72909  -0.72026
 Alpha  occ. eigenvalues --   -0.71715  -0.70425  -0.69550  -0.69038  -0.67095
 Alpha  occ. eigenvalues --   -0.66611  -0.65437  -0.64721  -0.64438  -0.64116
 Alpha  occ. eigenvalues --   -0.63783  -0.62737  -0.62643  -0.61849  -0.61677
 Alpha  occ. eigenvalues --   -0.61583  -0.60291  -0.60049  -0.59758  -0.59114
 Alpha  occ. eigenvalues --   -0.58625  -0.58050  -0.57932  -0.57508  -0.57355
 Alpha  occ. eigenvalues --   -0.56710  -0.55897  -0.55484  -0.54833  -0.54793
 Alpha  occ. eigenvalues --   -0.54591  -0.54079  -0.53827  -0.53604  -0.53337
 Alpha  occ. eigenvalues --   -0.53127  -0.52341  -0.52082  -0.51948  -0.51836
 Alpha  occ. eigenvalues --   -0.51633  -0.51553  -0.51407  -0.51150  -0.50824
 Alpha  occ. eigenvalues --   -0.50424  -0.50143  -0.49991  -0.49818  -0.49682
 Alpha  occ. eigenvalues --   -0.49546  -0.49290  -0.49204  -0.48831  -0.48736
 Alpha  occ. eigenvalues --   -0.48414  -0.48050  -0.47920  -0.47558  -0.47260
 Alpha  occ. eigenvalues --   -0.46987  -0.46755  -0.46388  -0.46367  -0.46255
 Alpha  occ. eigenvalues --   -0.46164  -0.45951  -0.45772  -0.45592  -0.45450
 Alpha  occ. eigenvalues --   -0.45262  -0.44933  -0.44816  -0.44768  -0.44415
 Alpha  occ. eigenvalues --   -0.44054  -0.43597  -0.43551  -0.43297  -0.43054
 Alpha  occ. eigenvalues --   -0.42782  -0.42683  -0.42516  -0.42088  -0.42011
 Alpha  occ. eigenvalues --   -0.41675  -0.41586  -0.41269  -0.41105  -0.40723
 Alpha  occ. eigenvalues --   -0.40573  -0.40258  -0.40220  -0.40042  -0.39930
 Alpha  occ. eigenvalues --   -0.39838  -0.39674  -0.39599  -0.39282  -0.38765
 Alpha  occ. eigenvalues --   -0.38745  -0.38392  -0.38188  -0.37932  -0.37707
 Alpha  occ. eigenvalues --   -0.37535  -0.37275  -0.37223  -0.36847  -0.36628
 Alpha  occ. eigenvalues --   -0.35719  -0.35502  -0.35486  -0.35413  -0.35174
 Alpha  occ. eigenvalues --   -0.35100  -0.35003  -0.34525  -0.33402  -0.32839
 Alpha  occ. eigenvalues --   -0.32611  -0.32274  -0.32246  -0.30762  -0.30353
 Alpha  occ. eigenvalues --   -0.29923  -0.29096  -0.28427  -0.27776  -0.23684
 Alpha  occ. eigenvalues --   -0.19789
 Alpha virt. eigenvalues --   -0.05646  -0.03274   0.01799   0.04577   0.05515
 Alpha virt. eigenvalues --    0.05949   0.06696   0.06909   0.07998   0.08334
 Alpha virt. eigenvalues --    0.08827   0.10497   0.10703   0.11186   0.11393

 Mulliken charges:
               1
     1  Mg   0.816595
     2  C    0.121435
     3  C   -0.179988
     4  C   -0.139050
     5  C   -0.139549
     6  N   -0.627920
     7  C    0.256460
     8  C   -0.143034
     9  C   -0.156939
    10  C    0.365872
    11  C   -0.326874
    12  C   -0.188840
    13  C   -0.230139
    14  C    0.579104
    15  O   -0.517171
    16  O   -0.463688
    17  N   -0.740877
    18  C    0.321653
    19  C   -0.052118
    20  C   -0.003401
    21  C    0.315265
    22  C   -0.361253
    23  C   -0.037883
    24  C   -0.250843
    25  N   -0.666035
    26  C    0.265709
    27  C    0.077390
    28  C    0.029611
    29  C    0.262496
    30  C   -0.396615
    31  C   -0.245706
    32  C   -0.308273
    33  N   -0.745123
    34  C    0.261489
    35  C    0.090233
    36  C   -0.103877
    37  C    0.342255
    38  C   -0.411039
    39  C    0.390828
    40  O   -0.390275
    41  C   -0.360570
    42  C    0.615000
    43  O   -0.482602
    44  O   -0.460418
    45  C   -0.075444
    46  C   -0.017869
    47  C   -0.135778
    48  C    0.183862
    49  C   -0.376337
    50  C   -0.232363
    51  C   -0.204880
    52  C   -0.122988
    53  C   -0.062043
    54  C   -0.298358
    55  C   -0.149845
    56  C   -0.183747
    57  C   -0.163618
    58  C   -0.031090
    59  C   -0.312463
    60  C   -0.145794
    61  C   -0.165791
    62  C   -0.150655
    63  C   -0.056134
    64  C   -0.309492
    65  C   -0.297962
    66  H    0.092940
    67  H    0.093298
    68  H    0.066426
    69  H    0.132686
    70  H    0.107083
    71  H    0.109181
    72  H    0.087607
    73  H    0.139425
    74  H    0.125773
    75  H    0.111871
    76  H    0.135516
    77  H    0.135103
    78  H    0.134192
    79  H    0.129410
    80  H    0.100740
    81  H    0.072036
    82  H    0.091246
    83  H    0.104155
    84  H    0.122913
    85  H    0.087819
    86  H    0.121742
    87  H    0.114590
    88  H    0.083768
    89  H    0.109137
    90  H    0.096093
    91  H    0.107554
    92  H    0.132681
    93  H    0.143929
    94  H    0.146422
    95  H    0.170583
    96  H    0.119467
    97  H    0.120622
    98  H    0.102794
    99  H    0.113208
   100  H    0.141886
   101  H    0.085020
   102  H    0.124305
   103  H    0.103083
   104  H    0.109884
   105  H    0.112403
   106  H    0.102539
   107  H    0.102523
   108  H    0.053482
   109  H    0.096609
   110  H    0.098325
   111  H    0.069461
   112  H    0.110730
   113  H    0.110043
   114  H    0.078525
   115  H    0.075975
   116  H    0.061508
   117  H    0.087057
   118  H    0.106677
   119  H    0.079551
   120  H    0.062730
   121  H    0.098367
   122  H    0.090681
   123  H    0.110045
   124  H    0.117221
   125  H    0.043303
   126  H    0.062239
   127  H    0.072989
   128  H    0.077715
   129  H    0.043195
   130  H    0.094103
   131  H    0.088140
   132  H    0.114448
   133  H    0.090538
   134  H    0.093964
   135  H    0.085438
   136  H    0.089503
   137  H    0.121278
 Sum of Mulliken charges =   0.00000

 Dipole moment (field-independent basis, Debye):
    X=              3.5695    Y=              3.0078    Z=             -0.6747  Tot=              4.7163
 Quadrupole moment (field-independent basis, Debye-Ang):
   XX=           -342.9959   YY=           -391.6204   ZZ=           -401.0094
   XY=             -7.4746   XZ=             -1.2198   YZ=             -1.4150

 Normal termination of Gaussian 09 at Fri Jun 28 20:25:31 2019.
