 Gaussian 09, Revision D.01,
 Gaussian 09:  ES64L-G09RevD.01 24-Apr-2013

 -------------------------------------
 # td=(NStates=1) CAM-B3LYP/6-31G(d,p)
 -------------------------------------

 --
 TD
 --
 Symbolic Z-matrix:
 Charge =  0 Multiplicity = 1

                         Standard orientation:
 ---------------------------------------------------------------------
 Center     Atomic      Atomic             Coordinates (Angstroms)
 Number     Number       Type             X           Y           Z
 ---------------------------------------------------------------------
      1         12           0       -7.212890    0.576255    0.228753
      2          6           0       -4.857971   -1.956566    0.470885
      3          6           0       -4.812944    2.837878    1.255218
      4          6           0       -9.395931    3.107104   -0.398945
      5          6           0       -9.615411   -1.665460   -0.867869
      6          7           0       -5.118996    0.451868    0.739557
      7          6           0       -4.408054   -0.694902    0.753090
      8          6           0       -2.981583   -0.420593    1.350961
      9          6           0       -3.054447    1.060967    1.656772
     10          6           0       -4.439825    1.512070    1.206066
     11          6           0       -2.942632    1.353330    3.242398
     12          6           0       -1.989567   -0.634922    0.256069
     13          6           0       -0.442212   -0.316043    0.595961
     14          6           0        0.480673   -0.620389   -0.496195
     15          8           0        0.211779   -1.001446   -1.625605
     16          8           0        1.786617   -0.499430   -0.101794
     17          7           0       -7.155998    2.572523    0.376766
     18          6           0       -6.057809    3.247427    0.831831
     19          6           0       -6.444878    4.672154    0.881120
     20          6           0       -7.680437    4.823604    0.438813
     21          6           0       -8.146176    3.506049    0.071889
     22          6           0       -5.511221    5.726239    1.372153
     23          6           0       -8.508273    6.061093    0.345842
     24          6           0       -8.089808    7.232722    0.002950
     25          7           0       -9.120102    0.629238   -0.415960
     26          6           0       -9.796827    1.786152   -0.674080
     27          6           0      -11.155298    1.445539   -1.062697
     28          6           0      -11.233509    0.082901   -1.226700
     29          6           0       -9.984082   -0.339941   -0.851306
     30          6           0      -12.296326    2.466227   -1.502826
     31          6           0      -12.315046   -0.771512   -1.864706
     32          6           0      -12.131366   -1.165074   -3.308187
     33          7           0       -7.178107   -1.385889   -0.139568
     34          6           0       -8.272645   -2.248960   -0.472771
     35          6           0       -7.884383   -3.550372   -0.421416
     36          6           0       -6.535340   -3.539229   -0.135018
     37          6           0       -6.183173   -2.200828    0.106228
     38          6           0       -8.566445   -4.867893   -0.728720
     39          6           0       -5.311961   -4.365136    0.162548
     40          8           0       -5.174786   -5.566933    0.068338
     41          6           0       -4.144413   -3.303307    0.463630
     42          6           0       -3.474258   -3.657047    1.681596
     43          8           0       -3.843411   -3.102928    2.800719
     44          8           0       -2.611409   -4.646657    1.676880
     45          6           0       -2.174077   -5.128042    2.984683
     46          6           0        2.703012   -0.638205   -1.127424
     47          6           0        4.148572   -0.351966   -0.599184
     48          6           0        5.057973    0.404462   -0.984620
     49          6           0        5.075266    1.264491   -2.242571
     50          6           0        6.400535    0.462575   -0.413718
     51          6           0        7.671545   -0.161496   -1.147585
     52          6           0        8.975163   -0.164249   -0.211634
     53          6           0       10.232245   -0.560261   -0.951255
     54          6           0       10.046767   -1.979972   -1.361775
     55          6           0       11.377511   -0.282489    0.014258
     56          6           0       12.756562   -0.523072   -0.660484
     57          6           0       13.881018   -0.218319    0.223760
     58          6           0       15.383678   -0.236385   -0.446177
     59          6           0       15.674559   -1.766445   -0.773072
     60          6           0       16.429547    0.253764    0.520799
     61          6           0       17.818415    0.615587   -0.183099
     62          6           0       18.777038    1.257888    0.866561
     63          6           0       20.287035    1.305575    0.276857
     64          6           0       20.415201    2.087977   -1.182542
     65          6           0       21.211698    2.067672    1.236590
     66          1           0       -4.213598    3.561290    1.530866
     67          1           0      -10.281745    3.748685   -0.743427
     68          1           0      -10.407288   -2.511572   -0.913444
     69          1           0       -2.885242   -1.099287    2.208213
     70          1           0       -2.365355    1.743024    1.204658
     71          1           0       -2.158968    0.935626    3.694078
     72          1           0       -3.334349    2.251403    3.303585
     73          1           0       -3.817221    0.719332    3.693135
     74          1           0       -1.807604   -1.726254   -0.188929
     75          1           0       -2.388680   -0.116829   -0.823894
     76          1           0       -0.223335    0.682403    1.076968
     77          1           0       -0.298675   -0.890088    1.464999
     78          1           0       -4.448861    6.108528    0.847673
     79          1           0       -6.170384    6.599995    1.675141
     80          1           0       -5.183894    5.635210    2.376270
     81          1           0       -9.572145    5.817839    0.435104
     82          1           0       -8.924361    8.192385   -0.053739
     83          1           0       -7.027990    7.500207   -0.125976
     84          1           0      -12.070281    3.074526   -2.601290
     85          1           0      -13.146616    2.031551   -1.659603
     86          1           0      -12.545035    3.399183   -0.791145
     87          1           0      -12.354670   -1.558325   -1.183476
     88          1           0      -13.309070   -0.334713   -1.608935
     89          1           0      -12.829357   -1.892023   -3.633624
     90          1           0      -12.050620   -0.193587   -3.848641
     91          1           0      -11.131508   -1.542737   -3.419177
     92          1           0       -9.234291   -4.631463   -1.838338
     93          1           0       -8.058148   -5.587063   -0.650333
     94          1           0       -9.450198   -5.160038   -0.172739
     95          1           0       -3.313436   -3.482508   -0.183090
     96          1           0       -1.469759   -4.264080    3.346914
     97          1           0       -3.066969   -5.735734    3.531816
     98          1           0       -1.502187   -5.946591    2.779898
     99          1           0        2.679004   -1.705203   -1.122373
    100          1           0        2.526165    0.032402   -1.983823
    101          1           0        4.057307   -1.000043    0.404559
    102          1           0        4.025676    1.479214   -2.652933
    103          1           0        5.445058    2.331398   -2.274137
    104          1           0        5.506070    0.693492   -3.152304
    105          1           0        6.630017    1.364806   -0.349294
    106          1           0        6.351124    0.015433    0.711266
    107          1           0        7.212091   -1.084946   -1.503686
    108          1           0        7.836609    0.414910   -2.146582
    109          1           0        8.871140    0.824676    0.173312
    110          1           0        8.796636   -0.854788    0.743147
    111          1           0       10.384958   -0.017618   -1.831648
    112          1           0        9.225734   -1.818230   -2.191048
    113          1           0       10.872210   -2.540784   -1.788493
    114          1           0        9.490638   -2.616859   -0.777210
    115          1           0       11.231309    0.844797    0.312686
    116          1           0       11.297920   -0.936378    0.880576
    117          1           0       12.876967   -1.406247   -0.954846
    118          1           0       12.966541   -0.001204   -1.538250
    119          1           0       13.901606    0.763766    0.722883
    120          1           0       13.996088   -1.004055    1.105935
    121          1           0       15.442795    0.151427   -1.307155
    122          1           0       15.731677   -2.456506    0.093702
    123          1           0       14.869580   -2.165101   -1.548858
    124          1           0       16.611981   -1.916137   -1.264650
    125          1           0       16.098383    1.295868    1.036857
    126          1           0       16.609048   -0.362609    1.360991
    127          1           0       18.169384   -0.425557   -0.757820
    128          1           0       17.585779    1.397419   -0.992091
    129          1           0       18.416866    2.480600    1.072788
    130          1           0       18.718213    0.744969    1.791483
    131          1           0       20.469184    0.353125    0.007575
    132          1           0       20.321876    3.179858   -1.014961
    133          1           0       21.362559    1.913527   -1.474309
    134          1           0       19.703261    1.709654   -1.924044
    135          1           0       21.431018    1.692464    2.313283
    136          1           0       22.264434    1.945928    0.905162
    137          1           0       20.877602    3.229921    1.128179
 ---------------------------------------------------------------------

 SCF Done:  E(RCAM-B3LYP) =  -2932.51852733     A.U. after   17 cycles

 Excitation energies and oscillator strengths:

 Excited State   1:      Singlet-A      2.1606 eV  573.85 nm  f=0.2509  <S**2>=0.000
     240 -> 242       -0.17332
     240 -> 243        0.22772
     241 -> 242        0.63009
     241 -> 243        0.12198
 This state for optimization and/or second-order correction.
 Total Energy, E(TD-HF/TD-KS) =  -2932.43912779
 Copying the excited state density for this state as the 1-particle RhoCI density.

 The electronic state is 1-A.
 Alpha  occ. eigenvalues --  -46.83471 -19.27387 -19.25542 -19.20957 -19.20402
 Alpha  occ. eigenvalues --  -19.18406 -14.41637 -14.39908 -14.39401 -14.38469
 Alpha  occ. eigenvalues --  -10.39377 -10.38548 -10.35573 -10.33591 -10.31247
 Alpha  occ. eigenvalues --  -10.30867 -10.30512 -10.30394 -10.30113 -10.29476
 Alpha  occ. eigenvalues --  -10.29234 -10.28980 -10.28734 -10.28081 -10.28080
 Alpha  occ. eigenvalues --  -10.27886 -10.27863 -10.27861 -10.27682 -10.27403
 Alpha  occ. eigenvalues --  -10.27346 -10.27206 -10.27170 -10.27134 -10.27091
 Alpha  occ. eigenvalues --  -10.27055 -10.27045 -10.27030 -10.26920 -10.26807
 Alpha  occ. eigenvalues --  -10.26787 -10.26447 -10.26405 -10.26329 -10.26326
 Alpha  occ. eigenvalues --  -10.26312 -10.26225 -10.26187 -10.26062 -10.25760
 Alpha  occ. eigenvalues --  -10.25421 -10.25376 -10.25332 -10.25165 -10.25102
 Alpha  occ. eigenvalues --  -10.25032 -10.25021 -10.24799 -10.24688 -10.24624
 Alpha  occ. eigenvalues --  -10.24368 -10.24008 -10.23961 -10.23766 -10.22345
 Alpha  occ. eigenvalues --   -3.12718  -1.87410  -1.86961  -1.86909  -1.18784
 Alpha  occ. eigenvalues --   -1.18385  -1.10975  -1.09159  -1.05118  -1.04420
 Alpha  occ. eigenvalues --   -1.04209  -1.03771  -1.03064  -0.92193  -0.91807
 Alpha  occ. eigenvalues --   -0.90842  -0.90141  -0.89979  -0.89733  -0.88992
 Alpha  occ. eigenvalues --   -0.88871  -0.87511  -0.87168  -0.86898  -0.86257
 Alpha  occ. eigenvalues --   -0.85068  -0.84597  -0.83798  -0.83249  -0.82911
 Alpha  occ. eigenvalues --   -0.81846  -0.81529  -0.80201  -0.79703  -0.78652
 Alpha  occ. eigenvalues --   -0.78317  -0.77811  -0.76963  -0.76019  -0.75668
 Alpha  occ. eigenvalues --   -0.75051  -0.74789  -0.73812  -0.73577  -0.73279
 Alpha  occ. eigenvalues --   -0.72323  -0.71211  -0.69903  -0.69262  -0.67801
 Alpha  occ. eigenvalues --   -0.66920  -0.66620  -0.65318  -0.65234  -0.65076
 Alpha  occ. eigenvalues --   -0.64481  -0.63861  -0.63650  -0.62511  -0.62463
 Alpha  occ. eigenvalues --   -0.61884  -0.60995  -0.60681  -0.59984  -0.59327
 Alpha  occ. eigenvalues --   -0.59119  -0.58471  -0.58109  -0.57753  -0.56937
 Alpha  occ. eigenvalues --   -0.56750  -0.55960  -0.55645  -0.55352  -0.54896
 Alpha  occ. eigenvalues --   -0.54321  -0.53969  -0.53787  -0.53339  -0.53132
 Alpha  occ. eigenvalues --   -0.53079  -0.52769  -0.52244  -0.51810  -0.51766
 Alpha  occ. eigenvalues --   -0.51576  -0.51243  -0.50964  -0.50870  -0.50767
 Alpha  occ. eigenvalues --   -0.50540  -0.50285  -0.49951  -0.49718  -0.49596
 Alpha  occ. eigenvalues --   -0.49244  -0.49092  -0.48967  -0.48643  -0.48172
 Alpha  occ. eigenvalues --   -0.48094  -0.47834  -0.47510  -0.47457  -0.47325
 Alpha  occ. eigenvalues --   -0.47107  -0.46773  -0.46258  -0.46094  -0.45788
 Alpha  occ. eigenvalues --   -0.45689  -0.44978  -0.44890  -0.44760  -0.44628
 Alpha  occ. eigenvalues --   -0.44336  -0.44186  -0.44030  -0.43671  -0.43665
 Alpha  occ. eigenvalues --   -0.43445  -0.43357  -0.43229  -0.43012  -0.42885
 Alpha  occ. eigenvalues --   -0.42770  -0.42717  -0.42577  -0.42335  -0.42213
 Alpha  occ. eigenvalues --   -0.42066  -0.41727  -0.41539  -0.41281  -0.41187
 Alpha  occ. eigenvalues --   -0.41056  -0.40977  -0.40404  -0.39943  -0.39780
 Alpha  occ. eigenvalues --   -0.39584  -0.39451  -0.39366  -0.39102  -0.39001
 Alpha  occ. eigenvalues --   -0.38939  -0.38680  -0.38603  -0.38090  -0.37636
 Alpha  occ. eigenvalues --   -0.37557  -0.37141  -0.37049  -0.36879  -0.36710
 Alpha  occ. eigenvalues --   -0.36303  -0.36186  -0.35927  -0.35874  -0.35539
 Alpha  occ. eigenvalues --   -0.34832  -0.34655  -0.34372  -0.34086  -0.33217
 Alpha  occ. eigenvalues --   -0.32298  -0.32162  -0.31659  -0.31293  -0.30904
 Alpha  occ. eigenvalues --   -0.29680  -0.29540  -0.29000  -0.28389  -0.23483
 Alpha  occ. eigenvalues --   -0.21705
 Alpha virt. eigenvalues --   -0.06581  -0.02908   0.02218   0.04518   0.05445
 Alpha virt. eigenvalues --    0.05546   0.05697   0.06914   0.07649   0.07800
 Alpha virt. eigenvalues --    0.08535   0.10598   0.10867   0.11537   0.12007

 Mulliken charges:
               1
     1  Mg   0.818245
     2  C    0.158672
     3  C   -0.144222
     4  C   -0.190115
     5  C   -0.190650
     6  N   -0.648614
     7  C    0.266948
     8  C   -0.153165
     9  C   -0.163077
    10  C    0.349574
    11  C   -0.304790
    12  C   -0.173261
    13  C   -0.284861
    14  C    0.621476
    15  O   -0.475552
    16  O   -0.482858
    17  N   -0.747939
    18  C    0.355827
    19  C   -0.001821
    20  C    0.040440
    21  C    0.292272
    22  C   -0.405852
    23  C   -0.041172
    24  C   -0.238048
    25  N   -0.689228
    26  C    0.303962
    27  C   -0.030964
    28  C    0.043421
    29  C    0.309465
    30  C   -0.346226
    31  C   -0.223891
    32  C   -0.305174
    33  N   -0.732034
    34  C    0.210538
    35  C    0.016930
    36  C   -0.021476
    37  C    0.286650
    38  C   -0.303648
    39  C    0.394517
    40  O   -0.459026
    41  C   -0.318735
    42  C    0.613542
    43  O   -0.538538
    44  O   -0.444646
    45  C   -0.074107
    46  C    0.046836
    47  C   -0.148887
    48  C    0.138714
    49  C   -0.385123
    50  C   -0.205033
    51  C   -0.206215
    52  C   -0.164710
    53  C   -0.052122
    54  C   -0.315926
    55  C   -0.165461
    56  C   -0.161392
    57  C   -0.173970
    58  C   -0.048255
    59  C   -0.324347
    60  C   -0.171109
    61  C   -0.175982
    62  C   -0.150922
    63  C   -0.058799
    64  C   -0.328379
    65  C   -0.299930
    66  H    0.072626
    67  H    0.102845
    68  H    0.104362
    69  H    0.146762
    70  H    0.115032
    71  H    0.122498
    72  H    0.114507
    73  H    0.102413
    74  H    0.099854
    75  H    0.098092
    76  H    0.132485
    77  H    0.149505
    78  H    0.106552
    79  H    0.111314
    80  H    0.128883
    81  H    0.100581
    82  H    0.082055
    83  H    0.118345
    84  H    0.082655
    85  H    0.125046
    86  H    0.096673
    87  H    0.111482
    88  H    0.097896
    89  H    0.117985
    90  H    0.113525
    91  H    0.119331
    92  H    0.070543
    93  H    0.124252
    94  H    0.117702
    95  H    0.159890
    96  H    0.132465
    97  H    0.142536
    98  H    0.131307
    99  H    0.119015
   100  H    0.115262
   101  H    0.079423
   102  H    0.095171
   103  H    0.119225
   104  H    0.120890
   105  H    0.107501
   106  H    0.065760
   107  H    0.104696
   108  H    0.081113
   109  H    0.100098
   110  H    0.084025
   111  H    0.097966
   112  H    0.086777
   113  H    0.101243
   114  H    0.116046
   115  H    0.076656
   116  H    0.094219
   117  H    0.106138
   118  H    0.090941
   119  H    0.083946
   120  H    0.063706
   121  H    0.088672
   122  H    0.100648
   123  H    0.075884
   124  H    0.098461
   125  H    0.061303
   126  H    0.099813
   127  H    0.066585
   128  H    0.096426
   129  H    0.051280
   130  H    0.103578
   131  H    0.101527
   132  H    0.096480
   133  H    0.116566
   134  H    0.104081
   135  H    0.092000
   136  H    0.096601
   137  H    0.090501
 Sum of Mulliken charges =   0.00000

 Dipole moment (field-independent basis, Debye):
    X=              0.5997    Y=              4.5729    Z=              1.0377  Tot=              4.7274
 Quadrupole moment (field-independent basis, Debye-Ang):
   XX=           -331.0999   YY=           -387.6994   ZZ=           -398.0474
   XY=            -27.2698   XZ=              1.5988   YZ=             -5.7320

 Normal termination of Gaussian 09 at Sun Jun 30 06:02:47 2019.
