 Gaussian 09, Revision D.01,
 Gaussian 09:  ES64L-G09RevD.01 24-Apr-2013

 -------------------------------------
 # td=(NStates=1) CAM-B3LYP/6-31G(d,p)
 -------------------------------------

 --
 TD
 --
 Symbolic Z-matrix:
 Charge =  0 Multiplicity = 1

                         Standard orientation:
 ---------------------------------------------------------------------
 Center     Atomic      Atomic             Coordinates (Angstroms)
 Number     Number       Type             X           Y           Z
 ---------------------------------------------------------------------
      1         12           0       -7.255923    0.476393    0.329674
      2          6           0       -4.864097   -1.899512    0.589120
      3          6           0       -4.826356    2.776305    1.272358
      4          6           0       -9.451992    3.096049   -0.289287
      5          6           0       -9.531403   -1.730877   -0.986137
      6          7           0       -5.089111    0.441741    0.856168
      7          6           0       -4.355666   -0.694610    0.974248
      8          6           0       -2.877052   -0.386790    1.286861
      9          6           0       -2.938020    1.087570    1.716335
     10          6           0       -4.319738    1.499025    1.230577
     11          6           0       -2.656543    1.320810    3.261705
     12          6           0       -1.974178   -0.686546    0.121936
     13          6           0       -0.526854   -0.475353    0.512915
     14          6           0        0.506853   -0.605649   -0.621130
     15          8           0        0.185253   -0.795496   -1.764684
     16          8           0        1.787821   -0.462354   -0.224842
     17          7           0       -7.115427    2.680383    0.345410
     18          6           0       -6.030999    3.377533    0.807361
     19          6           0       -6.473626    4.832973    0.875607
     20          6           0       -7.718067    4.843858    0.407490
     21          6           0       -8.158601    3.460131    0.036009
     22          6           0       -5.464766    5.809513    1.309948
     23          6           0       -8.595467    6.066333    0.301692
     24          6           0       -8.163456    7.303050   -0.093476
     25          7           0       -9.226207    0.615145   -0.352655
     26          6           0       -9.919354    1.795648   -0.514577
     27          6           0      -11.189530    1.429632   -1.095780
     28          6           0      -11.182199    0.041715   -1.278844
     29          6           0       -9.903958   -0.401899   -0.859740
     30          6           0      -12.418470    2.362673   -1.349790
     31          6           0      -12.292835   -0.791136   -1.844248
     32          6           0      -12.167589   -0.971056   -3.343409
     33          7           0       -7.284874   -1.515123   -0.106917
     34          6           0       -8.329294   -2.327826   -0.633293
     35          6           0       -7.796349   -3.684821   -0.512837
     36          6           0       -6.501170   -3.602116   -0.101785
     37          6           0       -6.203195   -2.216560    0.165200
     38          6           0       -8.575542   -4.862388   -0.858381
     39          6           0       -5.352429   -4.434109    0.146119
     40          8           0       -5.152585   -5.633053    0.177160
     41          6           0       -4.201026   -3.358098    0.677330
     42          6           0       -3.512951   -3.693143    1.927477
     43          8           0       -3.714828   -3.040708    2.924859
     44          8           0       -2.589072   -4.597858    1.696174
     45          6           0       -2.005644   -5.028453    2.939710
     46          6           0        2.752366   -0.638798   -1.277769
     47          6           0        4.152990   -0.369716   -0.588810
     48          6           0        5.146293    0.409717   -1.169574
     49          6           0        5.005920    1.028545   -2.501425
     50          6           0        6.397719    0.447890   -0.362339
     51          6           0        7.612583   -0.138483   -1.130116
     52          6           0        8.924731   -0.055589   -0.154927
     53          6           0       10.150222   -0.637300   -0.888009
     54          6           0       10.045143   -2.121103   -1.217875
     55          6           0       11.360586   -0.280167   -0.091870
     56          6           0       12.771210   -0.492007   -0.765658
     57          6           0       13.935800   -0.141690    0.068792
     58          6           0       15.339518   -0.075889   -0.483295
     59          6           0       15.806941   -1.498503   -0.941966
     60          6           0       16.392823    0.436754    0.488013
     61          6           0       17.715274    0.683475   -0.240575
     62          6           0       18.736872    1.232616    0.807811
     63          6           0       20.221942    1.240132    0.304247
     64          6           0       20.259417    2.094196   -0.976731
     65          6           0       21.102937    1.761099    1.444092
     66          1           0       -4.138753    3.712307    1.459825
     67          1           0      -10.173658    3.866497   -0.537931
     68          1           0      -10.204073   -2.505924   -1.425655
     69          1           0       -2.525242   -0.780691    2.135927
     70          1           0       -2.195866    1.618913    1.114274
     71          1           0       -1.707403    0.950822    3.535167
     72          1           0       -2.957660    2.469176    3.473994
     73          1           0       -3.546642    0.967735    3.998203
     74          1           0       -2.012560   -1.731977   -0.419620
     75          1           0       -2.194792    0.070412   -0.606552
     76          1           0       -0.276018    0.624048    0.798603
     77          1           0       -0.203884   -1.262428    1.298983
     78          1           0       -4.745053    6.171139    0.551015
     79          1           0       -6.041455    6.637024    1.534959
     80          1           0       -4.969389    5.439110    2.327032
     81          1           0       -9.738583    5.921146    0.531364
     82          1           0       -8.797924    7.929894   -0.167281
     83          1           0       -7.059074    7.262455   -0.255720
     84          1           0      -12.130839    3.069101   -2.188102
     85          1           0      -13.198517    1.806667   -1.533172
     86          1           0      -12.763968    2.994981   -0.390805
     87          1           0      -12.406895   -1.847077   -1.337804
     88          1           0      -13.264052   -0.262002   -1.243041
     89          1           0      -13.067255   -1.867672   -3.749628
     90          1           0      -12.319489   -0.046877   -4.038808
     91          1           0      -11.174724   -1.394138   -3.400413
     92          1           0       -8.995148   -5.008933   -1.970954
     93          1           0       -8.014523   -5.829448   -0.498615
     94          1           0       -9.478304   -4.804659   -0.301889
     95          1           0       -3.389671   -3.350419   -0.206705
     96          1           0       -1.407386   -4.171870    3.391357
     97          1           0       -2.749316   -5.369975    3.644663
     98          1           0       -1.262719   -5.667057    2.858759
     99          1           0        2.494490   -1.450947   -1.576186
    100          1           0        2.567507    0.198065   -2.031707
    101          1           0        4.143131   -0.702316    0.477018
    102          1           0        3.977326    1.048325   -2.710243
    103          1           0        5.302494    2.129153   -2.267256
    104          1           0        5.728731    0.785054   -3.142342
    105          1           0        6.498933    1.600300   -0.189835
    106          1           0        6.237029    0.030433    0.708971
    107          1           0        7.332617   -1.231036   -1.295267
    108          1           0        7.793782    0.189435   -2.094498
    109          1           0        9.041753    0.847020    0.281207
    110          1           0        8.785053   -0.788448    0.796300
    111          1           0        9.923847   -0.159603   -1.838835
    112          1           0        9.359457   -2.260976   -1.939152
    113          1           0       10.956278   -2.614913   -1.768253
    114          1           0        9.902967   -2.643159   -0.187302
    115          1           0       11.386686    0.672211    0.258604
    116          1           0       11.459018   -0.946158    0.809957
    117          1           0       12.946153   -1.471434   -1.098065
    118          1           0       12.893426    0.237436   -1.645259
    119          1           0       13.751821    0.900365    0.566143
    120          1           0       14.065722   -0.699232    0.845554
    121          1           0       15.290609    0.691939   -1.331713
    122          1           0       15.714024   -2.205553   -0.061851
    123          1           0       15.289776   -2.063763   -1.996034
    124          1           0       16.739710   -1.415182   -1.250592
    125          1           0       15.847058    1.530012    0.892687
    126          1           0       16.410945   -0.198316    1.371709
    127          1           0       18.138216   -0.410029   -0.357260
    128          1           0       17.641047    1.346373   -1.156238
    129          1           0       18.546028    2.290639    1.233086
    130          1           0       18.568233    0.520844    1.616254
    131          1           0       20.210641    0.247879   -0.202869
    132          1           0       20.001895    3.108406   -0.705312
    133          1           0       21.299323    1.979216   -1.221803
    134          1           0       19.737765    1.739977   -1.783810
    135          1           0       21.112760    1.221799    2.436193
    136          1           0       22.010911    1.728933    0.987058
    137          1           0       20.793028    2.748677    1.574254
 ---------------------------------------------------------------------

 SCF Done:  E(RCAM-B3LYP) =  -2932.60185494     A.U. after   15 cycles

 Excitation energies and oscillator strengths:

 Excited State   1:      Singlet-A      2.1310 eV  581.81 nm  f=0.2083  <S**2>=0.000
     240 -> 243        0.27414
     241 -> 242        0.64455
 This state for optimization and/or second-order correction.
 Total Energy, E(TD-HF/TD-KS) =  -2932.52354209
 Copying the excited state density for this state as the 1-particle RhoCI density.

 The electronic state is 1-A.
 Alpha  occ. eigenvalues --  -46.86203 -19.27375 -19.25524 -19.20774 -19.20328
 Alpha  occ. eigenvalues --  -19.20173 -14.41672 -14.39344 -14.39252 -14.38860
 Alpha  occ. eigenvalues --  -10.38603 -10.38401 -10.35565 -10.31133 -10.30498
 Alpha  occ. eigenvalues --  -10.30367 -10.30320 -10.30271 -10.29391 -10.29185
 Alpha  occ. eigenvalues --  -10.29067 -10.28689 -10.28677 -10.28462 -10.28365
 Alpha  occ. eigenvalues --  -10.28208 -10.28194 -10.28139 -10.28109 -10.28105
 Alpha  occ. eigenvalues --  -10.28085 -10.27944 -10.27603 -10.27322 -10.27065
 Alpha  occ. eigenvalues --  -10.26992 -10.26970 -10.26859 -10.26820 -10.26776
 Alpha  occ. eigenvalues --  -10.26641 -10.26625 -10.26591 -10.26498 -10.26450
 Alpha  occ. eigenvalues --  -10.26301 -10.26111 -10.26006 -10.25997 -10.25905
 Alpha  occ. eigenvalues --  -10.25832 -10.25683 -10.25644 -10.25532 -10.25405
 Alpha  occ. eigenvalues --  -10.25240 -10.25226 -10.24947 -10.24848 -10.24623
 Alpha  occ. eigenvalues --  -10.24532 -10.24239 -10.24063 -10.23311 -10.22900
 Alpha  occ. eigenvalues --   -3.14780  -1.89510  -1.89008  -1.88924  -1.19689
 Alpha  occ. eigenvalues --   -1.18312  -1.11053  -1.09711  -1.09229  -1.04541
 Alpha  occ. eigenvalues --   -1.03820  -1.03380  -1.02672  -0.91384  -0.91010
 Alpha  occ. eigenvalues --   -0.90878  -0.90682  -0.89801  -0.89113  -0.88730
 Alpha  occ. eigenvalues --   -0.88486  -0.87940  -0.87538  -0.87158  -0.85655
 Alpha  occ. eigenvalues --   -0.84936  -0.84421  -0.83823  -0.83011  -0.82308
 Alpha  occ. eigenvalues --   -0.81820  -0.81508  -0.80475  -0.80279  -0.78228
 Alpha  occ. eigenvalues --   -0.77753  -0.77171  -0.76912  -0.76762  -0.75991
 Alpha  occ. eigenvalues --   -0.75839  -0.75324  -0.74076  -0.73243  -0.72532
 Alpha  occ. eigenvalues --   -0.71963  -0.70548  -0.69145  -0.68401  -0.68208
 Alpha  occ. eigenvalues --   -0.67231  -0.66992  -0.65735  -0.65344  -0.64749
 Alpha  occ. eigenvalues --   -0.64583  -0.63557  -0.63266  -0.62497  -0.62291
 Alpha  occ. eigenvalues --   -0.61694  -0.60449  -0.60196  -0.58968  -0.58822
 Alpha  occ. eigenvalues --   -0.58701  -0.58171  -0.58115  -0.57555  -0.56784
 Alpha  occ. eigenvalues --   -0.56596  -0.55936  -0.55586  -0.55386  -0.55085
 Alpha  occ. eigenvalues --   -0.54595  -0.54534  -0.54468  -0.53775  -0.53492
 Alpha  occ. eigenvalues --   -0.53123  -0.52818  -0.52498  -0.51962  -0.51870
 Alpha  occ. eigenvalues --   -0.51660  -0.51363  -0.51198  -0.51024  -0.50647
 Alpha  occ. eigenvalues --   -0.50529  -0.50231  -0.50123  -0.50006  -0.49779
 Alpha  occ. eigenvalues --   -0.49065  -0.48956  -0.48690  -0.48491  -0.48267
 Alpha  occ. eigenvalues --   -0.48135  -0.47671  -0.47628  -0.47445  -0.47341
 Alpha  occ. eigenvalues --   -0.47153  -0.46742  -0.46335  -0.46277  -0.46115
 Alpha  occ. eigenvalues --   -0.45915  -0.45696  -0.45377  -0.45215  -0.44973
 Alpha  occ. eigenvalues --   -0.44765  -0.44689  -0.44556  -0.44164  -0.44072
 Alpha  occ. eigenvalues --   -0.43944  -0.43845  -0.43816  -0.43606  -0.43449
 Alpha  occ. eigenvalues --   -0.43246  -0.43080  -0.42826  -0.42629  -0.42343
 Alpha  occ. eigenvalues --   -0.42110  -0.41992  -0.41817  -0.41545  -0.41485
 Alpha  occ. eigenvalues --   -0.41452  -0.41272  -0.40720  -0.40526  -0.40063
 Alpha  occ. eigenvalues --   -0.39910  -0.39729  -0.39496  -0.39071  -0.38922
 Alpha  occ. eigenvalues --   -0.38730  -0.38240  -0.38183  -0.37832  -0.37757
 Alpha  occ. eigenvalues --   -0.37225  -0.37041  -0.37014  -0.36408  -0.36368
 Alpha  occ. eigenvalues --   -0.36177  -0.35936  -0.35876  -0.35767  -0.35711
 Alpha  occ. eigenvalues --   -0.34971  -0.34462  -0.33953  -0.33362  -0.33049
 Alpha  occ. eigenvalues --   -0.32849  -0.32459  -0.32050  -0.31383  -0.29921
 Alpha  occ. eigenvalues --   -0.29613  -0.28698  -0.28254  -0.27645  -0.23013
 Alpha  occ. eigenvalues --   -0.21375
 Alpha virt. eigenvalues --   -0.06148  -0.03051   0.01788   0.04111   0.04775
 Alpha virt. eigenvalues --    0.06102   0.06233   0.07152   0.07464   0.07920
 Alpha virt. eigenvalues --    0.08449   0.10507   0.11170   0.11692   0.11694

 Mulliken charges:
               1
     1  Mg   0.841911
     2  C    0.052935
     3  C   -0.223932
     4  C   -0.164223
     5  C   -0.174514
     6  N   -0.623407
     7  C    0.311016
     8  C   -0.121879
     9  C   -0.152976
    10  C    0.352955
    11  C   -0.311498
    12  C   -0.154242
    13  C   -0.264182
    14  C    0.583948
    15  O   -0.472932
    16  O   -0.494104
    17  N   -0.699051
    18  C    0.279394
    19  C    0.046953
    20  C   -0.037470
    21  C    0.343757
    22  C   -0.380258
    23  C   -0.115009
    24  C   -0.171960
    25  N   -0.731671
    26  C    0.297628
    27  C   -0.027059
    28  C    0.020460
    29  C    0.349864
    30  C   -0.343614
    31  C   -0.232718
    32  C   -0.266377
    33  N   -0.774247
    34  C    0.257168
    35  C    0.043432
    36  C    0.023800
    37  C    0.321474
    38  C   -0.398509
    39  C    0.358207
    40  O   -0.452643
    41  C   -0.348718
    42  C    0.654409
    43  O   -0.481641
    44  O   -0.433063
    45  C   -0.084595
    46  C    0.058629
    47  C   -0.157215
    48  C    0.102629
    49  C   -0.339153
    50  C   -0.212247
    51  C   -0.200785
    52  C   -0.165013
    53  C   -0.061254
    54  C   -0.293043
    55  C   -0.166748
    56  C   -0.174650
    57  C   -0.152158
    58  C   -0.064428
    59  C   -0.293972
    60  C   -0.158046
    61  C   -0.188702
    62  C   -0.152792
    63  C   -0.087320
    64  C   -0.310200
    65  C   -0.300162
    66  H    0.073037
    67  H    0.097899
    68  H    0.097986
    69  H    0.122453
    70  H    0.109651
    71  H    0.128417
    72  H    0.100259
    73  H    0.112751
    74  H    0.119269
    75  H    0.120142
    76  H    0.124002
    77  H    0.123030
    78  H    0.132222
    79  H    0.124833
    80  H    0.110889
    81  H    0.087416
    82  H    0.073819
    83  H    0.101544
    84  H    0.115841
    85  H    0.121906
    86  H    0.093856
    87  H    0.098739
    88  H    0.075181
    89  H    0.053462
    90  H    0.113540
    91  H    0.122730
    92  H    0.115930
    93  H    0.136306
    94  H    0.132981
    95  H    0.136612
    96  H    0.110097
    97  H    0.139633
    98  H    0.127568
    99  H    0.116128
   100  H    0.109497
   101  H    0.099615
   102  H    0.119984
   103  H    0.098514
   104  H    0.134983
   105  H    0.075692
   106  H    0.104701
   107  H    0.106587
   108  H    0.106085
   109  H    0.109610
   110  H    0.060837
   111  H    0.082941
   112  H    0.110583
   113  H    0.090282
   114  H    0.089208
   115  H    0.097859
   116  H    0.084646
   117  H    0.101159
   118  H    0.072262
   119  H    0.052531
   120  H    0.087333
   121  H    0.070849
   122  H    0.093348
   123  H    0.054906
   124  H    0.117801
   125  H    0.049546
   126  H    0.097989
   127  H    0.095042
   128  H    0.103476
   129  H    0.066087
   130  H    0.082781
   131  H    0.078449
   132  H    0.097566
   133  H    0.097503
   134  H    0.114745
   135  H    0.105591
   136  H    0.109750
   137  H    0.113344
 Sum of Mulliken charges =   0.00000

 Dipole moment (field-independent basis, Debye):
    X=              3.0810    Y=              3.7377    Z=              1.0864  Tot=              4.9642
 Quadrupole moment (field-independent basis, Debye-Ang):
   XX=           -341.6471   YY=           -394.8021   ZZ=           -396.1688
   XY=            -17.4938   XZ=              2.8146   YZ=             -4.2036

 Normal termination of Gaussian 09 at Sat Jun 29 17:29:30 2019.
