 Gaussian 09, Revision D.01,
 Gaussian 09:  ES64L-G09RevD.01 24-Apr-2013

 -------------------------------------
 # td=(NStates=1) CAM-B3LYP/6-31G(d,p)
 -------------------------------------

 --
 TD
 --
 Symbolic Z-matrix:
 Charge =  0 Multiplicity = 1

                         Standard orientation:
 ---------------------------------------------------------------------
 Center     Atomic      Atomic             Coordinates (Angstroms)
 Number     Number       Type             X           Y           Z
 ---------------------------------------------------------------------
      1         12           0       -7.200213    0.645143    0.262779
      2          6           0       -4.930416   -1.961265    0.515218
      3          6           0       -4.812873    2.819096    1.297266
      4          6           0       -9.405481    3.166360   -0.353719
      5          6           0       -9.577016   -1.655754   -0.851899
      6          7           0       -5.092473    0.408394    0.855428
      7          6           0       -4.356685   -0.713451    0.870827
      8          6           0       -2.947105   -0.393902    1.235579
      9          6           0       -3.006724    1.095503    1.738296
     10          6           0       -4.312955    1.541329    1.301963
     11          6           0       -2.814410    1.301141    3.284497
     12          6           0       -1.945588   -0.684006    0.056409
     13          6           0       -0.486725   -0.610495    0.594888
     14          6           0        0.481399   -0.783206   -0.605720
     15          8           0        0.145049   -1.003978   -1.690195
     16          8           0        1.731190   -0.596645   -0.218764
     17          7           0       -7.107620    2.639553    0.385031
     18          6           0       -6.011721    3.354487    0.805894
     19          6           0       -6.378493    4.744721    0.864933
     20          6           0       -7.727455    4.856347    0.413572
     21          6           0       -8.174307    3.540839    0.225099
     22          6           0       -5.465429    5.890621    1.295089
     23          6           0       -8.498343    6.035841    0.328039
     24          6           0       -8.223178    7.327911    0.247519
     25          7           0       -9.108518    0.707168   -0.607336
     26          6           0       -9.744334    1.888969   -0.728447
     27          6           0      -11.068556    1.524326   -1.196649
     28          6           0      -11.182294    0.231302   -1.363075
     29          6           0       -9.923064   -0.376861   -0.936909
     30          6           0      -12.230337    2.551124   -1.615318
     31          6           0      -12.245645   -0.625327   -1.806671
     32          6           0      -12.228874   -0.961313   -3.386586
     33          7           0       -7.308518   -1.387634    0.078671
     34          6           0       -8.247274   -2.165024   -0.416088
     35          6           0       -7.922007   -3.535543   -0.519581
     36          6           0       -6.621270   -3.609252    0.040496
     37          6           0       -6.292196   -2.197946    0.247113
     38          6           0       -8.681284   -4.775052   -0.927347
     39          6           0       -5.444362   -4.352311    0.232854
     40          8           0       -5.175624   -5.561638    0.084797
     41          6           0       -4.330711   -3.304147    0.540701
     42          6           0       -3.554958   -3.666565    1.815877
     43          8           0       -3.800652   -3.282075    2.965584
     44          8           0       -2.664277   -4.692576    1.517214
     45          6           0       -2.222119   -5.326294    2.796882
     46          6           0        2.736688   -0.712988   -1.195544
     47          6           0        4.072652   -0.459965   -0.463813
     48          6           0        5.131241    0.207526   -1.072123
     49          6           0        5.034755    0.990475   -2.317863
     50          6           0        6.431771    0.322031   -0.232005
     51          6           0        7.664913   -0.237577   -0.922731
     52          6           0        8.919669   -0.137491   -0.105470
     53          6           0       10.204266   -0.717899   -0.854817
     54          6           0       10.012138   -2.277820   -1.219430
     55          6           0       11.441744   -0.385574   -0.043738
     56          6           0       12.840698   -0.557404   -0.711548
     57          6           0       14.000639   -0.131950    0.213653
     58          6           0       15.287726   -0.159160   -0.435100
     59          6           0       15.746192   -1.651389   -0.771763
     60          6           0       16.402004    0.466417    0.438271
     61          6           0       17.807443    0.720252   -0.271062
     62          6           0       18.794232    1.291474    0.722001
     63          6           0       20.249097    1.520113    0.074056
     64          6           0       20.384300    2.332927   -1.166159
     65          6           0       21.225380    2.100389    1.240584
     66          1           0       -4.084817    3.639113    1.705813
     67          1           0      -10.182000    4.030198   -0.720180
     68          1           0      -10.303535   -2.463321   -1.147064
     69          1           0       -2.674833   -1.147344    1.918072
     70          1           0       -2.186611    1.626516    1.229816
     71          1           0       -1.695519    1.119877    3.393765
     72          1           0       -3.138233    2.182201    3.505482
     73          1           0       -3.439516    0.667203    3.966328
     74          1           0       -2.089951   -1.775265   -0.419228
     75          1           0       -2.066665    0.071728   -0.660894
     76          1           0       -0.356083    0.233233    1.295395
     77          1           0       -0.199321   -1.654143    1.411191
     78          1           0       -4.949751    6.560660    0.512625
     79          1           0       -6.101689    6.476378    2.029839
     80          1           0       -4.664070    5.392061    2.046164
     81          1           0       -9.552866    5.913863    0.246163
     82          1           0       -9.078425    8.071767    0.090822
     83          1           0       -7.194504    7.810901    0.253279
     84          1           0      -12.082880    2.945680   -2.800586
     85          1           0      -13.430607    2.284133   -1.725878
     86          1           0      -12.361784    3.299213   -0.814476
     87          1           0      -12.366982   -1.559795   -1.315115
     88          1           0      -13.299989   -0.070403   -1.806385
     89          1           0      -13.040795   -1.862327   -3.737615
     90          1           0      -12.352336    0.030525   -3.890609
     91          1           0      -11.142007   -1.421028   -3.368336
     92          1           0       -9.019419   -4.606971   -1.855302
     93          1           0       -8.321354   -5.717796   -0.642240
     94          1           0       -9.425534   -4.915406   -0.243137
     95          1           0       -3.595556   -3.357905   -0.271273
     96          1           0       -1.385818   -4.828612    3.226569
     97          1           0       -3.066050   -5.521591    3.519734
     98          1           0       -1.790353   -6.423117    2.450802
     99          1           0        2.827404   -1.953878   -1.463659
    100          1           0        2.632072   -0.180410   -1.881876
    101          1           0        4.172330   -0.919815    0.495455
    102          1           0        4.164991    1.033437   -2.603834
    103          1           0        5.743678    2.027478   -2.068783
    104          1           0        5.752041    0.547035   -3.020295
    105          1           0        6.445610    1.347207   -0.130419
    106          1           0        6.361449   -0.191731    0.707156
    107          1           0        7.346047   -1.181910   -1.118316
    108          1           0        7.603733    0.196351   -2.033603
    109          1           0        9.302556    0.996655    0.202890
    110          1           0        8.919980   -0.849027    0.737519
    111          1           0       10.143512   -0.307817   -1.963115
    112          1           0        9.236043   -2.150244   -1.898958
    113          1           0       10.844234   -2.850060   -1.798061
    114          1           0        9.725656   -2.964295   -0.379856
    115          1           0       11.409497    0.680419    0.423318
    116          1           0       11.237698   -0.979499    0.825695
    117          1           0       12.783182   -1.688799   -0.994863
    118          1           0       12.780230    0.013560   -1.649570
    119          1           0       13.775315    0.967006    0.556030
    120          1           0       14.082164   -0.812868    1.277228
    121          1           0       15.292032    0.465581   -1.391089
    122          1           0       15.970660   -2.156668    0.047341
    123          1           0       14.888647   -2.061833   -1.307123
    124          1           0       16.593992   -1.748589   -1.398173
    125          1           0       15.971673    1.456765    0.917236
    126          1           0       16.622184   -0.345773    1.380136
    127          1           0       18.146460   -0.360812   -0.522709
    128          1           0       17.782293    1.318927   -1.164268
    129          1           0       18.670066    2.548581    0.807713
    130          1           0       19.067402    0.839122    1.769679
    131          1           0       20.578189    0.341523    0.093325
    132          1           0       20.231462    3.397404   -0.852928
    133          1           0       21.502733    2.267379   -1.380690
    134          1           0       19.452646    1.987960   -1.979389
    135          1           0       21.410736    1.318910    2.023053
    136          1           0       22.249894    2.594886    0.709161
    137          1           0       20.627768    2.941304    1.561714
 ---------------------------------------------------------------------

 SCF Done:  E(RCAM-B3LYP) =  -2932.52198298     A.U. after   17 cycles

 Excitation energies and oscillator strengths:

 Excited State   1:      Singlet-A      1.8384 eV  674.41 nm  f=0.3848  <S**2>=0.000
     240 -> 243       -0.19622
     241 -> 242        0.67298
 This state for optimization and/or second-order correction.
 Total Energy, E(TD-HF/TD-KS) =  -2932.45442240
 Copying the excited state density for this state as the 1-particle RhoCI density.

 The electronic state is 1-A.
 Alpha  occ. eigenvalues --  -46.84998 -19.26395 -19.26207 -19.21351 -19.21314
 Alpha  occ. eigenvalues --  -19.19405 -14.42236 -14.39802 -14.39725 -14.39421
 Alpha  occ. eigenvalues --  -10.39510 -10.39062 -10.34517 -10.32059 -10.31677
 Alpha  occ. eigenvalues --  -10.31015 -10.30968 -10.30010 -10.29981 -10.29893
 Alpha  occ. eigenvalues --  -10.29754 -10.29530 -10.29193 -10.28827 -10.28812
 Alpha  occ. eigenvalues --  -10.28525 -10.28501 -10.28487 -10.28236 -10.27939
 Alpha  occ. eigenvalues --  -10.27894 -10.27790 -10.27765 -10.27548 -10.27502
 Alpha  occ. eigenvalues --  -10.27495 -10.27463 -10.27445 -10.27394 -10.27360
 Alpha  occ. eigenvalues --  -10.27293 -10.27231 -10.27222 -10.27131 -10.26897
 Alpha  occ. eigenvalues --  -10.26712 -10.26637 -10.26571 -10.26564 -10.26519
 Alpha  occ. eigenvalues --  -10.26423 -10.26332 -10.26320 -10.26281 -10.26051
 Alpha  occ. eigenvalues --  -10.26048 -10.25900 -10.25811 -10.25363 -10.25324
 Alpha  occ. eigenvalues --  -10.25284 -10.25193 -10.24889 -10.24222 -10.22877
 Alpha  occ. eigenvalues --   -3.13935  -1.88650  -1.88152  -1.88121  -1.20905
 Alpha  occ. eigenvalues --   -1.15922  -1.12228  -1.08681  -1.07648  -1.06750
 Alpha  occ. eigenvalues --   -1.03866  -1.03541  -1.02529  -0.93326  -0.91546
 Alpha  occ. eigenvalues --   -0.90349  -0.89979  -0.89652  -0.89249  -0.88919
 Alpha  occ. eigenvalues --   -0.88542  -0.88010  -0.87895  -0.87717  -0.86156
 Alpha  occ. eigenvalues --   -0.85331  -0.83942  -0.82892  -0.82846  -0.82251
 Alpha  occ. eigenvalues --   -0.81718  -0.80935  -0.80150  -0.80058  -0.79295
 Alpha  occ. eigenvalues --   -0.78165  -0.76688  -0.76196  -0.75974  -0.75908
 Alpha  occ. eigenvalues --   -0.74820  -0.74648  -0.74195  -0.73580  -0.73002
 Alpha  occ. eigenvalues --   -0.72082  -0.70316  -0.69414  -0.68980  -0.68357
 Alpha  occ. eigenvalues --   -0.67384  -0.66533  -0.66332  -0.65521  -0.64870
 Alpha  occ. eigenvalues --   -0.64195  -0.64096  -0.62286  -0.61422  -0.61224
 Alpha  occ. eigenvalues --   -0.60828  -0.60155  -0.59796  -0.59325  -0.59184
 Alpha  occ. eigenvalues --   -0.59138  -0.58721  -0.58469  -0.57563  -0.56896
 Alpha  occ. eigenvalues --   -0.56616  -0.55789  -0.55554  -0.55365  -0.54779
 Alpha  occ. eigenvalues --   -0.54586  -0.54425  -0.53897  -0.53584  -0.53264
 Alpha  occ. eigenvalues --   -0.53241  -0.52825  -0.52620  -0.51639  -0.51572
 Alpha  occ. eigenvalues --   -0.51191  -0.50995  -0.50880  -0.50863  -0.50671
 Alpha  occ. eigenvalues --   -0.50527  -0.50241  -0.49956  -0.49836  -0.49439
 Alpha  occ. eigenvalues --   -0.49402  -0.48967  -0.48795  -0.48678  -0.48500
 Alpha  occ. eigenvalues --   -0.48171  -0.48029  -0.47795  -0.47519  -0.47115
 Alpha  occ. eigenvalues --   -0.46887  -0.46721  -0.46495  -0.46394  -0.46097
 Alpha  occ. eigenvalues --   -0.45668  -0.45596  -0.45594  -0.45115  -0.44874
 Alpha  occ. eigenvalues --   -0.44778  -0.44443  -0.44354  -0.44293  -0.44133
 Alpha  occ. eigenvalues --   -0.43869  -0.43783  -0.43500  -0.43466  -0.43255
 Alpha  occ. eigenvalues --   -0.42822  -0.42565  -0.42494  -0.42199  -0.41908
 Alpha  occ. eigenvalues --   -0.41827  -0.41782  -0.41544  -0.41494  -0.41410
 Alpha  occ. eigenvalues --   -0.41113  -0.40989  -0.40954  -0.40399  -0.40106
 Alpha  occ. eigenvalues --   -0.39941  -0.39870  -0.39227  -0.39037  -0.38959
 Alpha  occ. eigenvalues --   -0.38917  -0.38806  -0.38512  -0.38010  -0.37784
 Alpha  occ. eigenvalues --   -0.37582  -0.37320  -0.37085  -0.36923  -0.36697
 Alpha  occ. eigenvalues --   -0.36520  -0.36484  -0.36090  -0.35837  -0.35828
 Alpha  occ. eigenvalues --   -0.35555  -0.34788  -0.34372  -0.33971  -0.33764
 Alpha  occ. eigenvalues --   -0.33280  -0.32247  -0.31785  -0.31143  -0.30178
 Alpha  occ. eigenvalues --   -0.29719  -0.28929  -0.28475  -0.27106  -0.23591
 Alpha  occ. eigenvalues --   -0.21073
 Alpha virt. eigenvalues --   -0.08025  -0.02413   0.00935   0.03830   0.05345
 Alpha virt. eigenvalues --    0.05354   0.05617   0.06391   0.06678   0.06971
 Alpha virt. eigenvalues --    0.08252   0.10092   0.10116   0.10580   0.11204

 Mulliken charges:
               1
     1  Mg   0.827562
     2  C    0.077387
     3  C   -0.202805
     4  C   -0.178398
     5  C   -0.198693
     6  N   -0.639535
     7  C    0.347508
     8  C   -0.162204
     9  C   -0.164770
    10  C    0.323359
    11  C   -0.292733
    12  C   -0.171210
    13  C   -0.261999
    14  C    0.609042
    15  O   -0.434193
    16  O   -0.459561
    17  N   -0.734415
    18  C    0.346695
    19  C   -0.015706
    20  C    0.053027
    21  C    0.279797
    22  C   -0.368341
    23  C   -0.070668
    24  C   -0.264082
    25  N   -0.743591
    26  C    0.367355
    27  C   -0.037641
    28  C    0.129375
    29  C    0.320540
    30  C   -0.362679
    31  C   -0.288350
    32  C   -0.285612
    33  N   -0.683294
    34  C    0.268964
    35  C   -0.009305
    36  C    0.036972
    37  C    0.239766
    38  C   -0.350469
    39  C    0.347750
    40  O   -0.485367
    41  C   -0.320454
    42  C    0.613612
    43  O   -0.485662
    44  O   -0.459610
    45  C   -0.085812
    46  C    0.084330
    47  C   -0.157807
    48  C    0.079672
    49  C   -0.313697
    50  C   -0.211198
    51  C   -0.178515
    52  C   -0.160095
    53  C   -0.081616
    54  C   -0.322069
    55  C   -0.164777
    56  C   -0.178590
    57  C   -0.140046
    58  C   -0.052933
    59  C   -0.318214
    60  C   -0.154981
    61  C   -0.162490
    62  C   -0.145417
    63  C   -0.059709
    64  C   -0.289857
    65  C   -0.305347
    66  H    0.082890
    67  H    0.113751
    68  H    0.099360
    69  H    0.125262
    70  H    0.112822
    71  H    0.101512
    72  H    0.122602
    73  H    0.125718
    74  H    0.117237
    75  H    0.127320
    76  H    0.131704
    77  H    0.080733
    78  H    0.127586
    79  H    0.128267
    80  H    0.088344
    81  H    0.084947
    82  H    0.096389
    83  H    0.096243
    84  H    0.099761
    85  H    0.097126
    86  H    0.119797
    87  H    0.113698
    88  H    0.087789
    89  H    0.082680
    90  H    0.116944
    91  H    0.094079
    92  H    0.130222
    93  H    0.147689
    94  H    0.133692
    95  H    0.160576
    96  H    0.133128
    97  H    0.147874
    98  H    0.103418
    99  H    0.089508
   100  H    0.088247
   101  H    0.095260
   102  H    0.106450
   103  H    0.086336
   104  H    0.128262
   105  H    0.107761
   106  H    0.098116
   107  H    0.120288
   108  H    0.065342
   109  H    0.083239
   110  H    0.102971
   111  H    0.063874
   112  H    0.117969
   113  H    0.094435
   114  H    0.093356
   115  H    0.065886
   116  H    0.094875
   117  H    0.093368
   118  H    0.102555
   119  H    0.082470
   120  H    0.063548
   121  H    0.077071
   122  H    0.112277
   123  H    0.098791
   124  H    0.104252
   125  H    0.072864
   126  H    0.052768
   127  H    0.091683
   128  H    0.102156
   129  H    0.043245
   130  H    0.094247
   131  H    0.052491
   132  H    0.103836
   133  H    0.116258
   134  H    0.078968
   135  H    0.108025
   136  H    0.068732
   137  H    0.108867
 Sum of Mulliken charges =   0.00000

 Dipole moment (field-independent basis, Debye):
    X=              1.3595    Y=              4.1483    Z=              0.6083  Tot=              4.4075
 Quadrupole moment (field-independent basis, Debye-Ang):
   XX=           -359.1532   YY=           -399.3117   ZZ=           -400.9956
   XY=            -20.3336   XZ=              3.3247   YZ=             -4.6909

 Normal termination of Gaussian 09 at Sat Jun 29 16:49:37 2019.
