 Gaussian 09, Revision D.01,
 Gaussian 09:  ES64L-G09RevD.01 24-Apr-2013

 -------------------------------------
 # td=(NStates=1) CAM-B3LYP/6-31G(d,p)
 -------------------------------------

 --
 TD
 --
 Symbolic Z-matrix:
 Charge =  0 Multiplicity = 1

                         Standard orientation:
 ---------------------------------------------------------------------
 Center     Atomic      Atomic             Coordinates (Angstroms)
 Number     Number       Type             X           Y           Z
 ---------------------------------------------------------------------
      1         12           0       -7.180056    0.559377    0.097823
      2          6           0       -4.936486   -1.869673    0.545345
      3          6           0       -4.802255    2.835643    1.185725
      4          6           0       -9.513991    3.031468   -0.297527
      5          6           0       -9.493887   -1.691553   -0.933362
      6          7           0       -5.094576    0.431299    0.783850
      7          6           0       -4.383041   -0.674897    0.803355
      8          6           0       -2.935275   -0.365161    1.273568
      9          6           0       -3.000598    1.018318    1.719444
     10          6           0       -4.374614    1.543067    1.158878
     11          6           0       -3.075695    1.239171    3.226015
     12          6           0       -1.913621   -0.553026    0.011663
     13          6           0       -0.464211   -0.500013    0.546636
     14          6           0        0.456192   -0.482473   -0.573864
     15          8           0        0.220741   -0.799275   -1.732400
     16          8           0        1.768254   -0.386660   -0.237060
     17          7           0       -7.183576    2.528460    0.316725
     18          6           0       -6.144566    3.301548    0.858891
     19          6           0       -6.528728    4.689017    0.802865
     20          6           0       -7.837199    4.869819    0.364259
     21          6           0       -8.272663    3.398909    0.085131
     22          6           0       -5.644560    5.774256    1.378464
     23          6           0       -8.636912    6.010831    0.214833
     24          6           0       -8.212704    7.239666   -0.026329
     25          7           0       -9.112693    0.664739   -0.515365
     26          6           0       -9.899396    1.732864   -0.583172
     27          6           0      -11.182708    1.438411   -1.134365
     28          6           0      -11.164460   -0.000313   -1.243534
     29          6           0       -9.891681   -0.422456   -0.865257
     30          6           0      -12.388245    2.299317   -1.290590
     31          6           0      -12.362355   -0.922465   -1.712247
     32          6           0      -12.369161   -1.256773   -3.186574
     33          7           0       -7.255707   -1.382227   -0.092273
     34          6           0       -8.295642   -2.315350   -0.514786
     35          6           0       -7.888345   -3.589784   -0.377756
     36          6           0       -6.479911   -3.546913   -0.004176
     37          6           0       -6.171303   -2.183288    0.141498
     38          6           0       -8.684254   -4.895535   -0.745140
     39          6           0       -5.289555   -4.293059    0.260838
     40          8           0       -5.136602   -5.561293    0.356504
     41          6           0       -4.156492   -3.313182    0.562049
     42          6           0       -3.519580   -3.587457    1.894175
     43          8           0       -3.774071   -3.016315    2.941724
     44          8           0       -2.635379   -4.607460    1.619941
     45          6           0       -1.907913   -5.000640    2.787622
     46          6           0        2.830066   -0.571513   -1.138028
     47          6           0        4.103254   -0.321989   -0.565524
     48          6           0        5.142664    0.393636   -1.099204
     49          6           0        5.092727    1.070454   -2.430195
     50          6           0        6.424942    0.583968   -0.428965
     51          6           0        7.692858   -0.053847   -1.188564
     52          6           0        8.904113   -0.131948   -0.218866
     53          6           0       10.164097   -0.615589   -0.918832
     54          6           0       10.211217   -2.059230   -1.373796
     55          6           0       11.423272   -0.289947   -0.042615
     56          6           0       12.723489   -0.398055   -0.769916
     57          6           0       13.989972    0.045702    0.129503
     58          6           0       15.372239   -0.252950   -0.523029
     59          6           0       15.673101   -1.709052   -0.889037
     60          6           0       16.458890    0.427979    0.416068
     61          6           0       17.881151    0.550082   -0.206138
     62          6           0       18.810324    1.200353    0.732499
     63          6           0       20.341151    1.265376    0.450254
     64          6           0       20.523402    1.991284   -0.895997
     65          6           0       21.184852    1.883582    1.573624
     66          1           0       -4.144527    3.685888    1.377442
     67          1           0      -10.102097    3.793211   -0.481195
     68          1           0      -10.428080   -2.443806   -1.182520
     69          1           0       -2.679953   -0.864053    1.988591
     70          1           0       -2.236656    1.737472    1.222227
     71          1           0       -2.168996    0.887035    3.867220
     72          1           0       -3.137843    2.331014    3.449793
     73          1           0       -4.034078    0.841858    3.934670
     74          1           0       -1.941582   -1.493278   -0.494156
     75          1           0       -2.234697    0.101053   -0.801258
     76          1           0       -0.298910    0.383672    1.160282
     77          1           0       -0.183581   -1.416549    1.132764
     78          1           0       -5.068853    6.273604    0.683274
     79          1           0       -5.995537    6.855314    1.870684
     80          1           0       -4.967317    5.405943    2.122107
     81          1           0       -9.752538    5.910323    0.370118
     82          1           0       -8.887448    7.983169   -0.267950
     83          1           0       -7.087747    7.517124   -0.036265
     84          1           0      -12.049262    3.001784   -2.078888
     85          1           0      -13.257659    1.790087   -1.520898
     86          1           0      -12.759368    2.867746   -0.307464
     87          1           0      -12.167056   -1.880154   -0.976574
     88          1           0      -13.457087   -0.676314   -1.547795
     89          1           0      -13.161874   -1.775923   -3.379553
     90          1           0      -12.409529   -0.151793   -3.721592
     91          1           0      -11.416038   -1.945603   -3.451531
     92          1           0       -8.883647   -4.798050   -1.799064
     93          1           0       -7.965667   -5.760784   -0.529331
     94          1           0       -9.548458   -4.955348   -0.037250
     95          1           0       -3.459975   -3.307641   -0.127562
     96          1           0       -1.517271   -4.149678    3.382373
     97          1           0       -2.656411   -5.412848    3.511140
     98          1           0       -1.075440   -5.690623    2.375455
     99          1           0        2.758788   -1.656737   -1.582159
    100          1           0        2.749386   -0.039796   -2.003119
    101          1           0        4.342404   -0.905934    0.426946
    102          1           0        4.078975    1.430764   -2.679594
    103          1           0        5.806269    2.142326   -2.379780
    104          1           0        5.324279    0.352745   -3.302464
    105          1           0        6.445560    1.671340   -0.424158
    106          1           0        6.450309    0.155178    0.589756
    107          1           0        7.417828   -0.945678   -1.627039
    108          1           0        7.993862    0.683852   -2.096419
    109          1           0        9.126245    0.885632    0.297895
    110          1           0        8.744542   -0.775172    0.654347
    111          1           0       10.170812   -0.015538   -1.965476
    112          1           0        9.319390   -2.340936   -1.818678
    113          1           0       11.173315   -2.520880   -1.883812
    114          1           0       10.111408   -2.727088   -0.442424
    115          1           0       11.359772    0.883303    0.336474
    116          1           0       11.243880   -0.951705    0.696887
    117          1           0       12.983258   -1.322079   -1.113763
    118          1           0       12.577060    0.279080   -1.657195
    119          1           0       13.897624    0.986092    0.322927
    120          1           0       13.763385   -0.367343    1.164305
    121          1           0       15.310602    0.244384   -1.556775
    122          1           0       15.885950   -2.402748   -0.028314
    123          1           0       14.945293   -1.943800   -1.577018
    124          1           0       16.758227   -1.816531   -1.100838
    125          1           0       16.134478    1.471954    0.453363
    126          1           0       16.452328   -0.144973    1.384194
    127          1           0       18.123827   -0.647961   -0.385409
    128          1           0       17.702192    0.977568   -1.186233
    129          1           0       18.501688    2.280603    0.642978
    130          1           0       18.379457    0.698797    1.631690
    131          1           0       20.771543    0.334712    0.248086
    132          1           0       20.421491    2.970707   -0.678834
    133          1           0       21.561024    1.723478   -1.322087
    134          1           0       19.804876    1.701185   -1.662177
    135          1           0       21.180832    1.259650    2.616277
    136          1           0       22.300783    1.757200    1.420563
    137          1           0       20.713439    2.750572    1.990772
 ---------------------------------------------------------------------

 SCF Done:  E(RCAM-B3LYP) =  -2932.64739348     A.U. after   16 cycles

 Excitation energies and oscillator strengths:

 Excited State   1:      Singlet-A      2.2096 eV  561.11 nm  f=0.3000  <S**2>=0.000
     240 -> 242       -0.24556
     240 -> 243        0.19756
     241 -> 242        0.60008
     241 -> 243        0.17680
 This state for optimization and/or second-order correction.
 Total Energy, E(TD-HF/TD-KS) =  -2932.56619069
 Copying the excited state density for this state as the 1-particle RhoCI density.

 The electronic state is 1-A.
 Alpha  occ. eigenvalues --  -46.82910 -19.26384 -19.24980 -19.21729 -19.20111
 Alpha  occ. eigenvalues --  -19.18075 -14.41100 -14.40437 -14.38859 -14.38085
 Alpha  occ. eigenvalues --  -10.39247 -10.38870 -10.33665 -10.31859 -10.31564
 Alpha  occ. eigenvalues --  -10.31401 -10.30755 -10.30518 -10.29715 -10.28913
 Alpha  occ. eigenvalues --  -10.28760 -10.28549 -10.28546 -10.28541 -10.28387
 Alpha  occ. eigenvalues --  -10.28288 -10.28238 -10.28085 -10.27971 -10.27959
 Alpha  occ. eigenvalues --  -10.27955 -10.27933 -10.27484 -10.27357 -10.27149
 Alpha  occ. eigenvalues --  -10.27014 -10.26956 -10.26884 -10.26881 -10.26770
 Alpha  occ. eigenvalues --  -10.26685 -10.26659 -10.26596 -10.26582 -10.26353
 Alpha  occ. eigenvalues --  -10.26353 -10.26337 -10.26254 -10.25988 -10.25929
 Alpha  occ. eigenvalues --  -10.25703 -10.25698 -10.25690 -10.25572 -10.25560
 Alpha  occ. eigenvalues --  -10.25408 -10.25304 -10.25286 -10.25274 -10.25212
 Alpha  occ. eigenvalues --  -10.24561 -10.24361 -10.24056 -10.24000 -10.23728
 Alpha  occ. eigenvalues --   -3.12233  -1.86915  -1.86472  -1.86441  -1.17856
 Alpha  occ. eigenvalues --   -1.17320  -1.09651  -1.08001  -1.05931  -1.04776
 Alpha  occ. eigenvalues --   -1.04330  -1.02014  -1.01434  -0.92182  -0.91605
 Alpha  occ. eigenvalues --   -0.90775  -0.90355  -0.90236  -0.89799  -0.89776
 Alpha  occ. eigenvalues --   -0.88189  -0.87914  -0.87690  -0.87112  -0.86186
 Alpha  occ. eigenvalues --   -0.85143  -0.84714  -0.83992  -0.83719  -0.83600
 Alpha  occ. eigenvalues --   -0.82068  -0.81873  -0.80697  -0.79860  -0.78268
 Alpha  occ. eigenvalues --   -0.78119  -0.77628  -0.76051  -0.75712  -0.75618
 Alpha  occ. eigenvalues --   -0.75520  -0.75306  -0.74200  -0.73484  -0.73213
 Alpha  occ. eigenvalues --   -0.71757  -0.71119  -0.69396  -0.68988  -0.68576
 Alpha  occ. eigenvalues --   -0.67462  -0.66661  -0.66079  -0.65927  -0.65116
 Alpha  occ. eigenvalues --   -0.64023  -0.63732  -0.63020  -0.62806  -0.62674
 Alpha  occ. eigenvalues --   -0.62007  -0.60784  -0.60758  -0.59675  -0.58959
 Alpha  occ. eigenvalues --   -0.58509  -0.58281  -0.57752  -0.57191  -0.56709
 Alpha  occ. eigenvalues --   -0.56149  -0.55895  -0.55755  -0.55073  -0.54880
 Alpha  occ. eigenvalues --   -0.54741  -0.54402  -0.53916  -0.53693  -0.53541
 Alpha  occ. eigenvalues --   -0.53028  -0.52692  -0.52583  -0.52366  -0.52228
 Alpha  occ. eigenvalues --   -0.51459  -0.51365  -0.51087  -0.50990  -0.50677
 Alpha  occ. eigenvalues --   -0.50415  -0.50254  -0.49980  -0.49821  -0.49629
 Alpha  occ. eigenvalues --   -0.49451  -0.49217  -0.48874  -0.48852  -0.48322
 Alpha  occ. eigenvalues --   -0.48186  -0.48006  -0.47899  -0.47474  -0.47226
 Alpha  occ. eigenvalues --   -0.46970  -0.46599  -0.46245  -0.46043  -0.45865
 Alpha  occ. eigenvalues --   -0.45805  -0.45775  -0.45376  -0.44998  -0.44789
 Alpha  occ. eigenvalues --   -0.44467  -0.44207  -0.43929  -0.43846  -0.43772
 Alpha  occ. eigenvalues --   -0.43565  -0.43406  -0.43125  -0.43099  -0.42974
 Alpha  occ. eigenvalues --   -0.42905  -0.42768  -0.42561  -0.42412  -0.42221
 Alpha  occ. eigenvalues --   -0.41909  -0.41369  -0.41150  -0.40935  -0.40884
 Alpha  occ. eigenvalues --   -0.40673  -0.40647  -0.40414  -0.40150  -0.40063
 Alpha  occ. eigenvalues --   -0.39955  -0.39820  -0.39721  -0.39354  -0.39133
 Alpha  occ. eigenvalues --   -0.39053  -0.38573  -0.38408  -0.38272  -0.38113
 Alpha  occ. eigenvalues --   -0.37806  -0.37647  -0.37277  -0.36813  -0.36785
 Alpha  occ. eigenvalues --   -0.36469  -0.36405  -0.35781  -0.35676  -0.35666
 Alpha  occ. eigenvalues --   -0.35493  -0.34988  -0.34608  -0.33855  -0.33565
 Alpha  occ. eigenvalues --   -0.33098  -0.32921  -0.32811  -0.31884  -0.28740
 Alpha  occ. eigenvalues --   -0.28716  -0.28627  -0.27926  -0.27534  -0.23894
 Alpha  occ. eigenvalues --   -0.21743
 Alpha virt. eigenvalues --   -0.06974  -0.03458   0.01467   0.03991   0.05417
 Alpha virt. eigenvalues --    0.05730   0.06093   0.06562   0.07079   0.07378
 Alpha virt. eigenvalues --    0.08867   0.10549   0.10976   0.11486   0.11492

 Mulliken charges:
               1
     1  Mg   0.807420
     2  C    0.023920
     3  C   -0.207689
     4  C   -0.132266
     5  C   -0.213084
     6  N   -0.627651
     7  C    0.300643
     8  C   -0.072040
     9  C   -0.151911
    10  C    0.333547
    11  C   -0.307215
    12  C   -0.197964
    13  C   -0.270323
    14  C    0.599083
    15  O   -0.479561
    16  O   -0.485569
    17  N   -0.716953
    18  C    0.319448
    19  C    0.002913
    20  C    0.063152
    21  C    0.280264
    22  C   -0.394202
    23  C   -0.097936
    24  C   -0.228808
    25  N   -0.709842
    26  C    0.323557
    27  C   -0.012944
    28  C    0.013738
    29  C    0.367600
    30  C   -0.352613
    31  C   -0.239007
    32  C   -0.269062
    33  N   -0.759902
    34  C    0.281619
    35  C   -0.014090
    36  C    0.033747
    37  C    0.323117
    38  C   -0.359713
    39  C    0.324341
    40  O   -0.515803
    41  C   -0.268074
    42  C    0.638368
    43  O   -0.472440
    44  O   -0.447358
    45  C   -0.094483
    46  C    0.049129
    47  C   -0.134586
    48  C    0.122555
    49  C   -0.360486
    50  C   -0.223628
    51  C   -0.175227
    52  C   -0.173168
    53  C   -0.060123
    54  C   -0.311907
    55  C   -0.153864
    56  C   -0.186142
    57  C   -0.166944
    58  C   -0.071187
    59  C   -0.305102
    60  C   -0.193714
    61  C   -0.171578
    62  C   -0.146529
    63  C   -0.054221
    64  C   -0.314470
    65  C   -0.313242
    66  H    0.092216
    67  H    0.066048
    68  H    0.086678
    69  H    0.093403
    70  H    0.103688
    71  H    0.098989
    72  H    0.110951
    73  H    0.108823
    74  H    0.131671
    75  H    0.126933
    76  H    0.138393
    77  H    0.155206
    78  H    0.136504
    79  H    0.097786
    80  H    0.120674
    81  H    0.104381
    82  H    0.108606
    83  H    0.098473
    84  H    0.120937
    85  H    0.124384
    86  H    0.101663
    87  H    0.078711
    88  H    0.104813
    89  H    0.122753
    90  H    0.091169
    91  H    0.090266
    92  H    0.133541
    93  H    0.149725
    94  H    0.123726
    95  H    0.158004
    96  H    0.122280
    97  H    0.135819
    98  H    0.123019
    99  H    0.099690
   100  H    0.111949
   101  H    0.074476
   102  H    0.124655
   103  H    0.077138
   104  H    0.126868
   105  H    0.108820
   106  H    0.098451
   107  H    0.115379
   108  H    0.081846
   109  H    0.091626
   110  H    0.091909
   111  H    0.054565
   112  H    0.112003
   113  H    0.105546
   114  H    0.077704
   115  H    0.058254
   116  H    0.100064
   117  H    0.099959
   118  H    0.085820
   119  H    0.101332
   120  H    0.076536
   121  H    0.075683
   122  H    0.089081
   123  H    0.112004
   124  H    0.099777
   125  H    0.094617
   126  H    0.094708
   127  H    0.049367
   128  H    0.095625
   129  H    0.079731
   130  H    0.090438
   131  H    0.093727
   132  H    0.112851
   133  H    0.087145
   134  H    0.107785
   135  H    0.069548
   136  H    0.107535
   137  H    0.112017
 Sum of Mulliken charges =   0.00000

 Dipole moment (field-independent basis, Debye):
    X=              0.2956    Y=              6.5715    Z=              0.3820  Tot=              6.5893
 Quadrupole moment (field-independent basis, Debye-Ang):
   XX=           -332.6709   YY=           -394.6245   ZZ=           -399.8362
   XY=            -39.8109   XZ=             13.6208   YZ=              0.8849

 Normal termination of Gaussian 09 at Mon Jul  1 10:44:18 2019.
