 Gaussian 09, Revision D.01,
 Gaussian 09:  ES64L-G09RevD.01 24-Apr-2013

 -------------------------------------
 # td=(NStates=1) CAM-B3LYP/6-31G(d,p)
 -------------------------------------

 --
 TD
 --
 Symbolic Z-matrix:
 Charge =  0 Multiplicity = 1

                         Standard orientation:
 ---------------------------------------------------------------------
 Center     Atomic      Atomic             Coordinates (Angstroms)
 Number     Number       Type             X           Y           Z
 ---------------------------------------------------------------------
      1         12           0       -7.074034    0.534502    0.074812
      2          6           0       -4.839216   -1.918729    0.551984
      3          6           0       -4.856282    2.897032    1.145182
      4          6           0       -9.444643    3.043020   -0.531761
      5          6           0       -9.553177   -1.850136   -0.875013
      6          7           0       -5.113814    0.514489    0.658601
      7          6           0       -4.374638   -0.668649    0.714156
      8          6           0       -2.931544   -0.380157    1.149428
      9          6           0       -2.978435    1.154137    1.529668
     10          6           0       -4.347666    1.553827    1.083122
     11          6           0       -2.861748    1.388610    3.106432
     12          6           0       -1.856574   -0.592817    0.065493
     13          6           0       -0.518900   -0.452426    0.654793
     14          6           0        0.482381   -0.577182   -0.498785
     15          8           0        0.252149   -0.892865   -1.667364
     16          8           0        1.809548   -0.349599   -0.021904
     17          7           0       -7.108662    2.622159    0.312486
     18          6           0       -6.120492    3.363435    0.767866
     19          6           0       -6.466910    4.703293    0.974766
     20          6           0       -7.775942    4.795397    0.476538
     21          6           0       -8.198790    3.413010    0.149743
     22          6           0       -5.723218    5.851929    1.503381
     23          6           0       -8.758207    5.938386    0.394184
     24          6           0       -8.412744    7.205430    0.123090
     25          7           0       -9.172692    0.635557   -0.452780
     26          6           0       -9.900831    1.753458   -0.662832
     27          6           0      -11.192858    1.398866   -1.170240
     28          6           0      -11.246327    0.029789   -1.211159
     29          6           0      -10.034612   -0.414377   -0.839620
     30          6           0      -12.278652    2.440993   -1.561321
     31          6           0      -12.421231   -0.690213   -1.715899
     32          6           0      -12.191886   -1.083478   -3.170150
     33          7           0       -7.235298   -1.466530   -0.154007
     34          6           0       -8.321540   -2.313106   -0.611649
     35          6           0       -7.836374   -3.638178   -0.502105
     36          6           0       -6.457505   -3.612860   -0.142269
     37          6           0       -6.178709   -2.205733    0.128293
     38          6           0       -8.560053   -4.952138   -0.903068
     39          6           0       -5.249909   -4.367506    0.081645
     40          8           0       -5.101054   -5.628839    0.007450
     41          6           0       -4.126204   -3.302193    0.565533
     42          6           0       -3.524530   -3.682065    1.925325
     43          8           0       -3.666641   -3.078694    3.009208
     44          8           0       -2.785479   -4.797841    1.851526
     45          6           0       -2.111554   -5.134694    3.046370
     46          6           0        2.740924   -0.638599   -1.013560
     47          6           0        4.169582   -0.377017   -0.426519
     48          6           0        5.086235    0.489037   -0.910249
     49          6           0        5.051078    1.215059   -2.272196
     50          6           0        6.468213    0.577607   -0.193105
     51          6           0        7.639386   -0.152020   -0.825209
     52          6           0        8.904517    0.025454   -0.086760
     53          6           0       10.172364   -0.578893   -0.829021
     54          6           0        9.967977   -2.023177   -1.139314
     55          6           0       11.426819   -0.315106   -0.095823
     56          6           0       12.774255   -0.606121   -0.680856
     57          6           0       14.039441   -0.083083    0.058740
     58          6           0       15.362296   -0.206085   -0.546250
     59          6           0       15.720807   -1.645631   -0.899031
     60          6           0       16.422591    0.373006    0.407755
     61          6           0       17.852576    0.423844   -0.247156
     62          6           0       18.826441    1.196560    0.624247
     63          6           0       20.310492    1.351356    0.204369
     64          6           0       20.392248    2.121399   -1.154917
     65          6           0       21.188414    1.990570    1.260427
     66          1           0       -4.143984    3.550360    1.523791
     67          1           0      -10.087998    3.970898   -0.832651
     68          1           0      -10.255409   -2.615149   -1.276416
     69          1           0       -2.443718   -0.916219    1.859415
     70          1           0       -2.318134    1.917695    1.044279
     71          1           0       -1.719977    0.936322    3.357084
     72          1           0       -3.099201    2.558355    3.374675
     73          1           0       -3.518137    0.651214    3.746783
     74          1           0       -2.004878   -1.662233   -0.397828
     75          1           0       -1.971282    0.245045   -0.795079
     76          1           0       -0.238594    0.544897    1.115794
     77          1           0       -0.172488   -1.136869    1.328688
     78          1           0       -4.876156    6.412945    0.874306
     79          1           0       -6.481406    6.637429    1.738199
     80          1           0       -5.162764    5.710548    2.374714
     81          1           0       -9.816721    5.545693    0.624731
     82          1           0       -9.211114    8.062246   -0.003044
     83          1           0       -7.466718    7.541859    0.099150
     84          1           0      -12.075315    2.804090   -2.534054
     85          1           0      -13.359212    2.004446   -1.623287
     86          1           0      -12.640900    3.177764   -0.840506
     87          1           0      -12.600566   -1.727737   -1.138926
     88          1           0      -13.406904   -0.210471   -1.700127
     89          1           0      -12.972686   -1.513832   -3.536957
     90          1           0      -11.940348   -0.330408   -3.927432
     91          1           0      -11.292083   -1.755393   -3.189114
     92          1           0       -8.734510   -4.764950   -1.892837
     93          1           0       -7.829507   -5.817087   -0.709626
     94          1           0       -9.332415   -5.208920   -0.367613
     95          1           0       -3.299479   -3.265130   -0.077860
     96          1           0       -1.296419   -4.386386    3.236285
     97          1           0       -2.771484   -5.540116    3.726610
     98          1           0       -1.522112   -6.132080    2.821801
     99          1           0        2.750054   -1.663374   -1.411938
    100          1           0        2.545781    0.070884   -1.991899
    101          1           0        4.425041   -0.959243    0.391939
    102          1           0        3.990367    1.247623   -2.658392
    103          1           0        5.422483    2.376305   -2.238289
    104          1           0        5.864502    0.723644   -2.709253
    105          1           0        6.747799    1.704653    0.054856
    106          1           0        6.196462    0.104156    0.755980
    107          1           0        7.370437   -1.167480   -0.990395
    108          1           0        7.710088    0.143517   -1.892411
    109          1           0        9.110788    1.159386    0.254186
    110          1           0        8.638742   -0.404330    0.779897
    111          1           0       10.270615   -0.283721   -1.904632
    112          1           0        9.149461   -2.264397   -1.658899
    113          1           0       10.764386   -2.303926   -1.709234
    114          1           0        9.679123   -2.783094   -0.104140
    115          1           0       11.474665    0.710035    0.263665
    116          1           0       11.504837   -0.905088    0.583442
    117          1           0       12.965253   -1.691484   -0.970124
    118          1           0       12.764649   -0.171474   -1.881918
    119          1           0       13.777302    0.820470    0.553799
    120          1           0       13.985239   -0.663681    0.958486
    121          1           0       15.424889    0.474959   -1.483103
    122          1           0       15.599835   -2.292742    0.102352
    123          1           0       14.969316   -1.903418   -1.653621
    124          1           0       16.724369   -1.945512   -1.299954
    125          1           0       16.112132    1.387690    0.677939
    126          1           0       16.423006   -0.470666    1.202042
    127          1           0       18.075223   -0.400585   -0.590514
    128          1           0       17.550880    0.931382   -1.158840
    129          1           0       18.362432    2.457331    0.864859
    130          1           0       18.820473    0.820871    1.584541
    131          1           0       20.643878    0.269555    0.052009
    132          1           0       20.417266    3.164105   -1.018800
    133          1           0       21.320879    1.980891   -1.434691
    134          1           0       19.665386    1.773409   -1.902863
    135          1           0       20.728764    1.653484    2.331929
    136          1           0       22.356401    1.906507    1.201320
    137          1           0       20.910118    3.140666    1.308400
 ---------------------------------------------------------------------

 SCF Done:  E(RCAM-B3LYP) =  -2932.60797163     A.U. after   15 cycles

 Excitation energies and oscillator strengths:

 Excited State   1:      Singlet-A      1.9685 eV  629.84 nm  f=0.2444  <S**2>=0.000
     240 -> 243        0.19899
     241 -> 242        0.65770
     241 -> 243        0.10138
 This state for optimization and/or second-order correction.
 Total Energy, E(TD-HF/TD-KS) =  -2932.53563028
 Copying the excited state density for this state as the 1-particle RhoCI density.

 The electronic state is 1-A.
 Alpha  occ. eigenvalues --  -46.84840 -19.26787 -19.26604 -19.22755 -19.20770
 Alpha  occ. eigenvalues --  -19.20531 -14.41950 -14.39939 -14.39002 -14.38985
 Alpha  occ. eigenvalues --  -10.40473 -10.39870 -10.36258 -10.32424 -10.31788
 Alpha  occ. eigenvalues --  -10.31438 -10.31333 -10.29952 -10.29906 -10.29860
 Alpha  occ. eigenvalues --  -10.29853 -10.29673 -10.29580 -10.29495 -10.29156
 Alpha  occ. eigenvalues --  -10.29049 -10.28836 -10.28814 -10.28478 -10.28416
 Alpha  occ. eigenvalues --  -10.28283 -10.27852 -10.27538 -10.27534 -10.27354
 Alpha  occ. eigenvalues --  -10.27136 -10.27106 -10.27013 -10.26819 -10.26694
 Alpha  occ. eigenvalues --  -10.26538 -10.26502 -10.26458 -10.26443 -10.26338
 Alpha  occ. eigenvalues --  -10.26256 -10.26235 -10.26204 -10.26167 -10.26139
 Alpha  occ. eigenvalues --  -10.25917 -10.25736 -10.25424 -10.25398 -10.25326
 Alpha  occ. eigenvalues --  -10.25073 -10.25054 -10.25033 -10.24983 -10.24539
 Alpha  occ. eigenvalues --  -10.24518 -10.23734 -10.23392 -10.22710 -10.22444
 Alpha  occ. eigenvalues --   -3.13746  -1.88468  -1.88002  -1.87893  -1.18806
 Alpha  occ. eigenvalues --   -1.17512  -1.09733  -1.08083  -1.07763  -1.04919
 Alpha  occ. eigenvalues --   -1.04006  -1.03299  -1.02607  -0.92562  -0.92249
 Alpha  occ. eigenvalues --   -0.91777  -0.90981  -0.89608  -0.89483  -0.88526
 Alpha  occ. eigenvalues --   -0.88348  -0.88165  -0.87571  -0.86959  -0.86348
 Alpha  occ. eigenvalues --   -0.85691  -0.84510  -0.83727  -0.83701  -0.82693
 Alpha  occ. eigenvalues --   -0.81724  -0.81456  -0.81293  -0.80197  -0.78724
 Alpha  occ. eigenvalues --   -0.77818  -0.77009  -0.76758  -0.76632  -0.75944
 Alpha  occ. eigenvalues --   -0.75886  -0.75371  -0.74176  -0.73439  -0.72774
 Alpha  occ. eigenvalues --   -0.71589  -0.70434  -0.70260  -0.69465  -0.68681
 Alpha  occ. eigenvalues --   -0.67405  -0.67125  -0.65852  -0.65338  -0.64697
 Alpha  occ. eigenvalues --   -0.64577  -0.63837  -0.63109  -0.62880  -0.62146
 Alpha  occ. eigenvalues --   -0.61683  -0.61020  -0.60607  -0.59807  -0.59148
 Alpha  occ. eigenvalues --   -0.58779  -0.58357  -0.57911  -0.57588  -0.57188
 Alpha  occ. eigenvalues --   -0.56630  -0.56147  -0.55828  -0.55663  -0.55313
 Alpha  occ. eigenvalues --   -0.54776  -0.54597  -0.54139  -0.53983  -0.53870
 Alpha  occ. eigenvalues --   -0.52993  -0.52791  -0.52564  -0.52376  -0.52277
 Alpha  occ. eigenvalues --   -0.52057  -0.51760  -0.51534  -0.51048  -0.50888
 Alpha  occ. eigenvalues --   -0.50525  -0.50324  -0.50270  -0.49937  -0.49624
 Alpha  occ. eigenvalues --   -0.49474  -0.49133  -0.48611  -0.48424  -0.48127
 Alpha  occ. eigenvalues --   -0.48074  -0.48020  -0.47499  -0.47237  -0.47038
 Alpha  occ. eigenvalues --   -0.47015  -0.46933  -0.46751  -0.46474  -0.46219
 Alpha  occ. eigenvalues --   -0.46012  -0.45628  -0.45523  -0.45300  -0.44885
 Alpha  occ. eigenvalues --   -0.44723  -0.44649  -0.44496  -0.44336  -0.44242
 Alpha  occ. eigenvalues --   -0.43977  -0.43846  -0.43668  -0.43635  -0.43268
 Alpha  occ. eigenvalues --   -0.43042  -0.42997  -0.42784  -0.42711  -0.42552
 Alpha  occ. eigenvalues --   -0.42440  -0.42148  -0.41673  -0.41547  -0.41471
 Alpha  occ. eigenvalues --   -0.41380  -0.41289  -0.41118  -0.40383  -0.40155
 Alpha  occ. eigenvalues --   -0.40037  -0.39909  -0.39763  -0.39593  -0.39203
 Alpha  occ. eigenvalues --   -0.38869  -0.38599  -0.38263  -0.38096  -0.37927
 Alpha  occ. eigenvalues --   -0.37458  -0.37217  -0.36982  -0.36496  -0.36410
 Alpha  occ. eigenvalues --   -0.36224  -0.36183  -0.35836  -0.35595  -0.35361
 Alpha  occ. eigenvalues --   -0.35174  -0.35028  -0.34602  -0.34487  -0.34152
 Alpha  occ. eigenvalues --   -0.33592  -0.33312  -0.32668  -0.31193  -0.30455
 Alpha  occ. eigenvalues --   -0.29743  -0.29654  -0.27879  -0.27525  -0.24191
 Alpha  occ. eigenvalues --   -0.21032
 Alpha virt. eigenvalues --   -0.06897  -0.03728   0.00760   0.04099   0.04761
 Alpha virt. eigenvalues --    0.05396   0.05887   0.06581   0.06826   0.06949
 Alpha virt. eigenvalues --    0.08153   0.10267   0.10901   0.11793   0.12004

 Mulliken charges:
               1
     1  Mg   0.821592
     2  C    0.089717
     3  C   -0.203674
     4  C   -0.178328
     5  C   -0.167436
     6  N   -0.673964
     7  C    0.317395
     8  C   -0.141122
     9  C   -0.154022
    10  C    0.345417
    11  C   -0.286785
    12  C   -0.175228
    13  C   -0.259511
    14  C    0.601460
    15  O   -0.458041
    16  O   -0.483070
    17  N   -0.686655
    18  C    0.351715
    19  C    0.056428
    20  C   -0.026849
    21  C    0.248088
    22  C   -0.385436
    23  C   -0.079974
    24  C   -0.241271
    25  N   -0.673974
    26  C    0.322811
    27  C   -0.003650
    28  C    0.090625
    29  C    0.232091
    30  C   -0.381123
    31  C   -0.254695
    32  C   -0.298274
    33  N   -0.762302
    34  C    0.304869
    35  C   -0.036016
    36  C    0.043358
    37  C    0.314443
    38  C   -0.360981
    39  C    0.352592
    40  O   -0.486096
    41  C   -0.319026
    42  C    0.612331
    43  O   -0.491036
    44  O   -0.427202
    45  C   -0.073604
    46  C    0.023455
    47  C   -0.141099
    48  C    0.094280
    49  C   -0.338664
    50  C   -0.228342
    51  C   -0.183067
    52  C   -0.157707
    53  C   -0.067662
    54  C   -0.293808
    55  C   -0.128140
    56  C   -0.202009
    57  C   -0.165062
    58  C   -0.067467
    59  C   -0.309668
    60  C   -0.171595
    61  C   -0.159872
    62  C   -0.134855
    63  C   -0.052994
    64  C   -0.305220
    65  C   -0.304261
    66  H    0.062370
    67  H    0.109142
    68  H    0.105766
    69  H    0.122693
    70  H    0.116593
    71  H    0.076259
    72  H    0.102112
    73  H    0.132591
    74  H    0.110379
    75  H    0.107791
    76  H    0.147427
    77  H    0.153753
    78  H    0.098469
    79  H    0.117196
    80  H    0.121344
    81  H    0.105834
    82  H    0.094436
    83  H    0.113647
    84  H    0.134303
    85  H    0.092669
    86  H    0.122350
    87  H    0.081488
    88  H    0.111027
    89  H    0.111082
    90  H    0.106768
    91  H    0.092188
    92  H    0.137415
    93  H    0.144849
    94  H    0.134681
    95  H    0.163038
    96  H    0.123667
    97  H    0.146110
    98  H    0.101741
    99  H    0.121385
   100  H    0.089720
   101  H    0.088530
   102  H    0.112613
   103  H    0.087127
   104  H    0.135700
   105  H    0.085582
   106  H    0.096286
   107  H    0.108533
   108  H    0.083995
   109  H    0.068284
   110  H    0.110310
   111  H    0.085209
   112  H    0.117005
   113  H    0.112054
   114  H    0.036861
   115  H    0.089633
   116  H    0.110438
   117  H    0.092653
   118  H    0.023581
   119  H    0.095845
   120  H    0.092648
   121  H    0.074478
   122  H    0.082667
   123  H    0.111194
   124  H    0.106596
   125  H    0.096315
   126  H    0.072653
   127  H    0.093987
   128  H    0.092174
   129  H    0.014505
   130  H    0.100776
   131  H    0.077218
   132  H    0.103417
   133  H    0.108826
   134  H    0.102088
   135  H    0.082610
   136  H    0.103856
   137  H    0.089638
 Sum of Mulliken charges =   0.00000

 Dipole moment (field-independent basis, Debye):
    X=              0.7059    Y=              2.8514    Z=              0.1975  Tot=              2.9441
 Quadrupole moment (field-independent basis, Debye-Ang):
   XX=           -340.5667   YY=           -396.1804   ZZ=           -400.9738
   XY=            -24.6710   XZ=             12.6121   YZ=             -1.6511

 Normal termination of Gaussian 09 at Thu Jun 27 07:09:47 2019.
