 Gaussian 09, Revision D.01,
 Gaussian 09:  ES64L-G09RevD.01 24-Apr-2013

 -------------------------------------
 # td=(NStates=1) CAM-B3LYP/6-31G(d,p)
 -------------------------------------

 --
 TD
 --
 Symbolic Z-matrix:
 Charge =  0 Multiplicity = 1

                         Standard orientation:
 ---------------------------------------------------------------------
 Center     Atomic      Atomic             Coordinates (Angstroms)
 Number     Number       Type             X           Y           Z
 ---------------------------------------------------------------------
      1         12           0       -7.120852    0.572329    0.098441
      2          6           0       -4.853339   -1.914601    0.561504
      3          6           0       -4.865343    2.892642    1.258890
      4          6           0       -9.533407    3.062304   -0.412064
      5          6           0       -9.522049   -1.832402   -0.868355
      6          7           0       -5.131893    0.504370    0.772271
      7          6           0       -4.347259   -0.631290    0.824296
      8          6           0       -2.955807   -0.362854    1.253248
      9          6           0       -3.094073    1.115632    1.732959
     10          6           0       -4.424423    1.615345    1.261240
     11          6           0       -2.815357    1.361766    3.309712
     12          6           0       -1.945294   -0.526121    0.096502
     13          6           0       -0.478598   -0.527922    0.561009
     14          6           0        0.524320   -0.574873   -0.568460
     15          8           0        0.198328   -0.828410   -1.673407
     16          8           0        1.839201   -0.294453   -0.122557
     17          7           0       -7.260769    2.653380    0.384008
     18          6           0       -6.136881    3.356300    0.865547
     19          6           0       -6.501916    4.683125    0.834846
     20          6           0       -7.811118    4.802069    0.388961
     21          6           0       -8.276208    3.487496    0.025498
     22          6           0       -5.609142    5.799259    1.350436
     23          6           0       -8.633136    6.120230    0.050426
     24          6           0       -8.022405    7.340948    0.081886
     25          7           0       -9.134354    0.578616   -0.496184
     26          6           0       -9.936577    1.786374   -0.637764
     27          6           0      -11.264038    1.375464   -1.052365
     28          6           0      -11.331904   -0.040325   -1.192395
     29          6           0       -9.983323   -0.481284   -0.821845
     30          6           0      -12.347587    2.278882   -1.361822
     31          6           0      -12.399219   -0.814328   -1.809597
     32          6           0      -12.114784   -1.340540   -3.328588
     33          7           0       -7.210584   -1.399670   -0.115496
     34          6           0       -8.307968   -2.226280   -0.495847
     35          6           0       -7.787913   -3.637807   -0.511496
     36          6           0       -6.475618   -3.562909   -0.222877
     37          6           0       -6.134592   -2.178639    0.161685
     38          6           0       -8.585504   -4.803783   -0.672448
     39          6           0       -5.338609   -4.354585    0.212461
     40          8           0       -5.173726   -5.574079    0.165699
     41          6           0       -4.152545   -3.280562    0.603179
     42          6           0       -3.563121   -3.622003    1.877522
     43          8           0       -3.690384   -2.976707    2.923212
     44          8           0       -2.694321   -4.655786    1.765600
     45          6           0       -2.206424   -5.170631    2.990714
     46          6           0        2.754656   -0.623231   -1.159103
     47          6           0        4.216448   -0.470062   -0.666986
     48          6           0        5.187402    0.313770   -1.108987
     49          6           0        5.064050    1.293171   -2.204039
     50          6           0        6.448299    0.308926   -0.211786
     51          6           0        7.694518   -0.141046   -1.080848
     52          6           0        8.990424   -0.184876   -0.257544
     53          6           0       10.206581   -0.527136   -0.992201
     54          6           0       10.139740   -1.923129   -1.660998
     55          6           0       11.283381   -0.364240   -0.143936
     56          6           0       12.764810   -0.671063   -0.729920
     57          6           0       13.992359   -0.120121    0.140533
     58          6           0       15.402365   -0.212608   -0.509145
     59          6           0       15.782173   -1.639796   -0.719222
     60          6           0       16.440964    0.502029    0.392456
     61          6           0       17.835304    0.540646   -0.112217
     62          6           0       18.782919    1.294729    0.878000
     63          6           0       20.173792    1.411624    0.265392
     64          6           0       20.285027    2.199772   -0.971334
     65          6           0       21.239673    1.692066    1.351746
     66          1           0       -4.189645    3.624556    1.668197
     67          1           0      -10.213066    3.844749   -0.722583
     68          1           0      -10.483570   -2.555002   -1.064614
     69          1           0       -2.791063   -0.959636    2.102974
     70          1           0       -2.226418    1.973367    1.402577
     71          1           0       -1.888597    0.720521    3.736824
     72          1           0       -2.626320    2.459275    3.532378
     73          1           0       -3.780326    1.041042    3.892664
     74          1           0       -2.167949   -1.600026   -0.419256
     75          1           0       -2.138737    0.436515   -0.737495
     76          1           0       -0.323554    0.544681    1.031857
     77          1           0       -0.153675   -1.197834    1.393107
     78          1           0       -5.170385    6.110921    0.472264
     79          1           0       -6.219648    6.613012    1.639082
     80          1           0       -4.846919    5.597361    2.120822
     81          1           0       -9.674210    5.867349    0.148478
     82          1           0       -8.750833    8.217102    0.018152
     83          1           0       -7.027671    7.568443   -0.046323
     84          1           0      -11.879120    3.069452   -1.856797
     85          1           0      -13.142929    1.759212   -2.069884
     86          1           0      -12.977698    2.766116   -0.398796
     87          1           0      -12.498733   -1.634825   -1.099892
     88          1           0      -13.456199   -0.270920   -2.003654
     89          1           0      -13.064735   -2.110028   -3.534144
     90          1           0      -12.096080   -0.554851   -3.955070
     91          1           0      -11.053161   -1.784366   -3.552023
     92          1           0       -9.069247   -4.892752   -1.683638
     93          1           0       -7.957812   -5.648508   -0.920935
     94          1           0       -9.374986   -5.034365    0.168887
     95          1           0       -3.527185   -3.433610   -0.406387
     96          1           0       -1.614386   -4.300171    3.448428
     97          1           0       -2.887074   -5.404450    3.974176
     98          1           0       -1.607641   -5.939847    2.871891
     99          1           0        2.542717   -1.641148   -1.369232
    100          1           0        2.465123   -0.100994   -2.209336
    101          1           0        4.419309   -1.228264    0.158833
    102          1           0        4.022377    1.556448   -2.461235
    103          1           0        5.573276    2.224155   -1.914691
    104          1           0        5.684387    0.888951   -3.031997
    105          1           0        6.638383    1.332221    0.321966
    106          1           0        6.326262   -0.377424    0.541695
    107          1           0        7.594418   -1.120603   -1.701091
    108          1           0        7.801057    0.536214   -1.992317
    109          1           0        9.104832    0.868906    0.105408
    110          1           0        8.953755   -0.784057    0.602357
    111          1           0       10.438808    0.178772   -1.857683
    112          1           0        9.228968   -2.096341   -2.168537
    113          1           0       10.926931   -2.214696   -2.373943
    114          1           0       10.132329   -2.445630   -0.753968
    115          1           0       11.555352    0.599685    0.488728
    116          1           0       11.313812   -1.082082    0.582883
    117          1           0       12.935016   -1.684217   -0.954467
    118          1           0       12.754334   -0.068489   -1.589893
    119          1           0       13.816049    0.940811    0.426330
    120          1           0       13.761729   -0.779888    1.011761
    121          1           0       15.537305    0.341920   -1.409632
    122          1           0       15.632277   -2.306993    0.204232
    123          1           0       15.229341   -2.010478   -1.773429
    124          1           0       16.806347   -1.811691   -1.192971
    125          1           0       16.187168    1.452658    0.618607
    126          1           0       16.332273   -0.104804    1.367449
    127          1           0       18.246498   -0.577624   -0.472778
    128          1           0       17.727060    1.085650   -1.173159
    129          1           0       18.332490    2.223469    1.126373
    130          1           0       18.885938    0.387880    1.712975
    131          1           0       20.455958    0.444887    0.075195
    132          1           0       20.198907    3.224643   -0.512751
    133          1           0       21.345268    2.123564   -1.255806
    134          1           0       19.627173    1.890554   -1.840810
    135          1           0       21.152461    0.914860    2.094362
    136          1           0       22.227067    1.651399    0.895452
    137          1           0       21.025101    2.844829    1.983248
 ---------------------------------------------------------------------

 SCF Done:  E(RCAM-B3LYP) =  -2932.66074783     A.U. after   18 cycles

 Excitation energies and oscillator strengths:

 Excited State   1:      Singlet-A      2.0447 eV  606.38 nm  f=0.2508  <S**2>=0.000
     240 -> 243       -0.21936
     241 -> 242        0.65083
     241 -> 243       -0.10366
 This state for optimization and/or second-order correction.
 Total Energy, E(TD-HF/TD-KS) =  -2932.58560831
 Copying the excited state density for this state as the 1-particle RhoCI density.

 The electronic state is 1-A.
 Alpha  occ. eigenvalues --  -46.83614 -19.27327 -19.25769 -19.22201 -19.21830
 Alpha  occ. eigenvalues --  -19.21445 -14.41989 -14.39790 -14.39423 -14.38230
 Alpha  occ. eigenvalues --  -10.39991 -10.39440 -10.36787 -10.31968 -10.31565
 Alpha  occ. eigenvalues --  -10.31533 -10.30321 -10.30307 -10.30275 -10.30256
 Alpha  occ. eigenvalues --  -10.30030 -10.29693 -10.29547 -10.29464 -10.28790
 Alpha  occ. eigenvalues --  -10.28453 -10.28315 -10.28270 -10.28230 -10.28064
 Alpha  occ. eigenvalues --  -10.27943 -10.27777 -10.27557 -10.27517 -10.27140
 Alpha  occ. eigenvalues --  -10.27109 -10.27008 -10.26956 -10.26953 -10.26724
 Alpha  occ. eigenvalues --  -10.26518 -10.26495 -10.26455 -10.26369 -10.26364
 Alpha  occ. eigenvalues --  -10.26218 -10.26174 -10.26140 -10.25964 -10.25893
 Alpha  occ. eigenvalues --  -10.25865 -10.25853 -10.25781 -10.25574 -10.25554
 Alpha  occ. eigenvalues --  -10.24911 -10.24853 -10.24664 -10.24511 -10.24391
 Alpha  occ. eigenvalues --  -10.24083 -10.24060 -10.23783 -10.23780 -10.23767
 Alpha  occ. eigenvalues --   -3.12621  -1.87339  -1.86851  -1.86795  -1.18809
 Alpha  occ. eigenvalues --   -1.18157  -1.11339  -1.10733  -1.09140  -1.03920
 Alpha  occ. eigenvalues --   -1.02774  -1.01862  -0.99943  -0.93001  -0.92701
 Alpha  occ. eigenvalues --   -0.90671  -0.90221  -0.89553  -0.89448  -0.88900
 Alpha  occ. eigenvalues --   -0.88889  -0.88005  -0.87475  -0.86540  -0.85288
 Alpha  occ. eigenvalues --   -0.84746  -0.84237  -0.83813  -0.82606  -0.82097
 Alpha  occ. eigenvalues --   -0.81947  -0.80911  -0.80368  -0.79712  -0.78546
 Alpha  occ. eigenvalues --   -0.77236  -0.76922  -0.76647  -0.76167  -0.75616
 Alpha  occ. eigenvalues --   -0.75442  -0.74897  -0.74392  -0.73296  -0.72626
 Alpha  occ. eigenvalues --   -0.71671  -0.70062  -0.69978  -0.68899  -0.68502
 Alpha  occ. eigenvalues --   -0.66255  -0.65971  -0.65670  -0.64696  -0.64430
 Alpha  occ. eigenvalues --   -0.63954  -0.63460  -0.62577  -0.62257  -0.62031
 Alpha  occ. eigenvalues --   -0.61862  -0.60113  -0.59817  -0.59666  -0.59073
 Alpha  occ. eigenvalues --   -0.58454  -0.58101  -0.57355  -0.57152  -0.56681
 Alpha  occ. eigenvalues --   -0.56072  -0.55906  -0.55665  -0.55008  -0.54848
 Alpha  occ. eigenvalues --   -0.54496  -0.54463  -0.53758  -0.53303  -0.53108
 Alpha  occ. eigenvalues --   -0.53035  -0.52491  -0.52245  -0.52117  -0.51866
 Alpha  occ. eigenvalues --   -0.51657  -0.51153  -0.51076  -0.50944  -0.50882
 Alpha  occ. eigenvalues --   -0.50202  -0.50093  -0.49977  -0.49762  -0.49580
 Alpha  occ. eigenvalues --   -0.49541  -0.49417  -0.48946  -0.48754  -0.48363
 Alpha  occ. eigenvalues --   -0.48040  -0.47732  -0.47518  -0.47477  -0.47266
 Alpha  occ. eigenvalues --   -0.46926  -0.46790  -0.46538  -0.46230  -0.46048
 Alpha  occ. eigenvalues --   -0.45763  -0.45391  -0.45258  -0.45175  -0.45091
 Alpha  occ. eigenvalues --   -0.44824  -0.44556  -0.44314  -0.44235  -0.43883
 Alpha  occ. eigenvalues --   -0.43722  -0.43627  -0.43268  -0.43250  -0.43002
 Alpha  occ. eigenvalues --   -0.42937  -0.42577  -0.42516  -0.42433  -0.42356
 Alpha  occ. eigenvalues --   -0.42157  -0.41835  -0.41767  -0.41542  -0.41465
 Alpha  occ. eigenvalues --   -0.41337  -0.41096  -0.40571  -0.40530  -0.40230
 Alpha  occ. eigenvalues --   -0.40002  -0.39966  -0.39826  -0.38723  -0.38481
 Alpha  occ. eigenvalues --   -0.38386  -0.38318  -0.38199  -0.37850  -0.37822
 Alpha  occ. eigenvalues --   -0.37519  -0.37444  -0.36903  -0.36364  -0.36299
 Alpha  occ. eigenvalues --   -0.35904  -0.35535  -0.35516  -0.35193  -0.35168
 Alpha  occ. eigenvalues --   -0.34882  -0.34537  -0.34273  -0.34192  -0.34043
 Alpha  occ. eigenvalues --   -0.32887  -0.32851  -0.32176  -0.31523  -0.31028
 Alpha  occ. eigenvalues --   -0.30320  -0.29720  -0.27066  -0.26166  -0.23882
 Alpha  occ. eigenvalues --   -0.21135
 Alpha virt. eigenvalues --   -0.06657  -0.03615   0.00809   0.03505   0.04469
 Alpha virt. eigenvalues --    0.05922   0.06376   0.06690   0.06840   0.07202
 Alpha virt. eigenvalues --    0.07843   0.09973   0.10350   0.11049   0.11445

 Mulliken charges:
               1
     1  Mg   0.804832
     2  C    0.086679
     3  C   -0.187389
     4  C   -0.160582
     5  C   -0.185006
     6  N   -0.673440
     7  C    0.309605
     8  C   -0.137895
     9  C   -0.174370
    10  C    0.389101
    11  C   -0.302987
    12  C   -0.144518
    13  C   -0.273463
    14  C    0.620950
    15  O   -0.431668
    16  O   -0.495252
    17  N   -0.736355
    18  C    0.332630
    19  C   -0.023300
    20  C   -0.049931
    21  C    0.308977
    22  C   -0.378256
    23  C   -0.053308
    24  C   -0.252931
    25  N   -0.683279
    26  C    0.303500
    27  C    0.029772
    28  C    0.039430
    29  C    0.276034
    30  C   -0.370598
    31  C   -0.249519
    32  C   -0.299809
    33  N   -0.763772
    34  C    0.317105
    35  C    0.053518
    36  C    0.014317
    37  C    0.304601
    38  C   -0.411308
    39  C    0.365504
    40  O   -0.451178
    41  C   -0.354045
    42  C    0.661504
    43  O   -0.488460
    44  O   -0.443667
    45  C   -0.074959
    46  C    0.012012
    47  C   -0.159069
    48  C    0.146086
    49  C   -0.364310
    50  C   -0.218159
    51  C   -0.195360
    52  C   -0.158332
    53  C   -0.062345
    54  C   -0.311962
    55  C   -0.179305
    56  C   -0.212477
    57  C   -0.186887
    58  C   -0.047711
    59  C   -0.297947
    60  C   -0.151194
    61  C   -0.174578
    62  C   -0.151525
    63  C   -0.054751
    64  C   -0.296677
    65  C   -0.288330
    66  H    0.084163
    67  H    0.094712
    68  H    0.103125
    69  H    0.152242
    70  H    0.079840
    71  H    0.098186
    72  H    0.106737
    73  H    0.112226
    74  H    0.098944
    75  H    0.100830
    76  H    0.125619
    77  H    0.142336
    78  H    0.133217
    79  H    0.125105
    80  H    0.109017
    81  H    0.099510
    82  H    0.089528
    83  H    0.116976
    84  H    0.126033
    85  H    0.097679
    86  H    0.095128
    87  H    0.110925
    88  H    0.097321
    89  H    0.083865
    90  H    0.130345
    91  H    0.100009
    92  H    0.123688
    93  H    0.148142
    94  H    0.136498
    95  H    0.173505
    96  H    0.109330
    97  H    0.112864
    98  H    0.130647
    99  H    0.116793
   100  H    0.101350
   101  H    0.083996
   102  H    0.122459
   103  H    0.115727
   104  H    0.123776
   105  H    0.094062
   106  H    0.113336
   107  H    0.085673
   108  H    0.086434
   109  H    0.094337
   110  H    0.095163
   111  H    0.070096
   112  H    0.104856
   113  H    0.109597
   114  H    0.102047
   115  H    0.080824
   116  H    0.093236
   117  H    0.105453
   118  H    0.090632
   119  H    0.082577
   120  H    0.090559
   121  H    0.088587
   122  H    0.103174
   123  H    0.071779
   124  H    0.096880
   125  H    0.095298
   126  H    0.068441
   127  H    0.066251
   128  H    0.060093
   129  H    0.097700
   130  H    0.076296
   131  H    0.096165
   132  H    0.095959
   133  H    0.097146
   134  H    0.108019
   135  H    0.109952
   136  H    0.101607
   137  H    0.041389
 Sum of Mulliken charges =   0.00000

 Dipole moment (field-independent basis, Debye):
    X=              1.1948    Y=              1.2055    Z=             -0.4501  Tot=              1.7560
 Quadrupole moment (field-independent basis, Debye-Ang):
   XX=           -350.6085   YY=           -394.5976   ZZ=           -398.4889
   XY=             -7.4864   XZ=             11.3360   YZ=             -3.3095

 Normal termination of Gaussian 09 at Fri Jun 28 00:43:08 2019.
