 Gaussian 09, Revision D.01,
 Gaussian 09:  ES64L-G09RevD.01 24-Apr-2013

 -------------------------------------
 # td=(NStates=1) CAM-B3LYP/6-31G(d,p)
 -------------------------------------

 --
 TD
 --
 Symbolic Z-matrix:
 Charge =  0 Multiplicity = 1

                         Standard orientation:
 ---------------------------------------------------------------------
 Center     Atomic      Atomic             Coordinates (Angstroms)
 Number     Number       Type             X           Y           Z
 ---------------------------------------------------------------------
      1         12           0       -7.178682    0.625561    0.160572
      2          6           0       -4.833869   -1.963331    0.594015
      3          6           0       -4.778096    2.797467    1.226023
      4          6           0       -9.421322    3.026637   -0.425773
      5          6           0       -9.496844   -1.821970   -1.021088
      6          7           0       -5.176237    0.377007    0.634263
      7          6           0       -4.305471   -0.775995    0.764552
      8          6           0       -2.929402   -0.416316    1.188238
      9          6           0       -3.055265    1.036274    1.753054
     10          6           0       -4.416878    1.436246    1.081100
     11          6           0       -2.894756    1.227914    3.182130
     12          6           0       -1.948307   -0.548120   -0.110268
     13          6           0       -0.553159   -0.377816    0.437444
     14          6           0        0.496940   -0.647205   -0.653781
     15          8           0        0.206285   -0.942701   -1.791794
     16          8           0        1.754224   -0.363796   -0.274456
     17          7           0       -7.104032    2.563403    0.344041
     18          6           0       -6.047377    3.316744    0.782708
     19          6           0       -6.411107    4.708461    0.848720
     20          6           0       -7.713733    4.803609    0.434721
     21          6           0       -8.132859    3.492643    0.101209
     22          6           0       -5.713143    5.960107    1.379548
     23          6           0       -8.701806    6.028286    0.484536
     24          6           0       -8.205238    7.275393    0.360502
     25          7           0       -9.088789    0.590008   -0.565642
     26          6           0       -9.826702    1.776632   -0.571159
     27          6           0      -11.249892    1.485609   -1.051595
     28          6           0      -11.217473    0.120228   -1.167864
     29          6           0       -9.871425   -0.359826   -0.917858
     30          6           0      -12.337167    2.367269   -1.373112
     31          6           0      -12.387825   -0.728051   -1.669779
     32          6           0      -12.351332   -0.942017   -3.307362
     33          7           0       -7.223768   -1.432890   -0.292092
     34          6           0       -8.253781   -2.300100   -0.674266
     35          6           0       -7.793088   -3.659339   -0.584474
     36          6           0       -6.476725   -3.645847   -0.074958
     37          6           0       -6.136084   -2.255206    0.001574
     38          6           0       -8.604210   -4.870744   -0.954109
     39          6           0       -5.232541   -4.413128    0.306017
     40          8           0       -5.185401   -5.626548    0.338675
     41          6           0       -4.273488   -3.339870    0.666061
     42          6           0       -3.541332   -3.714803    1.999872
     43          8           0       -3.831746   -3.182112    3.060131
     44          8           0       -2.748682   -4.746751    1.807607
     45          6           0       -2.058520   -5.141425    2.972622
     46          6           0        2.913131   -0.482712   -1.261608
     47          6           0        4.133604   -0.362322   -0.473526
     48          6           0        5.138128    0.414534   -0.916782
     49          6           0        5.140263    1.359361   -1.923215
     50          6           0        6.500685    0.417875   -0.134661
     51          6           0        7.686634   -0.252216   -0.965198
     52          6           0        8.977601   -0.057610   -0.211402
     53          6           0       10.212025   -0.526835   -0.948193
     54          6           0       10.202748   -1.960392   -1.462618
     55          6           0       11.495507   -0.103040   -0.087861
     56          6           0       12.733207   -0.649835   -0.681613
     57          6           0       13.991029   -0.091431    0.121954
     58          6           0       15.354222   -0.240928   -0.482975
     59          6           0       15.611493   -1.756144   -0.820465
     60          6           0       16.471129    0.311269    0.341101
     61          6           0       17.859521    0.498551   -0.224647
     62          6           0       18.754792    1.258278    0.788432
     63          6           0       20.232558    1.371536    0.248089
     64          6           0       20.167506    2.226700   -1.033421
     65          6           0       21.071432    1.878991    1.419619
     66          1           0       -4.295675    3.480211    1.530682
     67          1           0       -9.950000    3.862393   -0.667267
     68          1           0      -10.216501   -2.463181   -1.425375
     69          1           0       -2.531508   -1.167881    1.900298
     70          1           0       -2.313340    1.576040    1.050302
     71          1           0       -2.011942    0.633433    3.416215
     72          1           0       -2.915242    2.439632    3.435698
     73          1           0       -3.896503    0.794334    3.744423
     74          1           0       -1.895200   -1.611748   -0.610694
     75          1           0       -2.299616    0.163091   -0.834939
     76          1           0       -0.257668    0.666825    0.836523
     77          1           0       -0.429379   -1.272289    1.167111
     78          1           0       -5.418133    6.561920    0.514061
     79          1           0       -6.197361    6.720713    1.795626
     80          1           0       -4.699436    5.861520    1.962629
     81          1           0       -9.765092    5.836918    0.454761
     82          1           0       -8.950822    8.124065    0.411403
     83          1           0       -7.345075    7.703757    0.204711
     84          1           0      -11.870037    2.985767   -2.237418
     85          1           0      -13.273069    1.828424   -1.820339
     86          1           0      -12.835822    2.916039   -0.436369
     87          1           0      -12.189394   -1.779318   -1.310713
     88          1           0      -13.590310   -0.151121   -1.416539
     89          1           0      -13.428117   -1.316997   -3.619301
     90          1           0      -12.288856    0.027548   -3.716916
     91          1           0      -11.605185   -1.521462   -3.486757
     92          1           0       -8.740103   -4.733449   -2.072003
     93          1           0       -8.051160   -6.011938   -0.507077
     94          1           0       -9.574750   -4.950891   -0.396642
     95          1           0       -3.336880   -3.424465   -0.166164
     96          1           0       -1.479321   -4.244527    3.274041
     97          1           0       -2.730857   -5.569231    3.701828
     98          1           0       -1.555468   -6.009613    2.728785
     99          1           0        2.806656   -1.398519   -1.930521
    100          1           0        2.911537    0.305593   -2.162467
    101          1           0        4.245270   -1.011954    0.258810
    102          1           0        4.040185    1.667670   -2.222052
    103          1           0        5.792569    2.276509   -1.944308
    104          1           0        5.730246    0.997591   -2.804781
    105          1           0        7.001784    1.332463    0.172512
    106          1           0        6.493126   -0.142039    0.818936
    107          1           0        7.269702   -1.423847   -1.160347
    108          1           0        7.805587    0.244873   -2.207846
    109          1           0        9.017797    0.985091    0.080126
    110          1           0        8.760971   -0.542426    0.690121
    111          1           0       10.544663    0.128540   -1.799710
    112          1           0        9.359587   -2.207135   -2.143114
    113          1           0       11.238706   -2.179850   -1.872294
    114          1           0        9.939954   -2.503286   -0.533993
    115          1           0       11.449653    1.040433    0.109052
    116          1           0       11.592865   -0.554013    0.972762
    117          1           0       12.809473   -1.677137   -0.818316
    118          1           0       12.888333   -0.047263   -1.557829
    119          1           0       13.670435    1.117408    0.398340
    120          1           0       14.011703   -0.823180    1.007006
    121          1           0       15.148986    0.328096   -1.562418
    122          1           0       15.363419   -2.537832    0.200691
    123          1           0       15.021450   -2.124812   -1.659386
    124          1           0       16.710819   -1.630543   -0.985268
    125          1           0       16.292176    1.436093    0.631031
    126          1           0       16.535384   -0.399490    1.333837
    127          1           0       18.318430   -0.488673   -0.484433
    128          1           0       17.747170    0.977369   -1.485349
    129          1           0       18.335764    2.216613    0.978542
    130          1           0       18.792135    0.719886    1.884549
    131          1           0       20.634399    0.507393   -0.144456
    132          1           0       20.069835    3.308219   -0.919106
    133          1           0       21.068970    1.971698   -1.716186
    134          1           0       19.440602    1.886752   -1.771875
    135          1           0       21.015337    1.121386    2.173647
    136          1           0       22.097635    1.997293    1.190777
    137          1           0       20.857413    2.724118    1.899313
 ---------------------------------------------------------------------

 SCF Done:  E(RCAM-B3LYP) =  -2932.49895639     A.U. after   17 cycles

 Excitation energies and oscillator strengths:

 Excited State   1:      Singlet-A      1.8119 eV  684.27 nm  f=0.3144  <S**2>=0.000
     240 -> 243        0.15538
     241 -> 242        0.67994
 This state for optimization and/or second-order correction.
 Total Energy, E(TD-HF/TD-KS) =  -2932.43237005
 Copying the excited state density for this state as the 1-particle RhoCI density.

 The electronic state is 1-A.
 Alpha  occ. eigenvalues --  -46.83373 -19.27578 -19.25879 -19.21190 -19.20737
 Alpha  occ. eigenvalues --  -19.20040 -14.41354 -14.39843 -14.38967 -14.38553
 Alpha  occ. eigenvalues --  -10.39732 -10.38539 -10.35664 -10.33276 -10.31084
 Alpha  occ. eigenvalues --  -10.30449 -10.30012 -10.29854 -10.29721 -10.29402
 Alpha  occ. eigenvalues --  -10.29311 -10.29151 -10.29057 -10.28922 -10.28844
 Alpha  occ. eigenvalues --  -10.28700 -10.28682 -10.28499 -10.28293 -10.28228
 Alpha  occ. eigenvalues --  -10.28206 -10.28122 -10.28090 -10.27941 -10.27748
 Alpha  occ. eigenvalues --  -10.27747 -10.27695 -10.27672 -10.27248 -10.27003
 Alpha  occ. eigenvalues --  -10.26935 -10.26780 -10.26773 -10.26700 -10.26594
 Alpha  occ. eigenvalues --  -10.26571 -10.26322 -10.26263 -10.26249 -10.26171
 Alpha  occ. eigenvalues --  -10.26128 -10.26098 -10.25874 -10.25492 -10.25471
 Alpha  occ. eigenvalues --  -10.25461 -10.25401 -10.25319 -10.25260 -10.25246
 Alpha  occ. eigenvalues --  -10.24669 -10.24450 -10.24343 -10.23335 -10.22767
 Alpha  occ. eigenvalues --   -3.12569  -1.87252  -1.86833  -1.86751  -1.20358
 Alpha  occ. eigenvalues --   -1.16692  -1.11436  -1.09872  -1.07907  -1.04647
 Alpha  occ. eigenvalues --   -1.02456  -1.02000  -1.00927  -0.93070  -0.92498
 Alpha  occ. eigenvalues --   -0.91032  -0.90003  -0.89618  -0.88676  -0.88535
 Alpha  occ. eigenvalues --   -0.88020  -0.87860  -0.87024  -0.86133  -0.86024
 Alpha  occ. eigenvalues --   -0.85287  -0.84350  -0.83558  -0.83083  -0.82202
 Alpha  occ. eigenvalues --   -0.82040  -0.81977  -0.80846  -0.80395  -0.78120
 Alpha  occ. eigenvalues --   -0.77814  -0.77138  -0.77108  -0.76386  -0.76072
 Alpha  occ. eigenvalues --   -0.74472  -0.74161  -0.73789  -0.73217  -0.71894
 Alpha  occ. eigenvalues --   -0.70782  -0.69811  -0.68859  -0.68674  -0.67862
 Alpha  occ. eigenvalues --   -0.67134  -0.65556  -0.65061  -0.64445  -0.64253
 Alpha  occ. eigenvalues --   -0.64208  -0.63438  -0.62923  -0.62749  -0.62618
 Alpha  occ. eigenvalues --   -0.61430  -0.60589  -0.59739  -0.59645  -0.59047
 Alpha  occ. eigenvalues --   -0.58822  -0.58596  -0.57704  -0.57443  -0.56516
 Alpha  occ. eigenvalues --   -0.55979  -0.55605  -0.55456  -0.55404  -0.54811
 Alpha  occ. eigenvalues --   -0.54590  -0.54355  -0.53776  -0.53653  -0.52861
 Alpha  occ. eigenvalues --   -0.52806  -0.52423  -0.52297  -0.51891  -0.51710
 Alpha  occ. eigenvalues --   -0.51405  -0.51251  -0.51052  -0.50877  -0.50660
 Alpha  occ. eigenvalues --   -0.50056  -0.49985  -0.49905  -0.49716  -0.49527
 Alpha  occ. eigenvalues --   -0.49462  -0.49247  -0.48756  -0.48532  -0.48401
 Alpha  occ. eigenvalues --   -0.48193  -0.48043  -0.47931  -0.47618  -0.47155
 Alpha  occ. eigenvalues --   -0.47054  -0.46791  -0.46743  -0.46321  -0.46087
 Alpha  occ. eigenvalues --   -0.46056  -0.45804  -0.45684  -0.45075  -0.44841
 Alpha  occ. eigenvalues --   -0.44588  -0.44407  -0.44165  -0.44072  -0.43849
 Alpha  occ. eigenvalues --   -0.43637  -0.43325  -0.43199  -0.43077  -0.42800
 Alpha  occ. eigenvalues --   -0.42619  -0.42386  -0.42219  -0.41950  -0.41889
 Alpha  occ. eigenvalues --   -0.41713  -0.41662  -0.41391  -0.41274  -0.41190
 Alpha  occ. eigenvalues --   -0.41062  -0.40922  -0.40714  -0.40363  -0.40044
 Alpha  occ. eigenvalues --   -0.40008  -0.39813  -0.39583  -0.39259  -0.38935
 Alpha  occ. eigenvalues --   -0.38562  -0.38439  -0.38330  -0.37806  -0.37630
 Alpha  occ. eigenvalues --   -0.37066  -0.36852  -0.36812  -0.36538  -0.36351
 Alpha  occ. eigenvalues --   -0.36052  -0.35767  -0.35418  -0.35287  -0.35204
 Alpha  occ. eigenvalues --   -0.34931  -0.34714  -0.34210  -0.33763  -0.33412
 Alpha  occ. eigenvalues --   -0.33220  -0.32839  -0.31582  -0.30628  -0.30339
 Alpha  occ. eigenvalues --   -0.29594  -0.28696  -0.28145  -0.27294  -0.23724
 Alpha  occ. eigenvalues --   -0.19820
 Alpha virt. eigenvalues --   -0.06954  -0.02131   0.01711   0.04623   0.04691
 Alpha virt. eigenvalues --    0.05548   0.06019   0.06789   0.07018   0.08071
 Alpha virt. eigenvalues --    0.08309   0.09340   0.10448   0.10573   0.10781

 Mulliken charges:
               1
     1  Mg   0.831916
     2  C    0.101407
     3  C   -0.068178
     4  C   -0.137432
     5  C   -0.172495
     6  N   -0.627402
     7  C    0.308904
     8  C   -0.183051
     9  C   -0.106726
    10  C    0.304562
    11  C   -0.280862
    12  C   -0.169342
    13  C   -0.258593
    14  C    0.593670
    15  O   -0.472317
    16  O   -0.491652
    17  N   -0.734234
    18  C    0.271219
    19  C    0.005230
    20  C    0.016351
    21  C    0.212717
    22  C   -0.383060
    23  C   -0.073517
    24  C   -0.219816
    25  N   -0.659509
    26  C    0.265130
    27  C    0.079781
    28  C    0.002805
    29  C    0.314597
    30  C   -0.384138
    31  C   -0.246380
    32  C   -0.295276
    33  N   -0.691419
    34  C    0.329452
    35  C   -0.011161
    36  C    0.007490
    37  C    0.217686
    38  C   -0.367245
    39  C    0.423769
    40  O   -0.456723
    41  C   -0.338785
    42  C    0.611939
    43  O   -0.477086
    44  O   -0.418880
    45  C   -0.084150
    46  C   -0.006135
    47  C   -0.098834
    48  C    0.171950
    49  C   -0.396606
    50  C   -0.245470
    51  C   -0.149602
    52  C   -0.166051
    53  C   -0.055241
    54  C   -0.311484
    55  C   -0.177841
    56  C   -0.185471
    57  C   -0.151184
    58  C   -0.049856
    59  C   -0.291348
    60  C   -0.146504
    61  C   -0.162485
    62  C   -0.166679
    63  C   -0.042703
    64  C   -0.323357
    65  C   -0.323443
    66  H   -0.003444
    67  H    0.079161
    68  H    0.089540
    69  H    0.104208
    70  H    0.099810
    71  H    0.119082
    72  H    0.097365
    73  H    0.111632
    74  H    0.118478
    75  H    0.129753
    76  H    0.135876
    77  H    0.122628
    78  H    0.118811
    79  H    0.135841
    80  H    0.093154
    81  H    0.107966
    82  H    0.080677
    83  H    0.105363
    84  H    0.124625
    85  H    0.108985
    86  H    0.114401
    87  H    0.098331
    88  H    0.059611
    89  H    0.089967
    90  H    0.116924
    91  H    0.119210
    92  H    0.128540
    93  H    0.111722
    94  H    0.127380
    95  H    0.139325
    96  H    0.124823
    97  H    0.136513
    98  H    0.130772
    99  H    0.138044
   100  H    0.105134
   101  H    0.090346
   102  H    0.109361
   103  H    0.126117
   104  H    0.129616
   105  H    0.106160
   106  H    0.099408
   107  H    0.069727
   108  H    0.031911
   109  H    0.097602
   110  H    0.108058
   111  H    0.083941
   112  H    0.111644
   113  H    0.103567
   114  H    0.099638
   115  H    0.087445
   116  H    0.069616
   117  H    0.114879
   118  H    0.091130
   119  H    0.049616
   120  H    0.072363
   121  H    0.055617
   122  H    0.057898
   123  H    0.115467
   124  H    0.104680
   125  H    0.081706
   126  H    0.075834
   127  H    0.095197
   128  H    0.048607
   129  H    0.107942
   130  H    0.072434
   131  H    0.100497
   132  H    0.103916
   133  H    0.076768
   134  H    0.106949
   135  H    0.101879
   136  H    0.098144
   137  H    0.113255
 Sum of Mulliken charges =   0.00000

 Dipole moment (field-independent basis, Debye):
    X=              3.7830    Y=              3.2293    Z=              0.2543  Tot=              4.9804
 Quadrupole moment (field-independent basis, Debye-Ang):
   XX=           -335.3618   YY=           -389.7096   ZZ=           -401.6511
   XY=            -18.2982   XZ=             12.1897   YZ=             -4.2345

 Normal termination of Gaussian 09 at Sun Jun 30 15:28:09 2019.
