 Gaussian 09, Revision D.01,
 Gaussian 09:  ES64L-G09RevD.01 24-Apr-2013

 -------------------------------------
 # td=(NStates=1) CAM-B3LYP/6-31G(d,p)
 -------------------------------------

 --
 TD
 --
 Symbolic Z-matrix:
 Charge =  0 Multiplicity = 1

                         Standard orientation:
 ---------------------------------------------------------------------
 Center     Atomic      Atomic             Coordinates (Angstroms)
 Number     Number       Type             X           Y           Z
 ---------------------------------------------------------------------
      1         12           0       -7.152466    0.554915    0.116919
      2          6           0       -4.850011   -1.957672    0.511586
      3          6           0       -4.753883    2.759859    1.170587
      4          6           0       -9.366728    3.126847   -0.366580
      5          6           0       -9.502441   -1.649116   -0.864590
      6          7           0       -5.110213    0.381417    0.818474
      7          6           0       -4.372613   -0.771426    0.897546
      8          6           0       -2.915633   -0.453833    1.286863
      9          6           0       -3.120820    1.021181    1.706737
     10          6           0       -4.457943    1.487784    1.257380
     11          6           0       -2.948942    1.155085    3.203386
     12          6           0       -1.965247   -0.669048    0.073922
     13          6           0       -0.504475   -0.393729    0.548664
     14          6           0        0.551476   -0.686795   -0.676041
     15          8           0        0.229429   -0.990064   -1.748779
     16          8           0        1.789502   -0.480297   -0.236925
     17          7           0       -7.046935    2.604054    0.204539
     18          6           0       -6.105218    3.280210    0.763731
     19          6           0       -6.411914    4.672109    0.964962
     20          6           0       -7.757608    4.788968    0.466954
     21          6           0       -8.129057    3.441207   -0.069190
     22          6           0       -5.577059    5.809116    1.442196
     23          6           0       -8.553260    6.048488    0.384586
     24          6           0       -8.122509    7.263624    0.094293
     25          7           0       -9.122271    0.661941   -0.476075
     26          6           0       -9.922108    1.738423   -0.521198
     27          6           0      -11.184751    1.462226   -1.012055
     28          6           0      -11.236800    0.125947   -1.142927
     29          6           0       -9.941679   -0.349813   -0.799989
     30          6           0      -12.257183    2.548673   -1.310453
     31          6           0      -12.398430   -0.694908   -1.802535
     32          6           0      -12.107405   -0.945557   -3.280388
     33          7           0       -7.196731   -1.369708   -0.159020
     34          6           0       -8.319759   -2.251629   -0.585667
     35          6           0       -7.906606   -3.608432   -0.469374
     36          6           0       -6.558562   -3.592815   -0.040466
     37          6           0       -6.139715   -2.161688    0.101483
     38          6           0       -8.590535   -4.855756   -0.798319
     39          6           0       -5.389825   -4.515016    0.225680
     40          8           0       -5.226536   -5.734226    0.058080
     41          6           0       -4.226411   -3.376652    0.590179
     42          6           0       -3.503504   -3.577838    1.864968
     43          8           0       -3.819906   -3.190926    2.900049
     44          8           0       -2.555088   -4.582244    1.582736
     45          6           0       -1.979845   -5.165736    2.727899
     46          6           0        2.731867   -0.519939   -1.230031
     47          6           0        4.078246   -0.381015   -0.644518
     48          6           0        5.059474    0.519273   -0.974628
     49          6           0        5.120982    1.256110   -2.298531
     50          6           0        6.345584    0.577345   -0.237533
     51          6           0        7.505140   -0.130767   -0.974860
     52          6           0        8.891031    0.005073   -0.111015
     53          6           0       10.198323   -0.560547   -0.798711
     54          6           0       10.080652   -2.116408   -1.263912
     55          6           0       11.428098   -0.395336    0.043591
     56          6           0       12.715697   -0.484692   -0.646038
     57          6           0       13.959214   -0.120074    0.212476
     58          6           0       15.377690   -0.298198   -0.476172
     59          6           0       15.539283   -1.664471   -0.948090
     60          6           0       16.373112    0.222500    0.456761
     61          6           0       17.778882    0.421114   -0.208856
     62          6           0       18.740605    1.321122    0.737953
     63          6           0       20.175630    1.346497    0.141822
     64          6           0       20.357190    2.290100   -1.053767
     65          6           0       21.106605    1.963145    1.323543
     66          1           0       -3.876114    3.289354    1.556499
     67          1           0      -10.217388    3.920913   -0.465894
     68          1           0      -10.151215   -2.470739   -1.376614
     69          1           0       -2.701084   -1.187553    2.270532
     70          1           0       -2.316839    1.593318    1.358411
     71          1           0       -1.837234    1.094703    3.484217
     72          1           0       -3.178465    2.052303    3.430918
     73          1           0       -3.689859    0.556634    3.851746
     74          1           0       -2.036631   -1.728078   -0.221173
     75          1           0       -2.213635   -0.122020   -0.570603
     76          1           0       -0.233900    0.743253    0.719151
     77          1           0       -0.210389   -0.875652    1.491324
     78          1           0       -4.912163    6.317618    0.485453
     79          1           0       -6.025827    6.736011    1.860870
     80          1           0       -4.703204    5.334187    1.868795
     81          1           0       -9.583760    5.948292    0.502105
     82          1           0       -8.896206    8.260345    0.114895
     83          1           0       -7.012795    7.505980   -0.123559
     84          1           0      -11.775215    3.406364   -1.955706
     85          1           0      -13.008653    2.099557   -1.854792
     86          1           0      -12.642670    2.924979   -0.368993
     87          1           0      -12.385666   -1.651477   -1.181768
     88          1           0      -13.468504   -0.006012   -1.816366
     89          1           0      -12.698144   -1.752091   -3.723733
     90          1           0      -12.160687    0.060131   -3.895654
     91          1           0      -11.142948   -1.449189   -3.607008
     92          1           0       -9.001303   -4.823547   -1.879187
     93          1           0       -8.087564   -5.685126   -0.455486
     94          1           0       -9.442458   -4.887860   -0.162200
     95          1           0       -3.671787   -3.442716   -0.306057
     96          1           0       -1.421140   -4.474972    3.345926
     97          1           0       -2.699289   -5.714982    3.364050
     98          1           0       -1.194796   -5.998349    2.472325
     99          1           0        2.882208   -1.486046   -1.734335
    100          1           0        2.630559    0.054543   -2.273313
    101          1           0        4.192180   -1.010152    0.077470
    102          1           0        4.120765    1.499395   -2.802071
    103          1           0        5.601189    2.215735   -1.790674
    104          1           0        5.664000    0.870429   -3.237323
    105          1           0        6.630358    1.781274    0.088309
    106          1           0        6.228226    0.195004    0.831331
    107          1           0        7.475661   -1.065568   -1.053779
    108          1           0        7.725084    0.443554   -1.843728
    109          1           0        9.134742    1.169744   -0.226550
    110          1           0        8.967123   -0.466178    0.805540
    111          1           0       10.194323    0.116172   -1.702991
    112          1           0        9.084109   -2.210652   -1.840213
    113          1           0       11.090845   -2.556456   -1.807276
    114          1           0        9.993625   -2.852056   -0.380530
    115          1           0       11.541754    0.732997    0.561939
    116          1           0       11.402528   -1.067924    1.022693
    117          1           0       12.818262   -1.607426   -0.987750
    118          1           0       12.797710    0.301847   -1.376226
    119          1           0       14.031379    0.982650    0.678849
    120          1           0       14.020192   -0.668227    0.925820
    121          1           0       15.334897    0.363875   -1.221370
    122          1           0       15.709541   -2.249716   -0.032607
    123          1           0       14.756812   -2.110071   -1.557104
    124          1           0       16.636156   -1.941177   -1.490762
    125          1           0       16.114462    1.087448    0.848720
    126          1           0       16.445945   -0.340756    1.403181
    127          1           0       18.278520   -0.584642   -0.440625
    128          1           0       17.699627    0.875542   -1.187586
    129          1           0       18.565007    2.381228    0.872228
    130          1           0       18.916847    0.942812    1.771958
    131          1           0       20.505407    0.210545    0.029700
    132          1           0       19.584331    3.137989   -0.840360
    133          1           0       21.479314    2.476279   -1.396721
    134          1           0       19.894996    1.927036   -1.946327
    135          1           0       21.348577    1.140984    2.159411
    136          1           0       22.061708    2.194141    0.935528
    137          1           0       20.644175    2.942681    1.825465
 ---------------------------------------------------------------------

 SCF Done:  E(RCAM-B3LYP) =  -2932.51705002     A.U. after   15 cycles

 Excitation energies and oscillator strengths:

 Excited State   1:      Singlet-A      2.3062 eV  537.61 nm  f=0.2756  <S**2>=0.000
     240 -> 242       -0.21383
     240 -> 243       -0.21841
     241 -> 242        0.60895
     241 -> 243       -0.14282
 This state for optimization and/or second-order correction.
 Total Energy, E(TD-HF/TD-KS) =  -2932.43229802
 Copying the excited state density for this state as the 1-particle RhoCI density.

 The electronic state is 1-A.
 Alpha  occ. eigenvalues --  -46.83768 -19.27732 -19.25182 -19.22339 -19.21928
 Alpha  occ. eigenvalues --  -19.21471 -14.40728 -14.39761 -14.39276 -14.38961
 Alpha  occ. eigenvalues --  -10.39467 -10.38926 -10.36760 -10.31856 -10.31834
 Alpha  occ. eigenvalues --  -10.30738 -10.30023 -10.29744 -10.29218 -10.29107
 Alpha  occ. eigenvalues --  -10.29103 -10.29037 -10.28972 -10.28959 -10.28786
 Alpha  occ. eigenvalues --  -10.28698 -10.28589 -10.28323 -10.28225 -10.28060
 Alpha  occ. eigenvalues --  -10.27944 -10.27898 -10.27735 -10.27711 -10.27561
 Alpha  occ. eigenvalues --  -10.27514 -10.27417 -10.27411 -10.27306 -10.27038
 Alpha  occ. eigenvalues --  -10.26967 -10.26639 -10.26517 -10.26350 -10.26048
 Alpha  occ. eigenvalues --  -10.26039 -10.25947 -10.25831 -10.25728 -10.25711
 Alpha  occ. eigenvalues --  -10.25683 -10.25548 -10.25443 -10.25348 -10.25232
 Alpha  occ. eigenvalues --  -10.25219 -10.25143 -10.25029 -10.24926 -10.24905
 Alpha  occ. eigenvalues --  -10.24698 -10.24519 -10.23668 -10.23632 -10.23329
 Alpha  occ. eigenvalues --   -3.12947  -1.87644  -1.87175  -1.87147  -1.21690
 Alpha  occ. eigenvalues --   -1.19160  -1.13046  -1.11150  -1.09911  -1.05800
 Alpha  occ. eigenvalues --   -1.04896  -1.03340  -1.01131  -0.92134  -0.91630
 Alpha  occ. eigenvalues --   -0.90948  -0.89618  -0.89407  -0.89030  -0.88763
 Alpha  occ. eigenvalues --   -0.88222  -0.88090  -0.87936  -0.87500  -0.86175
 Alpha  occ. eigenvalues --   -0.85637  -0.84031  -0.83807  -0.83188  -0.82796
 Alpha  occ. eigenvalues --   -0.81119  -0.80793  -0.80142  -0.79385  -0.78525
 Alpha  occ. eigenvalues --   -0.77622  -0.76968  -0.75984  -0.75490  -0.75132
 Alpha  occ. eigenvalues --   -0.74858  -0.74388  -0.73711  -0.73566  -0.72840
 Alpha  occ. eigenvalues --   -0.71860  -0.71194  -0.69290  -0.69037  -0.67977
 Alpha  occ. eigenvalues --   -0.67720  -0.67134  -0.65751  -0.65479  -0.64931
 Alpha  occ. eigenvalues --   -0.64624  -0.64555  -0.63615  -0.61863  -0.61678
 Alpha  occ. eigenvalues --   -0.61234  -0.60868  -0.60629  -0.60083  -0.59528
 Alpha  occ. eigenvalues --   -0.59021  -0.58265  -0.57791  -0.57368  -0.57166
 Alpha  occ. eigenvalues --   -0.56211  -0.55654  -0.55351  -0.55179  -0.54843
 Alpha  occ. eigenvalues --   -0.54719  -0.54664  -0.54301  -0.54068  -0.53564
 Alpha  occ. eigenvalues --   -0.53498  -0.52817  -0.52400  -0.52150  -0.51779
 Alpha  occ. eigenvalues --   -0.51510  -0.51083  -0.50788  -0.50711  -0.50475
 Alpha  occ. eigenvalues --   -0.50314  -0.50072  -0.50025  -0.49501  -0.49229
 Alpha  occ. eigenvalues --   -0.49120  -0.49074  -0.48981  -0.48740  -0.48400
 Alpha  occ. eigenvalues --   -0.47975  -0.47606  -0.47395  -0.47186  -0.47036
 Alpha  occ. eigenvalues --   -0.46650  -0.46608  -0.46259  -0.46017  -0.46013
 Alpha  occ. eigenvalues --   -0.45907  -0.45629  -0.45493  -0.45373  -0.45059
 Alpha  occ. eigenvalues --   -0.44968  -0.44837  -0.44332  -0.44175  -0.43855
 Alpha  occ. eigenvalues --   -0.43663  -0.43593  -0.43270  -0.43086  -0.43019
 Alpha  occ. eigenvalues --   -0.42887  -0.42830  -0.42654  -0.42506  -0.42199
 Alpha  occ. eigenvalues --   -0.42151  -0.41608  -0.41357  -0.41287  -0.40884
 Alpha  occ. eigenvalues --   -0.40829  -0.40793  -0.40633  -0.40301  -0.40233
 Alpha  occ. eigenvalues --   -0.40002  -0.39902  -0.39689  -0.39676  -0.38979
 Alpha  occ. eigenvalues --   -0.38938  -0.38636  -0.38288  -0.37959  -0.37922
 Alpha  occ. eigenvalues --   -0.37672  -0.37458  -0.37392  -0.36777  -0.36569
 Alpha  occ. eigenvalues --   -0.36465  -0.36139  -0.36038  -0.35915  -0.35782
 Alpha  occ. eigenvalues --   -0.35391  -0.35056  -0.34709  -0.34084  -0.33938
 Alpha  occ. eigenvalues --   -0.32929  -0.32790  -0.32486  -0.31502  -0.30157
 Alpha  occ. eigenvalues --   -0.29462  -0.28675  -0.28428  -0.27928  -0.23841
 Alpha  occ. eigenvalues --   -0.21938
 Alpha virt. eigenvalues --   -0.06046  -0.03065   0.01493   0.04599   0.05010
 Alpha virt. eigenvalues --    0.05805   0.06122   0.06796   0.07713   0.07966
 Alpha virt. eigenvalues --    0.08623   0.10259   0.10860   0.10884   0.11371

 Mulliken charges:
               1
     1  Mg   0.813988
     2  C    0.048071
     3  C   -0.196949
     4  C   -0.166827
     5  C   -0.195876
     6  N   -0.693229
     7  C    0.302449
     8  C   -0.177467
     9  C   -0.182387
    10  C    0.408522
    11  C   -0.298359
    12  C   -0.099468
    13  C   -0.287443
    14  C    0.589109
    15  O   -0.425197
    16  O   -0.428866
    17  N   -0.687929
    18  C    0.330034
    19  C    0.043247
    20  C   -0.036571
    21  C    0.317571
    22  C   -0.368371
    23  C   -0.060911
    24  C   -0.240180
    25  N   -0.661264
    26  C    0.248271
    27  C    0.014411
    28  C    0.008663
    29  C    0.308660
    30  C   -0.353407
    31  C   -0.214396
    32  C   -0.297265
    33  N   -0.765279
    34  C    0.243812
    35  C    0.058738
    36  C   -0.056257
    37  C    0.338064
    38  C   -0.375591
    39  C    0.385930
    40  O   -0.456904
    41  C   -0.301977
    42  C    0.620735
    43  O   -0.415466
    44  O   -0.474245
    45  C   -0.087173
    46  C    0.001545
    47  C   -0.117333
    48  C    0.113307
    49  C   -0.350522
    50  C   -0.233054
    51  C   -0.145619
    52  C   -0.195220
    53  C   -0.057798
    54  C   -0.318039
    55  C   -0.149253
    56  C   -0.164580
    57  C   -0.174335
    58  C   -0.049077
    59  C   -0.300404
    60  C   -0.171460
    61  C   -0.188408
    62  C   -0.177011
    63  C   -0.058790
    64  C   -0.299592
    65  C   -0.306906
    66  H    0.084752
    67  H    0.103817
    68  H    0.087012
    69  H    0.110328
    70  H    0.098438
    71  H    0.093055
    72  H    0.110891
    73  H    0.111685
    74  H    0.122680
    75  H    0.107142
    76  H    0.112794
    77  H    0.133155
    78  H    0.079414
    79  H    0.140601
    80  H    0.119178
    81  H    0.095638
    82  H    0.090052
    83  H    0.107922
    84  H    0.106526
    85  H    0.115635
    86  H    0.128647
    87  H    0.105555
    88  H    0.082257
    89  H    0.105198
    90  H    0.099543
    91  H    0.101802
    92  H    0.124687
    93  H    0.155232
    94  H    0.129481
    95  H    0.170384
    96  H    0.115520
    97  H    0.121632
    98  H    0.106747
    99  H    0.120002
   100  H    0.103258
   101  H    0.083606
   102  H    0.101447
   103  H    0.095324
   104  H    0.123223
   105  H    0.066798
   106  H    0.097590
   107  H    0.112667
   108  H    0.108270
   109  H    0.080243
   110  H    0.101881
   111  H    0.080421
   112  H    0.098587
   113  H    0.090042
   114  H    0.094457
   115  H    0.052551
   116  H    0.073570
   117  H    0.081408
   118  H    0.103416
   119  H    0.061730
   120  H    0.096958
   121  H    0.091405
   122  H    0.098924
   123  H    0.111579
   124  H    0.062287
   125  H    0.102112
   126  H    0.081351
   127  H    0.090263
   128  H    0.099139
   129  H    0.091522
   130  H    0.096464
   131  H    0.073014
   132  H    0.092523
   133  H    0.098660
   134  H    0.106762
   135  H    0.077927
   136  H    0.105188
   137  H    0.083560
 Sum of Mulliken charges =   0.00000

 Dipole moment (field-independent basis, Debye):
    X=             -0.2502    Y=              4.7053    Z=              0.1615  Tot=              4.7147
 Quadrupole moment (field-independent basis, Debye-Ang):
   XX=           -349.6925   YY=           -393.7732   ZZ=           -399.0220
   XY=            -27.0722   XZ=              6.3558   YZ=             -1.4165

 Normal termination of Gaussian 09 at Sun Jun 30 20:18:43 2019.
