 Gaussian 09, Revision D.01,
 Gaussian 09:  ES64L-G09RevD.01 24-Apr-2013

 -------------------------------------
 # td=(NStates=1) CAM-B3LYP/6-31G(d,p)
 -------------------------------------

 --
 TD
 --
 Symbolic Z-matrix:
 Charge =  0 Multiplicity = 1

                         Standard orientation:
 ---------------------------------------------------------------------
 Center     Atomic      Atomic             Coordinates (Angstroms)
 Number     Number       Type             X           Y           Z
 ---------------------------------------------------------------------
      1         12           0       -7.198201    0.555516    0.144434
      2          6           0       -4.858768   -2.001355    0.479337
      3          6           0       -4.926146    2.784879    1.160544
      4          6           0       -9.422279    3.084582   -0.324007
      5          6           0       -9.413073   -1.700087   -0.913440
      6          7           0       -5.171410    0.333144    0.812625
      7          6           0       -4.373879   -0.690048    0.773821
      8          6           0       -2.886632   -0.350793    1.210614
      9          6           0       -3.063532    1.130185    1.692361
     10          6           0       -4.508417    1.487094    1.248432
     11          6           0       -3.068527    1.229001    3.269814
     12          6           0       -1.939687   -0.583762    0.024446
     13          6           0       -0.486438   -0.361779    0.348780
     14          6           0        0.554906   -0.666626   -0.641564
     15          8           0        0.248709   -1.023317   -1.775264
     16          8           0        1.829963   -0.371826   -0.311639
     17          7           0       -7.153932    2.593889    0.331773
     18          6           0       -6.118302    3.335548    0.846634
     19          6           0       -6.450239    4.691584    0.880156
     20          6           0       -7.716802    4.800741    0.431244
     21          6           0       -8.189334    3.458252    0.156387
     22          6           0       -5.607433    5.868168    1.400807
     23          6           0       -8.601549    5.872802    0.307069
     24          6           0       -8.290202    7.186637    0.216860
     25          7           0       -9.099165    0.723438   -0.452381
     26          6           0       -9.968941    1.858396   -0.599337
     27          6           0      -11.185111    1.503683   -1.152881
     28          6           0      -11.280258    0.046168   -1.253243
     29          6           0       -9.862146   -0.385892   -0.823379
     30          6           0      -12.281601    2.567558   -1.327508
     31          6           0      -12.406988   -0.819466   -1.713092
     32          6           0      -12.390152   -0.976322   -3.244303
     33          7           0       -7.148650   -1.425696   -0.138880
     34          6           0       -8.217154   -2.218584   -0.504818
     35          6           0       -7.803938   -3.696266   -0.434726
     36          6           0       -6.500238   -3.592350   -0.148765
     37          6           0       -6.166849   -2.230010    0.082839
     38          6           0       -8.507422   -4.856292   -0.915958
     39          6           0       -5.353670   -4.411857    0.267214
     40          8           0       -5.162394   -5.607508    0.159798
     41          6           0       -4.187142   -3.403588    0.617348
     42          6           0       -3.441632   -3.807552    1.858399
     43          8           0       -3.720532   -3.267768    2.945197
     44          8           0       -2.628012   -4.792976    1.770505
     45          6           0       -2.049552   -5.206610    2.924010
     46          6           0        2.754431   -0.526077   -1.334905
     47          6           0        4.146950   -0.403091   -0.711675
     48          6           0        5.128944    0.422393   -1.064128
     49          6           0        5.019585    1.314373   -2.204364
     50          6           0        6.486428    0.379631   -0.223265
     51          6           0        7.620233   -0.124653   -1.027993
     52          6           0        8.839088   -0.027879   -0.165739
     53          6           0       10.184419   -0.454746   -0.886378
     54          6           0       10.063058   -1.859726   -1.384013
     55          6           0       11.425301   -0.192739   -0.009510
     56          6           0       12.820283   -0.345395   -0.755362
     57          6           0       13.982276    0.017743    0.135618
     58          6           0       15.291638   -0.101628   -0.526562
     59          6           0       15.621088   -1.543700   -0.747746
     60          6           0       16.402482    0.577821    0.302237
     61          6           0       17.834781    0.571319   -0.284154
     62          6           0       18.726868    1.161515    0.818627
     63          6           0       20.360368    1.121191    0.351242
     64          6           0       20.489890    1.966633   -0.966683
     65          6           0       21.128460    1.764227    1.475302
     66          1           0       -4.182643    3.486163    1.599986
     67          1           0      -10.024294    3.779769   -0.656180
     68          1           0      -10.157204   -2.353885   -1.301440
     69          1           0       -2.532452   -0.814022    2.101017
     70          1           0       -2.041696    1.674345    1.471151
     71          1           0       -2.145648    0.904347    3.483942
     72          1           0       -3.556698    2.197725    3.866411
     73          1           0       -3.739863    0.468258    3.692972
     74          1           0       -1.953157   -1.640580   -0.333803
     75          1           0       -2.168258    0.143247   -0.746753
     76          1           0       -0.186716    0.635054    0.704197
     77          1           0       -0.193254   -1.023403    1.239928
     78          1           0       -4.677305    6.207317    0.797719
     79          1           0       -6.427027    6.807177    1.500917
     80          1           0       -5.005288    5.473071    2.285033
     81          1           0       -9.756154    5.800231    0.497255
     82          1           0       -9.133248    8.144915    0.249086
     83          1           0       -7.237111    7.397037    0.136809
     84          1           0      -11.986635    3.206057   -1.950825
     85          1           0      -13.297558    2.173028   -1.751256
     86          1           0      -12.257312    3.070632   -0.440206
     87          1           0      -12.238470   -1.884622   -1.356584
     88          1           0      -13.428887   -0.306617   -1.419207
     89          1           0      -13.324684   -1.634417   -3.624812
     90          1           0      -12.255553   -0.121611   -3.835809
     91          1           0      -11.517817   -1.589686   -3.498055
     92          1           0       -8.628861   -4.874843   -2.122036
     93          1           0       -7.896664   -5.706942   -0.776234
     94          1           0       -9.527768   -4.895736   -0.559164
     95          1           0       -3.220760   -3.318863   -0.024595
     96          1           0       -1.610245   -4.456747    3.382768
     97          1           0       -2.962241   -5.606309    3.709890
     98          1           0       -1.304187   -6.097754    2.795618
     99          1           0        2.635831   -1.783409   -1.663104
    100          1           0        2.348766   -0.104667   -2.233148
    101          1           0        4.367199   -1.129575    0.134968
    102          1           0        3.897383    1.628128   -2.381176
    103          1           0        5.583729    2.304350   -1.891187
    104          1           0        5.489080    1.047671   -3.371748
    105          1           0        6.669538    1.562903   -0.011257
    106          1           0        6.352276    0.044783    0.633222
    107          1           0        7.650045   -1.267273   -1.423174
    108          1           0        7.688754    0.384530   -1.977179
    109          1           0        9.046182    0.967199    0.146933
    110          1           0        8.931695   -0.656922    0.807357
    111          1           0       10.462770    0.369085   -1.696076
    112          1           0        9.474182   -2.151106   -2.215958
    113          1           0       11.110138   -2.286983   -1.646302
    114          1           0        9.932425   -2.425145   -0.479786
    115          1           0       11.383429    0.683686    0.642428
    116          1           0       11.536637   -1.152822    0.555614
    117          1           0       12.596434   -1.356743   -0.967406
    118          1           0       13.017125    0.062685   -1.753717
    119          1           0       13.801915    1.024374    0.475983
    120          1           0       13.811483   -0.733066    0.934017
    121          1           0       15.232469    0.527610   -1.482952
    122          1           0       15.712502   -2.186119    0.182199
    123          1           0       14.811489   -2.273724   -1.378583
    124          1           0       16.591768   -1.577424   -1.384443
    125          1           0       16.180890    1.637235    0.398487
    126          1           0       16.447132   -0.034637    1.304818
    127          1           0       18.353130   -0.406479   -0.451446
    128          1           0       18.011207    1.054878   -1.283091
    129          1           0       18.450666    2.097363    0.909199
    130          1           0       18.728584    0.614170    1.768934
    131          1           0       20.705218    0.126008   -0.076656
    132          1           0       20.092091    2.971920   -0.788861
    133          1           0       21.603495    1.791541   -1.266844
    134          1           0       19.839225    1.621534   -1.981513
    135          1           0       20.807048    1.374999    2.586297
    136          1           0       22.122365    1.889715    1.544595
    137          1           0       20.803336    2.785414    1.805035
 ---------------------------------------------------------------------

 SCF Done:  E(RCAM-B3LYP) =  -2932.57836265     A.U. after   16 cycles

 Excitation energies and oscillator strengths:

 Excited State   1:      Singlet-A      2.0687 eV  599.34 nm  f=0.2231  <S**2>=0.000
     240 -> 243       -0.28136
     241 -> 242        0.63943
 This state for optimization and/or second-order correction.
 Total Energy, E(TD-HF/TD-KS) =  -2932.50234046
 Copying the excited state density for this state as the 1-particle RhoCI density.

 The electronic state is 1-A.
 Alpha  occ. eigenvalues --  -46.83967 -19.28315 -19.26872 -19.21630 -19.20652
 Alpha  occ. eigenvalues --  -19.19432 -14.42264 -14.39707 -14.38951 -14.38912
 Alpha  occ. eigenvalues --  -10.39259 -10.39148 -10.36345 -10.33157 -10.32341
 Alpha  occ. eigenvalues --  -10.31720 -10.30920 -10.30097 -10.29681 -10.29508
 Alpha  occ. eigenvalues --  -10.29143 -10.28952 -10.28737 -10.28621 -10.28311
 Alpha  occ. eigenvalues --  -10.28285 -10.28209 -10.28198 -10.28157 -10.28045
 Alpha  occ. eigenvalues --  -10.27904 -10.27621 -10.27576 -10.27542 -10.27313
 Alpha  occ. eigenvalues --  -10.27233 -10.27225 -10.27037 -10.26999 -10.26884
 Alpha  occ. eigenvalues --  -10.26645 -10.26543 -10.26543 -10.26463 -10.26341
 Alpha  occ. eigenvalues --  -10.26217 -10.26178 -10.26005 -10.25962 -10.25855
 Alpha  occ. eigenvalues --  -10.25853 -10.25789 -10.25687 -10.25666 -10.25619
 Alpha  occ. eigenvalues --  -10.25449 -10.25424 -10.25285 -10.25049 -10.25037
 Alpha  occ. eigenvalues --  -10.24824 -10.24671 -10.24304 -10.24018 -10.23836
 Alpha  occ. eigenvalues --   -3.13148  -1.87842  -1.87416  -1.87313  -1.22826
 Alpha  occ. eigenvalues --   -1.19626  -1.12145  -1.09233  -1.07905  -1.06276
 Alpha  occ. eigenvalues --   -1.04596  -1.03750  -1.00293  -0.92430  -0.91610
 Alpha  occ. eigenvalues --   -0.91050  -0.90783  -0.90107  -0.89525  -0.89311
 Alpha  occ. eigenvalues --   -0.89024  -0.88104  -0.87776  -0.87526  -0.86635
 Alpha  occ. eigenvalues --   -0.85667  -0.85224  -0.84285  -0.83461  -0.83121
 Alpha  occ. eigenvalues --   -0.82320  -0.81777  -0.80742  -0.80346  -0.78497
 Alpha  occ. eigenvalues --   -0.77543  -0.77345  -0.76741  -0.75972  -0.75494
 Alpha  occ. eigenvalues --   -0.75245  -0.74862  -0.73714  -0.73560  -0.72721
 Alpha  occ. eigenvalues --   -0.72342  -0.70637  -0.69378  -0.69209  -0.68988
 Alpha  occ. eigenvalues --   -0.66901  -0.66770  -0.65712  -0.65373  -0.64821
 Alpha  occ. eigenvalues --   -0.64632  -0.63632  -0.63400  -0.63335  -0.62690
 Alpha  occ. eigenvalues --   -0.61390  -0.61144  -0.60522  -0.60026  -0.59727
 Alpha  occ. eigenvalues --   -0.59294  -0.58581  -0.58171  -0.57694  -0.57185
 Alpha  occ. eigenvalues --   -0.57048  -0.56143  -0.55675  -0.55478  -0.55349
 Alpha  occ. eigenvalues --   -0.55092  -0.54936  -0.54373  -0.54012  -0.53792
 Alpha  occ. eigenvalues --   -0.53163  -0.52657  -0.52380  -0.52062  -0.51892
 Alpha  occ. eigenvalues --   -0.51676  -0.51449  -0.51127  -0.50995  -0.50660
 Alpha  occ. eigenvalues --   -0.50610  -0.50385  -0.49904  -0.49799  -0.49756
 Alpha  occ. eigenvalues --   -0.49346  -0.49263  -0.48912  -0.48795  -0.48496
 Alpha  occ. eigenvalues --   -0.48314  -0.47753  -0.47617  -0.47408  -0.47224
 Alpha  occ. eigenvalues --   -0.46932  -0.46575  -0.46430  -0.46324  -0.45990
 Alpha  occ. eigenvalues --   -0.45620  -0.45574  -0.45468  -0.45294  -0.45143
 Alpha  occ. eigenvalues --   -0.44828  -0.44779  -0.44615  -0.44387  -0.44165
 Alpha  occ. eigenvalues --   -0.44063  -0.43587  -0.43529  -0.43154  -0.42924
 Alpha  occ. eigenvalues --   -0.42685  -0.42506  -0.42334  -0.42103  -0.42080
 Alpha  occ. eigenvalues --   -0.41632  -0.41587  -0.41553  -0.41435  -0.41341
 Alpha  occ. eigenvalues --   -0.41142  -0.40974  -0.40773  -0.40733  -0.40322
 Alpha  occ. eigenvalues --   -0.40150  -0.40005  -0.39830  -0.39655  -0.39450
 Alpha  occ. eigenvalues --   -0.39247  -0.39164  -0.38614  -0.37959  -0.37625
 Alpha  occ. eigenvalues --   -0.37536  -0.37453  -0.37311  -0.36861  -0.36432
 Alpha  occ. eigenvalues --   -0.36204  -0.36000  -0.35771  -0.35529  -0.35480
 Alpha  occ. eigenvalues --   -0.35303  -0.34666  -0.33909  -0.33647  -0.33329
 Alpha  occ. eigenvalues --   -0.32889  -0.32503  -0.32423  -0.31153  -0.31039
 Alpha  occ. eigenvalues --   -0.30325  -0.29491  -0.27757  -0.26907  -0.23089
 Alpha  occ. eigenvalues --   -0.21043
 Alpha virt. eigenvalues --   -0.06182  -0.03803   0.01094   0.03774   0.05305
 Alpha virt. eigenvalues --    0.05699   0.06016   0.06167   0.06666   0.07281
 Alpha virt. eigenvalues --    0.07927   0.09449   0.10649   0.11336   0.11402

 Mulliken charges:
               1
     1  Mg   0.818182
     2  C    0.074648
     3  C   -0.191012
     4  C   -0.166552
     5  C   -0.193136
     6  N   -0.616633
     7  C    0.298281
     8  C   -0.140139
     9  C   -0.168425
    10  C    0.308173
    11  C   -0.313274
    12  C   -0.158851
    13  C   -0.277756
    14  C    0.606254
    15  O   -0.484674
    16  O   -0.452649
    17  N   -0.708444
    18  C    0.325240
    19  C    0.052957
    20  C    0.044290
    21  C    0.306000
    22  C   -0.368624
    23  C   -0.089224
    24  C   -0.274143
    25  N   -0.706028
    26  C    0.294536
    27  C   -0.008634
    28  C    0.011225
    29  C    0.303261
    30  C   -0.355538
    31  C   -0.243235
    32  C   -0.300160
    33  N   -0.724842
    34  C    0.269338
    35  C    0.045165
    36  C    0.002000
    37  C    0.313493
    38  C   -0.381858
    39  C    0.395293
    40  O   -0.446644
    41  C   -0.302049
    42  C    0.578995
    43  O   -0.506394
    44  O   -0.368998
    45  C   -0.078308
    46  C    0.014233
    47  C   -0.128502
    48  C    0.129887
    49  C   -0.354968
    50  C   -0.186123
    51  C   -0.155562
    52  C   -0.168483
    53  C   -0.049452
    54  C   -0.328540
    55  C   -0.209171
    56  C   -0.181251
    57  C   -0.146206
    58  C   -0.055231
    59  C   -0.296018
    60  C   -0.160975
    61  C   -0.197423
    62  C   -0.171211
    63  C   -0.066235
    64  C   -0.290977
    65  C   -0.306274
    66  H    0.077718
    67  H    0.063456
    68  H    0.077248
    69  H    0.125268
    70  H    0.098095
    71  H    0.111692
    72  H    0.098243
    73  H    0.128096
    74  H    0.123180
    75  H    0.128904
    76  H    0.135536
    77  H    0.119850
    78  H    0.112735
    79  H    0.104404
    80  H    0.108805
    81  H    0.096206
    82  H    0.092696
    83  H    0.105973
    84  H    0.138190
    85  H    0.102547
    86  H    0.132326
    87  H    0.107811
    88  H    0.104467
    89  H    0.080365
    90  H    0.122255
    91  H    0.105981
    92  H    0.116204
    93  H    0.157241
    94  H    0.127432
    95  H    0.139852
    96  H    0.136768
    97  H    0.098148
    98  H    0.115976
    99  H    0.070829
   100  H    0.141673
   101  H    0.094578
   102  H    0.108607
   103  H    0.095740
   104  H    0.095035
   105  H    0.073007
   106  H    0.102222
   107  H    0.083930
   108  H    0.110783
   109  H    0.095100
   110  H    0.079614
   111  H    0.065794
   112  H    0.121779
   113  H    0.086622
   114  H    0.109569
   115  H    0.090567
   116  H    0.080256
   117  H    0.096551
   118  H    0.077228
   119  H    0.087146
   120  H    0.084305
   121  H    0.076063
   122  H    0.101561
   123  H    0.069567
   124  H    0.096899
   125  H    0.093996
   126  H    0.081738
   127  H    0.092210
   128  H    0.089834
   129  H    0.103166
   130  H    0.098126
   131  H    0.090903
   132  H    0.107303
   133  H    0.091452
   134  H    0.067699
   135  H    0.068258
   136  H    0.114596
   137  H    0.099402
 Sum of Mulliken charges =   0.00000

 Dipole moment (field-independent basis, Debye):
    X=              1.5889    Y=              2.8792    Z=              0.5789  Tot=              3.3391
 Quadrupole moment (field-independent basis, Debye-Ang):
   XX=           -348.0395   YY=           -395.7791   ZZ=           -402.0510
   XY=             -7.0347   XZ=             18.2060   YZ=             -0.2367

 Normal termination of Gaussian 09 at Sun Jun 30 20:20:26 2019.
