 Gaussian 09, Revision D.01,
 Gaussian 09:  ES64L-G09RevD.01 24-Apr-2013

 -------------------------------------
 # td=(NStates=1) CAM-B3LYP/6-31G(d,p)
 -------------------------------------

 --
 TD
 --
 Symbolic Z-matrix:
 Charge =  0 Multiplicity = 1

                         Standard orientation:
 ---------------------------------------------------------------------
 Center     Atomic      Atomic             Coordinates (Angstroms)
 Number     Number       Type             X           Y           Z
 ---------------------------------------------------------------------
      1         12           0       -7.155739    0.602148    0.114041
      2          6           0       -4.863856   -1.908734    0.444473
      3          6           0       -4.860234    2.878143    1.148099
      4          6           0       -9.412169    3.087774   -0.356320
      5          6           0       -9.533655   -1.785772   -0.872589
      6          7           0       -5.113024    0.467310    0.587814
      7          6           0       -4.380432   -0.666999    0.685534
      8          6           0       -2.953827   -0.391645    1.288311
      9          6           0       -3.022936    1.080981    1.533017
     10          6           0       -4.426515    1.599790    1.077663
     11          6           0       -2.896827    1.346120    3.079252
     12          6           0       -1.914744   -0.715565    0.132841
     13          6           0       -0.480582   -0.604751    0.660936
     14          6           0        0.544593   -0.618278   -0.516368
     15          8           0        0.257083   -0.939887   -1.657495
     16          8           0        1.825519   -0.286033   -0.151000
     17          7           0       -7.072936    2.656873    0.270936
     18          6           0       -6.070221    3.413240    0.763337
     19          6           0       -6.416372    4.796326    0.837314
     20          6           0       -7.764462    4.895505    0.379491
     21          6           0       -8.229404    3.508890    0.062165
     22          6           0       -5.533903    6.002070    1.398829
     23          6           0       -8.618992    6.033715    0.304967
     24          6           0       -8.148915    7.293154    0.075202
     25          7           0       -9.134780    0.617951   -0.476885
     26          6           0       -9.927411    1.736600   -0.535285
     27          6           0      -11.263927    1.461231   -0.948119
     28          6           0      -11.193901    0.076340   -1.204982
     29          6           0       -9.921961   -0.372024   -0.920776
     30          6           0      -12.516154    2.386535   -1.193805
     31          6           0      -12.375100   -0.838831   -1.673866
     32          6           0      -12.282430   -1.125923   -3.144836
     33          7           0       -7.260980   -1.307915   -0.314191
     34          6           0       -8.315265   -2.217084   -0.570877
     35          6           0       -7.945901   -3.568237   -0.478821
     36          6           0       -6.595095   -3.566456   -0.165707
     37          6           0       -6.268423   -2.079606    0.010612
     38          6           0       -8.703719   -4.870611   -0.840024
     39          6           0       -5.387098   -4.242143    0.071509
     40          8           0       -5.303899   -5.471360    0.072905
     41          6           0       -4.191769   -3.233744    0.537746
     42          6           0       -3.582743   -3.731312    1.824794
     43          8           0       -3.795909   -3.141401    2.944726
     44          8           0       -2.884372   -4.902249    1.649618
     45          6           0       -2.442543   -5.407940    2.895901
     46          6           0        2.820854   -0.606148   -1.123197
     47          6           0        4.109131   -0.427948   -0.469117
     48          6           0        5.212501    0.320804   -0.996064
     49          6           0        5.179756    1.041458   -2.215449
     50          6           0        6.464228    0.475290   -0.117135
     51          6           0        7.681675   -0.082980   -0.963599
     52          6           0        8.965326   -0.143295   -0.072129
     53          6           0       10.263860   -0.556585   -0.792160
     54          6           0       10.238750   -2.094633   -1.105956
     55          6           0       11.470459   -0.282621    0.093321
     56          6           0       12.818169   -0.614508   -0.459576
     57          6           0       14.000384   -0.153462    0.295954
     58          6           0       15.332171   -0.267479   -0.519168
     59          6           0       15.641305   -1.710533   -0.989700
     60          6           0       16.410764    0.422974    0.331278
     61          6           0       17.926959    0.653045   -0.264682
     62          6           0       18.978403    1.294446    0.666953
     63          6           0       20.338419    1.397906    0.107205
     64          6           0       20.444843    2.362943   -1.094429
     65          6           0       21.343489    1.691908    1.285375
     66          1           0       -4.288746    3.755913    1.632054
     67          1           0      -10.103459    3.832063   -0.414718
     68          1           0      -10.179528   -2.552863   -1.289615
     69          1           0       -2.764951   -0.848490    2.136687
     70          1           0       -2.174911    1.639379    0.981973
     71          1           0       -1.941512    1.012235    3.361452
     72          1           0       -3.017437    2.540056    3.352278
     73          1           0       -3.569446    0.792539    3.720544
     74          1           0       -2.144922   -1.871268   -0.145268
     75          1           0       -2.049219   -0.197715   -0.704558
     76          1           0       -0.318448    0.236649    1.254337
     77          1           0       -0.104997   -1.409365    1.394269
     78          1           0       -4.830215    6.595971    0.643631
     79          1           0       -6.263132    6.663526    1.773967
     80          1           0       -4.804297    5.690529    2.225293
     81          1           0       -9.671543    6.004574    0.517483
     82          1           0       -8.680104    8.228517    0.052757
     83          1           0       -7.118194    7.512355   -0.219074
     84          1           0      -12.351869    2.869891   -2.142831
     85          1           0      -13.378736    1.943756   -1.611387
     86          1           0      -12.544910    3.117887   -0.421414
     87          1           0      -12.552059   -1.699917   -1.044331
     88          1           0      -13.248064   -0.241234   -1.437079
     89          1           0      -13.176153   -1.831747   -3.384890
     90          1           0      -12.464385   -0.139007   -3.783918
     91          1           0      -11.543890   -1.760058   -3.540178
     92          1           0       -9.053773   -4.713474   -1.907119
     93          1           0       -7.833675   -5.558659   -1.054278
     94          1           0       -9.370346   -5.105449   -0.132133
     95          1           0       -3.423098   -3.468904   -0.283271
     96          1           0       -1.810928   -4.609566    3.279135
     97          1           0       -3.282928   -5.688401    3.521936
     98          1           0       -1.877018   -6.529012    2.844693
     99          1           0        2.826269   -1.591518   -1.609295
    100          1           0        2.426501    0.058729   -1.962898
    101          1           0        4.207130   -0.993886    0.450399
    102          1           0        4.141005    1.237364   -2.668199
    103          1           0        5.608904    2.123303   -2.246577
    104          1           0        5.826984    0.414044   -3.080702
    105          1           0        6.587140    1.484457    0.128048
    106          1           0        6.147113   -0.110851    0.736086
    107          1           0        7.431928   -1.114578   -1.148040
    108          1           0        7.939462    0.524859   -1.776677
    109          1           0        9.194629    0.950670    0.260334
    110          1           0        8.913916   -0.832950    0.909822
    111          1           0       10.244681   -0.097970   -1.849727
    112          1           0        9.305686   -2.398120   -1.514372
    113          1           0       11.100721   -2.344849   -2.041248
    114          1           0       10.613790   -2.703908   -0.004009
    115          1           0       11.589243    0.745932    0.214946
    116          1           0       11.254727   -0.715292    1.018459
    117          1           0       12.777239   -1.728639   -0.794305
    118          1           0       12.846887    0.005502   -1.363693
    119          1           0       13.645280    0.761379    0.513267
    120          1           0       14.228493   -0.663809    1.520666
    121          1           0       15.323365    0.318199   -1.461571
    122          1           0       16.049257   -2.402401   -0.031465
    123          1           0       14.806012   -2.051337   -1.702007
    124          1           0       16.552460   -1.584240   -1.627308
    125          1           0       16.227911    1.627514    0.509460
    126          1           0       16.437405    0.059709    1.342150
    127          1           0       18.255393   -0.430242   -0.478119
    128          1           0       17.839192    1.168484   -1.200201
    129          1           0       18.510601    2.088104    0.905014
    130          1           0       19.049750    0.630598    1.673705
    131          1           0       20.500222    0.430761   -0.269687
    132          1           0       19.868881    3.330774   -0.814376
    133          1           0       21.433350    2.223751   -1.599405
    134          1           0       19.884358    1.761701   -1.853788
    135          1           0       21.253603    0.876126    2.177528
    136          1           0       22.452815    1.535744    0.779248
    137          1           0       21.320821    2.630276    1.745818
 ---------------------------------------------------------------------

 SCF Done:  E(RCAM-B3LYP) =  -2932.65369070     A.U. after   17 cycles

 Excitation energies and oscillator strengths:

 Excited State   1:      Singlet-A      2.2734 eV  545.38 nm  f=0.1870  <S**2>=0.000
     240 -> 243        0.27916
     241 -> 242        0.63585
 This state for optimization and/or second-order correction.
 Total Energy, E(TD-HF/TD-KS) =  -2932.57014644
 Copying the excited state density for this state as the 1-particle RhoCI density.

 The electronic state is 1-A.
 Alpha  occ. eigenvalues --  -46.83742 -19.27475 -19.26001 -19.21180 -19.21163
 Alpha  occ. eigenvalues --  -19.19950 -14.40870 -14.40257 -14.39182 -14.38444
 Alpha  occ. eigenvalues --  -10.40442 -10.39500 -10.35068 -10.32211 -10.31354
 Alpha  occ. eigenvalues --  -10.31267 -10.30613 -10.30558 -10.29727 -10.29648
 Alpha  occ. eigenvalues --  -10.29439 -10.28908 -10.28620 -10.28410 -10.28242
 Alpha  occ. eigenvalues --  -10.28196 -10.28053 -10.27981 -10.27884 -10.27883
 Alpha  occ. eigenvalues --  -10.27806 -10.27804 -10.27767 -10.27699 -10.27267
 Alpha  occ. eigenvalues --  -10.26987 -10.26789 -10.26768 -10.26759 -10.26754
 Alpha  occ. eigenvalues --  -10.26745 -10.26611 -10.26597 -10.26356 -10.26329
 Alpha  occ. eigenvalues --  -10.26209 -10.26179 -10.26165 -10.26087 -10.26052
 Alpha  occ. eigenvalues --  -10.25905 -10.25875 -10.25839 -10.25769 -10.25740
 Alpha  occ. eigenvalues --  -10.25710 -10.25702 -10.25679 -10.25349 -10.25335
 Alpha  occ. eigenvalues --  -10.25321 -10.24715 -10.24475 -10.23889 -10.23568
 Alpha  occ. eigenvalues --   -3.12911  -1.87605  -1.87178  -1.87077  -1.17729
 Alpha  occ. eigenvalues --   -1.17644  -1.10109  -1.09026  -1.06927  -1.05248
 Alpha  occ. eigenvalues --   -1.03052  -1.02700  -1.01500  -0.91950  -0.91331
 Alpha  occ. eigenvalues --   -0.90547  -0.90010  -0.89738  -0.89687  -0.89139
 Alpha  occ. eigenvalues --   -0.88157  -0.88052  -0.87099  -0.87052  -0.85811
 Alpha  occ. eigenvalues --   -0.84927  -0.84185  -0.83293  -0.82749  -0.82326
 Alpha  occ. eigenvalues --   -0.81118  -0.81037  -0.80436  -0.79787  -0.78351
 Alpha  occ. eigenvalues --   -0.77678  -0.76994  -0.76005  -0.75522  -0.75456
 Alpha  occ. eigenvalues --   -0.75254  -0.74423  -0.73958  -0.73196  -0.72204
 Alpha  occ. eigenvalues --   -0.71958  -0.70204  -0.69333  -0.69019  -0.68509
 Alpha  occ. eigenvalues --   -0.67314  -0.66852  -0.65457  -0.65187  -0.64610
 Alpha  occ. eigenvalues --   -0.63749  -0.63494  -0.63405  -0.62244  -0.62071
 Alpha  occ. eigenvalues --   -0.61203  -0.60717  -0.60417  -0.60141  -0.59040
 Alpha  occ. eigenvalues --   -0.58776  -0.58147  -0.57532  -0.57145  -0.56411
 Alpha  occ. eigenvalues --   -0.56111  -0.55941  -0.55617  -0.55266  -0.55102
 Alpha  occ. eigenvalues --   -0.54489  -0.53922  -0.53627  -0.53379  -0.53355
 Alpha  occ. eigenvalues --   -0.52941  -0.52385  -0.52184  -0.52158  -0.52093
 Alpha  occ. eigenvalues --   -0.51587  -0.51216  -0.50987  -0.50598  -0.50461
 Alpha  occ. eigenvalues --   -0.50067  -0.49934  -0.49699  -0.49508  -0.49388
 Alpha  occ. eigenvalues --   -0.49093  -0.48864  -0.48797  -0.48398  -0.48210
 Alpha  occ. eigenvalues --   -0.47974  -0.47393  -0.47173  -0.46889  -0.46851
 Alpha  occ. eigenvalues --   -0.46818  -0.46687  -0.46439  -0.46198  -0.45833
 Alpha  occ. eigenvalues --   -0.45450  -0.45385  -0.45185  -0.45090  -0.44822
 Alpha  occ. eigenvalues --   -0.44787  -0.44488  -0.44129  -0.43861  -0.43823
 Alpha  occ. eigenvalues --   -0.43749  -0.43592  -0.43378  -0.43145  -0.43012
 Alpha  occ. eigenvalues --   -0.42737  -0.42617  -0.42365  -0.42293  -0.41964
 Alpha  occ. eigenvalues --   -0.41844  -0.41601  -0.41512  -0.41159  -0.41114
 Alpha  occ. eigenvalues --   -0.41029  -0.40985  -0.40756  -0.40703  -0.40309
 Alpha  occ. eigenvalues --   -0.40248  -0.40179  -0.39436  -0.39272  -0.38873
 Alpha  occ. eigenvalues --   -0.38734  -0.38561  -0.37870  -0.37811  -0.37450
 Alpha  occ. eigenvalues --   -0.37320  -0.37013  -0.36952  -0.36665  -0.36472
 Alpha  occ. eigenvalues --   -0.36063  -0.35986  -0.35869  -0.35820  -0.35531
 Alpha  occ. eigenvalues --   -0.35267  -0.35177  -0.34863  -0.33798  -0.33546
 Alpha  occ. eigenvalues --   -0.33210  -0.33139  -0.32835  -0.31071  -0.30526
 Alpha  occ. eigenvalues --   -0.29497  -0.27839  -0.27588  -0.27109  -0.23472
 Alpha  occ. eigenvalues --   -0.21996
 Alpha virt. eigenvalues --   -0.05847  -0.03682   0.01784   0.03592   0.04481
 Alpha virt. eigenvalues --    0.04690   0.05677   0.06253   0.07254   0.07804
 Alpha virt. eigenvalues --    0.09000   0.11092   0.11205   0.11682   0.11798

 Mulliken charges:
               1
     1  Mg   0.810820
     2  C    0.076731
     3  C   -0.196238
     4  C   -0.145359
     5  C   -0.171965
     6  N   -0.676233
     7  C    0.307352
     8  C   -0.113393
     9  C   -0.152357
    10  C    0.352964
    11  C   -0.316608
    12  C   -0.164080
    13  C   -0.270330
    14  C    0.598512
    15  O   -0.468246
    16  O   -0.482143
    17  N   -0.723998
    18  C    0.346770
    19  C    0.008015
    20  C    0.022426
    21  C    0.293477
    22  C   -0.359674
    23  C   -0.105187
    24  C   -0.248405
    25  N   -0.672944
    26  C    0.237796
    27  C    0.017789
    28  C   -0.030522
    29  C    0.285307
    30  C   -0.364058
    31  C   -0.228980
    32  C   -0.294987
    33  N   -0.724687
    34  C    0.274240
    35  C    0.012861
    36  C    0.058076
    37  C    0.314765
    38  C   -0.355674
    39  C    0.306916
    40  O   -0.469541
    41  C   -0.329772
    42  C    0.644845
    43  O   -0.509931
    44  O   -0.438052
    45  C   -0.071119
    46  C    0.012652
    47  C   -0.152554
    48  C    0.129452
    49  C   -0.367291
    50  C   -0.214660
    51  C   -0.185609
    52  C   -0.167143
    53  C   -0.059513
    54  C   -0.271544
    55  C   -0.164870
    56  C   -0.198477
    57  C   -0.115092
    58  C   -0.057126
    59  C   -0.296865
    60  C   -0.175584
    61  C   -0.211085
    62  C   -0.141287
    63  C   -0.048236
    64  C   -0.316143
    65  C   -0.295254
    66  H    0.075188
    67  H    0.071590
    68  H    0.100624
    69  H    0.127722
    70  H    0.103277
    71  H    0.110431
    72  H    0.082158
    73  H    0.131380
    74  H    0.091572
    75  H    0.135321
    76  H    0.138825
    77  H    0.131939
    78  H    0.109979
    79  H    0.137762
    80  H    0.109236
    81  H    0.108516
    82  H    0.108135
    83  H    0.109824
    84  H    0.124430
    85  H    0.122847
    86  H    0.124847
    87  H    0.104888
    88  H    0.104195
    89  H    0.078014
    90  H    0.095091
    91  H    0.119952
    92  H    0.121522
    93  H    0.156980
    94  H    0.144217
    95  H    0.162251
    96  H    0.129959
    97  H    0.140542
    98  H    0.098244
    99  H    0.130661
   100  H    0.119421
   101  H    0.098644
   102  H    0.112145
   103  H    0.106369
   104  H    0.097092
   105  H    0.114204
   106  H    0.104127
   107  H    0.111457
   108  H    0.112177
   109  H    0.074663
   110  H    0.073774
   111  H    0.071874
   112  H    0.108258
   113  H    0.063769
   114  H    0.063617
   115  H    0.087482
   116  H    0.098374
   117  H    0.086220
   118  H    0.092252
   119  H    0.100400
   120  H    0.028350
   121  H    0.086755
   122  H    0.082888
   123  H    0.111287
   124  H    0.103860
   125  H    0.054734
   126  H    0.097209
   127  H    0.073388
   128  H    0.097775
   129  H    0.095620
   130  H    0.065788
   131  H    0.096324
   132  H    0.105494
   133  H    0.108915
   134  H    0.102645
   135  H    0.078674
   136  H    0.066697
   137  H    0.116205
 Sum of Mulliken charges =   0.00000

 Dipole moment (field-independent basis, Debye):
    X=             -0.1197    Y=              4.3162    Z=              0.1240  Tot=              4.3197
 Quadrupole moment (field-independent basis, Debye-Ang):
   XX=           -360.7096   YY=           -385.2112   ZZ=           -397.8918
   XY=            -13.8929   XZ=             -3.1428   YZ=             -1.6652

 Normal termination of Gaussian 09 at Mon Jul  1 02:59:17 2019.
