 Gaussian 09, Revision D.01,
 Gaussian 09:  ES64L-G09RevD.01 24-Apr-2013

 -------------------------------------
 # td=(NStates=1) CAM-B3LYP/6-31G(d,p)
 -------------------------------------

 --
 TD
 --
 Symbolic Z-matrix:
 Charge =  0 Multiplicity = 1

                         Standard orientation:
 ---------------------------------------------------------------------
 Center     Atomic      Atomic             Coordinates (Angstroms)
 Number     Number       Type             X           Y           Z
 ---------------------------------------------------------------------
      1         12           0       -7.188140    0.591287    0.074470
      2          6           0       -4.856195   -1.874901    0.458157
      3          6           0       -4.902578    2.799596    1.138797
      4          6           0       -9.489404    3.105374   -0.256412
      5          6           0       -9.545396   -1.895427   -0.916422
      6          7           0       -5.237514    0.499309    0.737506
      7          6           0       -4.392007   -0.646100    0.737401
      8          6           0       -2.931354   -0.335274    1.209048
      9          6           0       -3.076868    1.125654    1.697865
     10          6           0       -4.515313    1.499340    1.206886
     11          6           0       -3.072938    1.344903    3.244016
     12          6           0       -1.900240   -0.550794    0.096023
     13          6           0       -0.532508   -0.354959    0.574418
     14          6           0        0.516079   -0.611486   -0.538290
     15          8           0        0.199708   -0.971741   -1.659181
     16          8           0        1.738316   -0.392048   -0.138008
     17          7           0       -7.272400    2.539191    0.369739
     18          6           0       -6.202102    3.394326    0.820425
     19          6           0       -6.605033    4.766388    0.811281
     20          6           0       -7.925381    4.782030    0.428249
     21          6           0       -8.276261    3.447203    0.160709
     22          6           0       -5.741229    5.921608    1.277987
     23          6           0       -8.808613    6.004485    0.317611
     24          6           0       -8.267028    7.267954    0.136809
     25          7           0       -9.147951    0.572727   -0.477414
     26          6           0       -9.967495    1.756543   -0.598574
     27          6           0      -11.252741    1.398742   -1.111509
     28          6           0      -11.336291   -0.076271   -1.191054
     29          6           0       -9.918616   -0.545190   -0.909484
     30          6           0      -12.273635    2.278740   -1.534523
     31          6           0      -12.319531   -0.945017   -1.805498
     32          6           0      -12.243073   -1.254947   -3.246548
     33          7           0       -7.191752   -1.393294   -0.234259
     34          6           0       -8.205622   -2.210094   -0.568386
     35          6           0       -7.749713   -3.629298   -0.560138
     36          6           0       -6.414971   -3.570779   -0.081856
     37          6           0       -6.170065   -2.143804   -0.011318
     38          6           0       -8.515872   -4.833813   -0.799914
     39          6           0       -5.341355   -4.374281    0.235762
     40          8           0       -5.085664   -5.561420    0.253773
     41          6           0       -4.217837   -3.295139    0.553179
     42          6           0       -3.422021   -3.541683    1.815139
     43          8           0       -3.568712   -2.993605    2.922816
     44          8           0       -2.728695   -4.654914    1.739807
     45          6           0       -2.104199   -5.271714    2.919448
     46          6           0        2.775931   -0.632539   -1.077613
     47          6           0        4.172823   -0.389357   -0.428679
     48          6           0        5.177412    0.393020   -0.980840
     49          6           0        5.022552    1.239562   -2.182710
     50          6           0        6.490910    0.462097   -0.125553
     51          6           0        7.788899    0.032919   -1.040802
     52          6           0        8.963424    0.041980   -0.111242
     53          6           0       10.234466   -0.478203   -0.861249
     54          6           0       10.136096   -1.989002   -1.159797
     55          6           0       11.511297   -0.146902   -0.076974
     56          6           0       12.762347   -0.441136   -0.785444
     57          6           0       14.089922   -0.062348    0.045001
     58          6           0       15.494470   -0.215730   -0.502397
     59          6           0       15.723214   -1.795985   -0.752730
     60          6           0       16.552881    0.345974    0.428480
     61          6           0       17.930678    0.383941   -0.204287
     62          6           0       18.839430    1.116907    0.671373
     63          6           0       20.351422    1.286991    0.176477
     64          6           0       20.282208    2.241860   -1.078771
     65          6           0       21.235449    1.802742    1.279086
     66          1           0       -3.959162    3.487247    1.545590
     67          1           0      -10.258774    3.828606   -0.440126
     68          1           0      -10.337522   -2.871255   -1.056175
     69          1           0       -2.564180   -0.996649    2.045487
     70          1           0       -2.458560    2.046611    1.318750
     71          1           0       -1.987886    1.024806    3.693259
     72          1           0       -3.341347    2.307712    3.537687
     73          1           0       -3.735501    0.683588    3.535431
     74          1           0       -2.090580   -1.612671   -0.113649
     75          1           0       -2.035937    0.003878   -0.864889
     76          1           0       -0.177311    0.543987    1.196334
     77          1           0       -0.252433   -1.136266    1.376536
     78          1           0       -4.940042    5.996046    0.351396
     79          1           0       -6.198628    6.860870    1.478951
     80          1           0       -5.429402    5.529379    2.326631
     81          1           0       -9.746979    5.679563    0.616167
     82          1           0       -8.832362    8.300206    0.046290
     83          1           0       -7.299407    7.562918   -0.123552
     84          1           0      -12.069111    2.988042   -2.438302
     85          1           0      -13.115228    1.877476   -1.842668
     86          1           0      -12.584858    2.999392   -0.700110
     87          1           0      -12.510243   -1.701382   -1.189522
     88          1           0      -13.260077   -0.323630   -1.578984
     89          1           0      -12.846271   -2.016438   -3.581466
     90          1           0      -12.280339   -0.254572   -3.780618
     91          1           0      -11.407961   -1.857989   -3.568388
     92          1           0       -8.397861   -4.868581   -2.046681
     93          1           0       -7.955743   -5.736324   -0.344469
     94          1           0       -9.510750   -4.787563   -0.436473
     95          1           0       -3.437362   -3.366470   -0.228566
     96          1           0       -1.646599   -4.558299    3.466070
     97          1           0       -2.870197   -5.563900    3.548328
     98          1           0       -1.525912   -6.145902    2.732172
     99          1           0        2.838900   -1.567512   -1.364112
    100          1           0        2.601457   -0.035760   -1.895418
    101          1           0        4.249545   -1.013732    0.460007
    102          1           0        4.083903    1.614381   -2.534855
    103          1           0        5.675803    2.225438   -2.140376
    104          1           0        5.405505    0.710471   -2.961686
    105          1           0        6.610780    1.429629    0.303811
    106          1           0        6.420094   -0.176577    0.633605
    107          1           0        7.660022   -1.146820   -1.406586
    108          1           0        7.881284    0.692137   -2.007076
    109          1           0        9.245048    0.920492    0.384981
    110          1           0        8.818803   -0.618210    0.673358
    111          1           0       10.440401    0.077773   -1.841980
    112          1           0        9.186348   -2.464801   -1.761805
    113          1           0       10.891457   -2.446672   -1.785207
    114          1           0        9.963508   -2.752283   -0.357451
    115          1           0       11.366289    1.041545   -0.044085
    116          1           0       11.579355   -0.634773    1.070743
    117          1           0       12.769539   -1.434410   -0.937629
    118          1           0       12.821300    0.139345   -1.622095
    119          1           0       13.885344    0.911075    0.258410
    120          1           0       13.910344   -0.745256    0.896285
    121          1           0       15.585230    0.217444   -1.416679
    122          1           0       15.328913   -2.409753    0.136180
    123          1           0       15.068563   -1.987513   -1.591148
    124          1           0       16.883593   -1.861472   -0.976469
    125          1           0       16.215376    1.469723    0.535250
    126          1           0       16.745444   -0.269564    1.341756
    127          1           0       18.132902   -0.612234   -0.548670
    128          1           0       17.834962    0.917531   -1.294466
    129          1           0       18.524761    2.173414    0.954728
    130          1           0       18.731198    0.997022    1.902757
    131          1           0       20.794589    0.308384   -0.236375
    132          1           0       19.708434    3.207765   -0.762245
    133          1           0       21.309149    2.424256   -1.543017
    134          1           0       19.667801    1.837790   -1.979452
    135          1           0       21.123094    1.336237    2.287650
    136          1           0       22.319906    1.872404    1.003256
    137          1           0       21.200438    2.927241    1.425698
 ---------------------------------------------------------------------

 SCF Done:  E(RCAM-B3LYP) =  -2932.62643565     A.U. after   17 cycles

 Excitation energies and oscillator strengths:

 Excited State   1:      Singlet-A      2.0705 eV  598.80 nm  f=0.2181  <S**2>=0.000
     240 -> 243        0.24802
     241 -> 242        0.65073
 This state for optimization and/or second-order correction.
 Total Energy, E(TD-HF/TD-KS) =  -2932.55034488
 Copying the excited state density for this state as the 1-particle RhoCI density.

 The electronic state is 1-A.
 Alpha  occ. eigenvalues --  -46.82807 -19.26469 -19.25381 -19.19704 -19.19691
 Alpha  occ. eigenvalues --  -19.18880 -14.41077 -14.39875 -14.39332 -14.39166
 Alpha  occ. eigenvalues --  -10.38472 -10.38322 -10.34362 -10.31212 -10.30320
 Alpha  occ. eigenvalues --  -10.29974 -10.29911 -10.29800 -10.29675 -10.29543
 Alpha  occ. eigenvalues --  -10.29206 -10.28908 -10.28902 -10.28743 -10.28645
 Alpha  occ. eigenvalues --  -10.28298 -10.28180 -10.28102 -10.27908 -10.27902
 Alpha  occ. eigenvalues --  -10.27858 -10.27729 -10.27721 -10.27713 -10.27658
 Alpha  occ. eigenvalues --  -10.27325 -10.27251 -10.27056 -10.26969 -10.26856
 Alpha  occ. eigenvalues --  -10.26756 -10.26669 -10.26626 -10.26300 -10.26278
 Alpha  occ. eigenvalues --  -10.26278 -10.26239 -10.26104 -10.25989 -10.25762
 Alpha  occ. eigenvalues --  -10.25749 -10.25651 -10.25648 -10.25532 -10.25523
 Alpha  occ. eigenvalues --  -10.25109 -10.25100 -10.25092 -10.24915 -10.24610
 Alpha  occ. eigenvalues --  -10.24559 -10.24539 -10.24336 -10.23815 -10.23101
 Alpha  occ. eigenvalues --   -3.12176  -1.86854  -1.86428  -1.86382  -1.19501
 Alpha  occ. eigenvalues --   -1.17298  -1.10520  -1.08619  -1.06213  -1.05953
 Alpha  occ. eigenvalues --   -1.03418  -1.02534  -0.98807  -0.92368  -0.91152
 Alpha  occ. eigenvalues --   -0.90339  -0.90040  -0.89352  -0.89135  -0.88922
 Alpha  occ. eigenvalues --   -0.88621  -0.87813  -0.87644  -0.86890  -0.85916
 Alpha  occ. eigenvalues --   -0.85386  -0.84540  -0.84066  -0.83103  -0.82549
 Alpha  occ. eigenvalues --   -0.82180  -0.81688  -0.80177  -0.80043  -0.78336
 Alpha  occ. eigenvalues --   -0.77769  -0.77264  -0.76827  -0.76463  -0.74949
 Alpha  occ. eigenvalues --   -0.74851  -0.74513  -0.73646  -0.73214  -0.72311
 Alpha  occ. eigenvalues --   -0.71624  -0.70554  -0.69876  -0.69281  -0.69076
 Alpha  occ. eigenvalues --   -0.68242  -0.66451  -0.65238  -0.65007  -0.64855
 Alpha  occ. eigenvalues --   -0.63566  -0.63485  -0.63358  -0.62514  -0.62029
 Alpha  occ. eigenvalues --   -0.61445  -0.61023  -0.60887  -0.59593  -0.59113
 Alpha  occ. eigenvalues --   -0.58129  -0.57622  -0.57358  -0.57260  -0.56473
 Alpha  occ. eigenvalues --   -0.55983  -0.55857  -0.55035  -0.54612  -0.54389
 Alpha  occ. eigenvalues --   -0.54007  -0.53540  -0.53492  -0.53245  -0.53105
 Alpha  occ. eigenvalues --   -0.52987  -0.52596  -0.52346  -0.52330  -0.51929
 Alpha  occ. eigenvalues --   -0.51453  -0.51359  -0.50986  -0.50929  -0.50570
 Alpha  occ. eigenvalues --   -0.50293  -0.49979  -0.49933  -0.49642  -0.49473
 Alpha  occ. eigenvalues --   -0.49284  -0.48820  -0.48557  -0.48414  -0.48221
 Alpha  occ. eigenvalues --   -0.48024  -0.47919  -0.47801  -0.47618  -0.47577
 Alpha  occ. eigenvalues --   -0.47360  -0.46849  -0.46690  -0.46222  -0.46180
 Alpha  occ. eigenvalues --   -0.45962  -0.45670  -0.45646  -0.45340  -0.44942
 Alpha  occ. eigenvalues --   -0.44732  -0.44415  -0.44177  -0.43941  -0.43766
 Alpha  occ. eigenvalues --   -0.43713  -0.43435  -0.43349  -0.43088  -0.42844
 Alpha  occ. eigenvalues --   -0.42714  -0.42495  -0.42455  -0.42245  -0.42017
 Alpha  occ. eigenvalues --   -0.42006  -0.41872  -0.41587  -0.41545  -0.40964
 Alpha  occ. eigenvalues --   -0.40730  -0.40504  -0.40455  -0.40307  -0.40171
 Alpha  occ. eigenvalues --   -0.40114  -0.39597  -0.39319  -0.38940  -0.38846
 Alpha  occ. eigenvalues --   -0.38793  -0.38599  -0.38188  -0.38004  -0.37653
 Alpha  occ. eigenvalues --   -0.37647  -0.36965  -0.36819  -0.36557  -0.36448
 Alpha  occ. eigenvalues --   -0.36119  -0.35891  -0.35541  -0.35493  -0.35171
 Alpha  occ. eigenvalues --   -0.34560  -0.34389  -0.33536  -0.33373  -0.32881
 Alpha  occ. eigenvalues --   -0.32643  -0.32207  -0.31717  -0.30642  -0.29923
 Alpha  occ. eigenvalues --   -0.29475  -0.28942  -0.27937  -0.26401  -0.22903
 Alpha  occ. eigenvalues --   -0.21332
 Alpha virt. eigenvalues --   -0.06368  -0.03235   0.01332   0.03535   0.06137
 Alpha virt. eigenvalues --    0.06240   0.06640   0.06934   0.07389   0.07754
 Alpha virt. eigenvalues --    0.08502   0.10160   0.11077   0.11442   0.11475

 Mulliken charges:
               1
     1  Mg   0.807053
     2  C    0.093119
     3  C   -0.243431
     4  C   -0.209233
     5  C   -0.148054
     6  N   -0.644909
     7  C    0.252306
     8  C   -0.158985
     9  C   -0.154004
    10  C    0.385000
    11  C   -0.289204
    12  C   -0.147873
    13  C   -0.276644
    14  C    0.606572
    15  O   -0.493340
    16  O   -0.452979
    17  N   -0.718379
    18  C    0.286317
    19  C   -0.001538
    20  C   -0.003830
    21  C    0.389463
    22  C   -0.342843
    23  C   -0.038648
    24  C   -0.257748
    25  N   -0.684776
    26  C    0.280718
    27  C    0.036784
    28  C   -0.013245
    29  C    0.266315
    30  C   -0.388851
    31  C   -0.232990
    32  C   -0.290502
    33  N   -0.693577
    34  C    0.269767
    35  C    0.017153
    36  C    0.045781
    37  C    0.275139
    38  C   -0.373572
    39  C    0.351722
    40  O   -0.470981
    41  C   -0.336243
    42  C    0.595942
    43  O   -0.512277
    44  O   -0.442748
    45  C   -0.079426
    46  C    0.030254
    47  C   -0.173910
    48  C    0.114233
    49  C   -0.378284
    50  C   -0.218135
    51  C   -0.180134
    52  C   -0.160375
    53  C   -0.048022
    54  C   -0.331012
    55  C   -0.161093
    56  C   -0.186850
    57  C   -0.170861
    58  C   -0.064889
    59  C   -0.316861
    60  C   -0.160965
    61  C   -0.162577
    62  C   -0.166608
    63  C   -0.039450
    64  C   -0.302852
    65  C   -0.319824
    66  H    0.062932
    67  H    0.088493
    68  H    0.112519
    69  H    0.137549
    70  H    0.098754
    71  H    0.078438
    72  H    0.114618
    73  H    0.140824
    74  H    0.113084
    75  H    0.125489
    76  H    0.130957
    77  H    0.121438
    78  H    0.111029
    79  H    0.126674
    80  H    0.116302
    81  H    0.109767
    82  H    0.095431
    83  H    0.124908
    84  H    0.106887
    85  H    0.121311
    86  H    0.101970
    87  H    0.110825
    88  H    0.088917
    89  H    0.109911
    90  H    0.108325
    91  H    0.103753
    92  H    0.114635
    93  H    0.149893
    94  H    0.127305
    95  H    0.161842
    96  H    0.136590
    97  H    0.139491
    98  H    0.133012
    99  H    0.134645
   100  H    0.115761
   101  H    0.093633
   102  H    0.128567
   103  H    0.097240
   104  H    0.142557
   105  H    0.111230
   106  H    0.111265
   107  H    0.083520
   108  H    0.088648
   109  H    0.095864
   110  H    0.107976
   111  H    0.082708
   112  H    0.067794
   113  H    0.112392
   114  H    0.103136
   115  H    0.064724
   116  H    0.058083
   117  H    0.106694
   118  H    0.094841
   119  H    0.088980
   120  H    0.082428
   121  H    0.089949
   122  H    0.097079
   123  H    0.111417
   124  H    0.083140
   125  H    0.078018
   126  H    0.099341
   127  H    0.101852
   128  H    0.067736
   129  H    0.092486
   130  H    0.059540
   131  H    0.083465
   132  H    0.093101
   133  H    0.093342
   134  H    0.095054
   135  H    0.108633
   136  H    0.096322
   137  H    0.092855
 Sum of Mulliken charges =   0.00000

 Dipole moment (field-independent basis, Debye):
    X=              1.3530    Y=              3.9900    Z=             -0.2372  Tot=              4.2199
 Quadrupole moment (field-independent basis, Debye-Ang):
   XX=           -339.8929   YY=           -381.6749   ZZ=           -397.3201
   XY=            -12.8718   XZ=              9.0180   YZ=             -3.0573

 Normal termination of Gaussian 09 at Thu Jun 27 02:11:56 2019.
