 Gaussian 09, Revision D.01,
 Gaussian 09:  ES64L-G09RevD.01 24-Apr-2013

 -------------------------------------
 # td=(NStates=1) CAM-B3LYP/6-31G(d,p)
 -------------------------------------

 --
 TD
 --
 Symbolic Z-matrix:
 Charge =  0 Multiplicity = 1

                         Standard orientation:
 ---------------------------------------------------------------------
 Center     Atomic      Atomic             Coordinates (Angstroms)
 Number     Number       Type             X           Y           Z
 ---------------------------------------------------------------------
      1         12           0       -7.128886    0.605493    0.140528
      2          6           0       -4.863543   -1.964780    0.590950
      3          6           0       -4.871088    2.736666    1.279452
      4          6           0       -9.530469    3.045328   -0.208690
      5          6           0       -9.505199   -1.729859   -0.921006
      6          7           0       -5.155289    0.417725    0.657336
      7          6           0       -4.295086   -0.706418    0.782019
      8          6           0       -2.878099   -0.406125    1.272678
      9          6           0       -3.121249    1.013252    1.777775
     10          6           0       -4.395537    1.451891    1.270221
     11          6           0       -2.957260    1.242705    3.331640
     12          6           0       -1.917554   -0.499270    0.040631
     13          6           0       -0.425423   -0.451515    0.486061
     14          6           0        0.579005   -0.552840   -0.584636
     15          8           0        0.261095   -0.746541   -1.758549
     16          8           0        1.837872   -0.285316   -0.231397
     17          7           0       -7.180949    2.549424    0.412695
     18          6           0       -6.110663    3.341575    0.840787
     19          6           0       -6.406988    4.684062    0.877275
     20          6           0       -7.757135    4.845433    0.437047
     21          6           0       -8.239871    3.435894    0.224075
     22          6           0       -5.474553    5.815586    1.368069
     23          6           0       -8.600406    6.025208    0.250039
     24          6           0       -8.056734    7.279279   -0.194317
     25          7           0       -9.123202    0.717910   -0.347364
     26          6           0       -9.948609    1.808830   -0.555295
     27          6           0      -11.166206    1.412018   -0.941573
     28          6           0      -11.237355    0.077527   -1.123509
     29          6           0       -9.847733   -0.420294   -0.807472
     30          6           0      -12.344485    2.388322   -1.337048
     31          6           0      -12.349100   -0.805007   -1.716898
     32          6           0      -12.365086   -1.050021   -3.175905
     33          7           0       -7.255223   -1.401646   -0.079542
     34          6           0       -8.239917   -2.241166   -0.515940
     35          6           0       -7.821751   -3.669706   -0.567237
     36          6           0       -6.546138   -3.578355   -0.082216
     37          6           0       -6.183307   -2.155126    0.139743
     38          6           0       -8.772047   -4.806561   -0.894395
     39          6           0       -5.381199   -4.316984    0.046277
     40          8           0       -5.087538   -5.502387   -0.155743
     41          6           0       -4.193412   -3.296468    0.500383
     42          6           0       -3.593593   -3.701994    1.693092
     43          8           0       -3.748032   -3.141565    2.821663
     44          8           0       -2.836629   -4.867021    1.686003
     45          6           0       -2.372799   -5.429883    3.004975
     46          6           0        2.855677   -0.466340   -1.342469
     47          6           0        4.151574   -0.439409   -0.737712
     48          6           0        5.157559    0.463859   -0.948981
     49          6           0        5.058015    1.296151   -2.281035
     50          6           0        6.473218    0.529598   -0.228827
     51          6           0        7.622136   -0.014473   -0.974912
     52          6           0        8.943695   -0.020871   -0.166191
     53          6           0       10.262937   -0.470362   -0.990095
     54          6           0       10.163282   -1.938604   -1.412687
     55          6           0       11.449040   -0.225590   -0.019600
     56          6           0       12.799838   -0.458532   -0.652484
     57          6           0       14.011101   -0.181772    0.280858
     58          6           0       15.415881   -0.237958   -0.391670
     59          6           0       15.775789   -1.623329   -0.859231
     60          6           0       16.505714    0.300238    0.439417
     61          6           0       17.840227    0.327861   -0.231950
     62          6           0       18.805145    1.090883    0.709690
     63          6           0       20.241230    1.248413    0.208428
     64          6           0       20.352810    2.219162   -1.005573
     65          6           0       21.051873    1.796275    1.433284
     66          1           0       -4.178970    3.508735    1.569952
     67          1           0      -10.231627    4.061812   -0.232505
     68          1           0      -10.453811   -2.399210   -1.107293
     69          1           0       -2.500049   -1.159078    2.193697
     70          1           0       -2.367381    1.686127    1.454030
     71          1           0       -1.995141    1.154388    3.688404
     72          1           0       -3.394017    2.105627    3.625235
     73          1           0       -3.595978    0.551100    4.089522
     74          1           0       -1.960658   -1.506475   -0.544081
     75          1           0       -2.171997    0.327298   -0.612113
     76          1           0       -0.321813    0.459359    0.967464
     77          1           0       -0.368602   -1.095956    1.277527
     78          1           0       -4.470808    6.065561    0.593366
     79          1           0       -5.829894    6.832159    1.490536
     80          1           0       -4.933860    5.376287    2.159332
     81          1           0       -9.699189    5.993346    0.371003
     82          1           0       -8.683403    8.183907   -0.196943
     83          1           0       -6.948314    7.480551   -0.386176
     84          1           0      -12.083373    3.072803   -2.054988
     85          1           0      -13.139323    1.743924   -1.913654
     86          1           0      -12.707937    2.837290   -0.416226
     87          1           0      -12.243757   -1.800724   -1.180601
     88          1           0      -13.278564   -0.374392   -1.489464
     89          1           0      -13.208405   -1.434076   -3.639351
     90          1           0      -12.564252   -0.117094   -3.830323
     91          1           0      -11.261774   -1.616589   -3.745961
     92          1           0       -8.974877   -4.682641   -1.985621
     93          1           0       -8.169783   -5.902134   -0.663304
     94          1           0       -9.709461   -4.638282   -0.160145
     95          1           0       -3.229480   -3.509837   -0.136412
     96          1           0       -1.484005   -4.613286    3.312539
     97          1           0       -3.121729   -5.569495    3.640597
     98          1           0       -2.060177   -6.366786    2.618655
     99          1           0        2.812236   -1.574246   -1.787127
    100          1           0        2.674913    0.055322   -2.218927
    101          1           0        4.026780   -1.028327    0.211369
    102          1           0        4.069198    1.120829   -2.708750
    103          1           0        5.275929    2.372908   -2.139106
    104          1           0        5.672386    0.952764   -3.000324
    105          1           0        6.639899    1.742701    0.033164
    106          1           0        6.400593    0.031781    0.848117
    107          1           0        7.283101   -1.167426   -1.101321
    108          1           0        7.665785    0.536947   -1.986333
    109          1           0        9.154754    0.949863    0.084195
    110          1           0        9.025872   -0.610774    0.695868
    111          1           0       10.267320    0.138249   -1.735618
    112          1           0        9.391928   -2.437415   -2.139300
    113          1           0       10.933578   -2.462314   -2.087933
    114          1           0       10.053919   -2.522173   -0.557907
    115          1           0       11.445176    0.853016    0.358878
    116          1           0       11.279971   -0.952057    0.876911
    117          1           0       12.961895   -1.512845   -0.894161
    118          1           0       12.855288    0.004975   -1.633279
    119          1           0       13.876069    0.841180    0.687434
    120          1           0       13.858547   -0.974908    1.081340
    121          1           0       15.162312    0.376872   -1.238826
    122          1           0       15.955388   -2.173368   -0.062255
    123          1           0       14.994361   -2.087347   -1.523601
    124          1           0       16.609339   -1.452638   -1.547040
    125          1           0       16.426803    1.348067    0.964347
    126          1           0       16.547161   -0.345144    1.166606
    127          1           0       18.101544   -0.776756   -0.419675
    128          1           0       17.500940    0.787379   -1.136353
    129          1           0       18.446616    2.132239    0.888626
    130          1           0       18.695858    0.790814    1.856623
    131          1           0       20.766840    0.353775    0.178226
    132          1           0       20.036416    3.199453   -0.597689
    133          1           0       21.435277    2.404967   -1.238966
    134          1           0       19.841887    1.828282   -1.866217
    135          1           0       21.071012    1.109236    2.295524
    136          1           0       22.159387    1.863494    1.127033
    137          1           0       20.624352    2.622811    1.933835
 ---------------------------------------------------------------------

 SCF Done:  E(RCAM-B3LYP) =  -2932.62874198     A.U. after   16 cycles

 Excitation energies and oscillator strengths:

 Excited State   1:      Singlet-A      1.8583 eV  667.21 nm  f=0.3288  <S**2>=0.000
     240 -> 243       -0.20842
     241 -> 242        0.66795
 This state for optimization and/or second-order correction.
 Total Energy, E(TD-HF/TD-KS) =  -2932.56045235
 Copying the excited state density for this state as the 1-particle RhoCI density.

 The electronic state is 1-A.
 Alpha  occ. eigenvalues --  -46.83099 -19.26814 -19.24101 -19.19921 -19.19828
 Alpha  occ. eigenvalues --  -19.18493 -14.42117 -14.40283 -14.39224 -14.39052
 Alpha  occ. eigenvalues --  -10.38908 -10.37605 -10.34842 -10.32138 -10.31366
 Alpha  occ. eigenvalues --  -10.31071 -10.30643 -10.30005 -10.29797 -10.29741
 Alpha  occ. eigenvalues --  -10.29711 -10.29691 -10.29375 -10.29255 -10.29053
 Alpha  occ. eigenvalues --  -10.29011 -10.28422 -10.28356 -10.28166 -10.28111
 Alpha  occ. eigenvalues --  -10.28093 -10.28059 -10.28007 -10.27823 -10.27687
 Alpha  occ. eigenvalues --  -10.27633 -10.27535 -10.27482 -10.27340 -10.27339
 Alpha  occ. eigenvalues --  -10.27288 -10.26949 -10.26352 -10.26307 -10.26190
 Alpha  occ. eigenvalues --  -10.26137 -10.26076 -10.26028 -10.25730 -10.25723
 Alpha  occ. eigenvalues --  -10.25465 -10.25453 -10.25353 -10.25244 -10.25169
 Alpha  occ. eigenvalues --  -10.25042 -10.24982 -10.24866 -10.24700 -10.24680
 Alpha  occ. eigenvalues --  -10.24494 -10.24287 -10.24169 -10.23415 -10.23026
 Alpha  occ. eigenvalues --   -3.12439  -1.87117  -1.86678  -1.86654  -1.17525
 Alpha  occ. eigenvalues --   -1.13867  -1.09396  -1.07560  -1.05087  -1.04214
 Alpha  occ. eigenvalues --   -1.02847  -1.02459  -1.01361  -0.92922  -0.91786
 Alpha  occ. eigenvalues --   -0.91269  -0.90165  -0.89576  -0.89226  -0.88411
 Alpha  occ. eigenvalues --   -0.88207  -0.87852  -0.87553  -0.87414  -0.86653
 Alpha  occ. eigenvalues --   -0.85761  -0.84280  -0.83886  -0.83605  -0.82471
 Alpha  occ. eigenvalues --   -0.81582  -0.81224  -0.80335  -0.80002  -0.78892
 Alpha  occ. eigenvalues --   -0.77231  -0.76731  -0.76386  -0.76184  -0.75602
 Alpha  occ. eigenvalues --   -0.75422  -0.75361  -0.74363  -0.73534  -0.73006
 Alpha  occ. eigenvalues --   -0.72391  -0.71223  -0.69908  -0.69325  -0.68959
 Alpha  occ. eigenvalues --   -0.67479  -0.66338  -0.65688  -0.65034  -0.64773
 Alpha  occ. eigenvalues --   -0.64150  -0.63992  -0.63859  -0.62992  -0.62889
 Alpha  occ. eigenvalues --   -0.61296  -0.60679  -0.60035  -0.59947  -0.58961
 Alpha  occ. eigenvalues --   -0.58211  -0.57721  -0.57192  -0.56598  -0.56217
 Alpha  occ. eigenvalues --   -0.55752  -0.55576  -0.55249  -0.54826  -0.54662
 Alpha  occ. eigenvalues --   -0.54407  -0.53803  -0.53396  -0.53247  -0.52770
 Alpha  occ. eigenvalues --   -0.52345  -0.52188  -0.52039  -0.51564  -0.51245
 Alpha  occ. eigenvalues --   -0.51060  -0.50983  -0.50883  -0.50707  -0.50412
 Alpha  occ. eigenvalues --   -0.50317  -0.50058  -0.49805  -0.49481  -0.49223
 Alpha  occ. eigenvalues --   -0.49137  -0.48872  -0.48552  -0.48416  -0.48227
 Alpha  occ. eigenvalues --   -0.48159  -0.47810  -0.47512  -0.47471  -0.47134
 Alpha  occ. eigenvalues --   -0.47067  -0.46864  -0.46534  -0.46430  -0.46193
 Alpha  occ. eigenvalues --   -0.45399  -0.45232  -0.45125  -0.44771  -0.44699
 Alpha  occ. eigenvalues --   -0.44649  -0.44292  -0.44162  -0.44038  -0.43910
 Alpha  occ. eigenvalues --   -0.43754  -0.43702  -0.43453  -0.43226  -0.43004
 Alpha  occ. eigenvalues --   -0.42828  -0.42433  -0.42380  -0.42281  -0.42048
 Alpha  occ. eigenvalues --   -0.41867  -0.41614  -0.41465  -0.41350  -0.41213
 Alpha  occ. eigenvalues --   -0.40991  -0.40841  -0.40505  -0.40288  -0.40268
 Alpha  occ. eigenvalues --   -0.40039  -0.39667  -0.39606  -0.39169  -0.38962
 Alpha  occ. eigenvalues --   -0.38722  -0.38472  -0.38191  -0.37985  -0.37893
 Alpha  occ. eigenvalues --   -0.37684  -0.37555  -0.37059  -0.37007  -0.36957
 Alpha  occ. eigenvalues --   -0.36756  -0.36566  -0.36226  -0.36166  -0.35619
 Alpha  occ. eigenvalues --   -0.34891  -0.34687  -0.33863  -0.33743  -0.33423
 Alpha  occ. eigenvalues --   -0.33165  -0.31956  -0.31263  -0.31132  -0.30561
 Alpha  occ. eigenvalues --   -0.29499  -0.29454  -0.28606  -0.26750  -0.23291
 Alpha  occ. eigenvalues --   -0.21146
 Alpha virt. eigenvalues --   -0.07524  -0.03002   0.01010   0.02882   0.04979
 Alpha virt. eigenvalues --    0.05374   0.05968   0.06659   0.06902   0.07052
 Alpha virt. eigenvalues --    0.07775   0.10219   0.10512   0.11612   0.12125

 Mulliken charges:
               1
     1  Mg   0.809218
     2  C    0.123276
     3  C   -0.227436
     4  C   -0.186229
     5  C   -0.186660
     6  N   -0.635626
     7  C    0.286392
     8  C   -0.157279
     9  C   -0.148163
    10  C    0.373134
    11  C   -0.319002
    12  C   -0.171096
    13  C   -0.279165
    14  C    0.623030
    15  O   -0.490814
    16  O   -0.483564
    17  N   -0.717214
    18  C    0.322735
    19  C    0.034474
    20  C    0.011810
    21  C    0.275712
    22  C   -0.352683
    23  C   -0.117523
    24  C   -0.244513
    25  N   -0.700223
    26  C    0.345767
    27  C    0.008306
    28  C    0.005582
    29  C    0.303835
    30  C   -0.351906
    31  C   -0.223374
    32  C   -0.281062
    33  N   -0.705131
    34  C    0.245414
    35  C    0.061828
    36  C    0.026575
    37  C    0.279345
    38  C   -0.355664
    39  C    0.337738
    40  O   -0.473401
    41  C   -0.358993
    42  C    0.630405
    43  O   -0.517940
    44  O   -0.504302
    45  C   -0.054928
    46  C    0.017469
    47  C   -0.131494
    48  C    0.111181
    49  C   -0.365733
    50  C   -0.203545
    51  C   -0.158065
    52  C   -0.175808
    53  C   -0.061278
    54  C   -0.314852
    55  C   -0.167221
    56  C   -0.185885
    57  C   -0.176086
    58  C   -0.080376
    59  C   -0.315729
    60  C   -0.152974
    61  C   -0.178427
    62  C   -0.178440
    63  C   -0.057028
    64  C   -0.302367
    65  C   -0.333215
    66  H    0.069859
    67  H    0.085191
    68  H    0.097009
    69  H    0.134171
    70  H    0.120208
    71  H    0.117404
    72  H    0.124022
    73  H    0.101467
    74  H    0.119667
    75  H    0.123131
    76  H    0.136801
    77  H    0.140868
    78  H    0.067708
    79  H    0.131551
    80  H    0.127878
    81  H    0.108927
    82  H    0.106230
    83  H    0.110130
    84  H    0.134148
    85  H    0.090335
    86  H    0.122985
    87  H    0.100993
    88  H    0.116648
    89  H    0.121852
    90  H    0.089452
    91  H    0.061798
    92  H    0.142102
    93  H    0.130235
    94  H    0.126069
    95  H    0.159045
    96  H    0.108926
    97  H    0.149328
    98  H    0.137531
    99  H    0.112346
   100  H    0.141913
   101  H    0.097237
   102  H    0.101386
   103  H    0.111811
   104  H    0.134571
   105  H    0.063075
   106  H    0.089763
   107  H    0.087367
   108  H    0.091765
   109  H    0.099549
   110  H    0.098580
   111  H    0.091820
   112  H    0.087526
   113  H    0.090899
   114  H    0.108249
   115  H    0.085477
   116  H    0.077325
   117  H    0.098603
   118  H    0.085402
   119  H    0.081229
   120  H    0.074180
   121  H    0.079203
   122  H    0.114324
   123  H    0.095489
   124  H    0.108620
   125  H    0.070015
   126  H    0.100579
   127  H    0.091826
   128  H    0.102159
   129  H    0.089063
   130  H    0.076979
   131  H    0.099688
   132  H    0.104223
   133  H    0.096807
   134  H    0.113944
   135  H    0.096140
   136  H    0.085753
   137  H    0.100628
 Sum of Mulliken charges =   0.00000

 Dipole moment (field-independent basis, Debye):
    X=              0.8930    Y=              3.8290    Z=              0.2685  Tot=              3.9409
 Quadrupole moment (field-independent basis, Debye-Ang):
   XX=           -327.0520   YY=           -390.8678   ZZ=           -396.3322
   XY=            -19.4597   XZ=              9.9525   YZ=             -2.5791

 Normal termination of Gaussian 09 at Fri Jun 28 18:24:42 2019.
