 Gaussian 09, Revision D.01,
 Gaussian 09:  ES64L-G09RevD.01 24-Apr-2013

 -------------------------------------
 # td=(NStates=1) CAM-B3LYP/6-31G(d,p)
 -------------------------------------

 --
 TD
 --
 Symbolic Z-matrix:
 Charge =  0 Multiplicity = 1

                         Standard orientation:
 ---------------------------------------------------------------------
 Center     Atomic      Atomic             Coordinates (Angstroms)
 Number     Number       Type             X           Y           Z
 ---------------------------------------------------------------------
      1         12           0       -7.112214    0.659016    0.126754
      2          6           0       -4.860916   -1.958060    0.453029
      3          6           0       -4.658436    2.861856    1.191487
      4          6           0       -9.452726    3.123189   -0.382054
      5          6           0       -9.621113   -1.752992   -0.785549
      6          7           0       -5.036530    0.405898    0.789721
      7          6           0       -4.276124   -0.792601    0.801089
      8          6           0       -2.862946   -0.446477    1.263923
      9          6           0       -2.992506    1.031330    1.787861
     10          6           0       -4.304467    1.509146    1.205029
     11          6           0       -2.911344    1.198366    3.283879
     12          6           0       -1.811092   -0.610599    0.102510
     13          6           0       -0.439423   -0.492109    0.589047
     14          6           0        0.448714   -0.577758   -0.596940
     15          8           0        0.161572   -0.995328   -1.690933
     16          8           0        1.800600   -0.416908   -0.243638
     17          7           0       -7.002517    2.616055    0.418893
     18          6           0       -5.974118    3.337080    0.823877
     19          6           0       -6.365362    4.688772    0.891663
     20          6           0       -7.711992    4.790585    0.571450
     21          6           0       -8.124390    3.441602    0.193038
     22          6           0       -5.472024    5.997082    1.186125
     23          6           0       -8.556705    6.012673    0.368707
     24          6           0       -8.250100    7.280550    0.095069
     25          7           0       -9.146353    0.604353   -0.404409
     26          6           0       -9.854391    1.742185   -0.606574
     27          6           0      -11.171434    1.519165   -1.127856
     28          6           0      -11.259859    0.128363   -1.097356
     29          6           0       -9.973884   -0.380273   -0.724418
     30          6           0      -12.318940    2.424616   -1.460216
     31          6           0      -12.383811   -0.678800   -1.691309
     32          6           0      -12.288403   -0.894075   -3.195652
     33          7           0       -7.272389   -1.366929   -0.201014
     34          6           0       -8.328116   -2.254151   -0.423123
     35          6           0       -7.858634   -3.555401   -0.424185
     36          6           0       -6.540299   -3.465690   -0.118771
     37          6           0       -6.209012   -2.118150   -0.016982
     38          6           0       -8.556057   -4.972954   -0.729587
     39          6           0       -5.405067   -4.356086    0.147582
     40          8           0       -5.271946   -5.454615   -0.042836
     41          6           0       -4.202771   -3.398200    0.479330
     42          6           0       -3.596004   -3.686119    1.820296
     43          8           0       -3.689828   -3.145085    2.853706
     44          8           0       -2.771847   -4.815275    1.696794
     45          6           0       -2.168686   -5.309815    2.867281
     46          6           0        2.862277   -0.626813   -1.280667
     47          6           0        4.078011   -0.533224   -0.674699
     48          6           0        5.148661    0.313094   -1.082818
     49          6           0        4.947435    1.233005   -2.289101
     50          6           0        6.453116    0.415966   -0.290278
     51          6           0        7.642700   -0.094843   -1.014554
     52          6           0        8.847214   -0.103395   -0.107629
     53          6           0       10.142418   -0.456757   -0.908290
     54          6           0       10.093200   -1.882428   -1.484117
     55          6           0       11.371680   -0.302199   -0.017655
     56          6           0       12.752761   -0.460570   -0.750444
     57          6           0       13.914748   -0.199206    0.170563
     58          6           0       15.312121   -0.258734   -0.428370
     59          6           0       15.806164   -1.572209   -0.921103
     60          6           0       16.428888    0.357833    0.432926
     61          6           0       17.790889    0.570371   -0.206605
     62          6           0       18.799373    1.170575    0.750948
     63          6           0       20.335231    1.252721    0.318196
     64          6           0       20.353913    2.115451   -0.939077
     65          6           0       21.081047    1.924413    1.442342
     66          1           0       -3.968110    3.660683    1.516412
     67          1           0      -10.202341    3.875624   -0.442488
     68          1           0      -10.462641   -2.471713   -1.116420
     69          1           0       -2.689599   -1.049220    2.308475
     70          1           0       -2.044901    1.631122    1.419477
     71          1           0       -1.960917    0.962450    3.715844
     72          1           0       -3.047873    2.193024    3.353900
     73          1           0       -3.669909    0.358997    3.958407
     74          1           0       -2.075485   -1.638549   -0.367490
     75          1           0       -2.334734   -0.004818   -0.647644
     76          1           0       -0.501414    0.584218    1.084624
     77          1           0       -0.109584   -1.254773    1.469303
     78          1           0       -5.066495    6.253095    0.388009
     79          1           0       -6.180408    6.625519    1.568404
     80          1           0       -4.780506    5.903541    2.137769
     81          1           0       -9.629319    5.673980    0.115790
     82          1           0       -9.118621    8.013526   -0.069626
     83          1           0       -7.265097    7.685108   -0.124022
     84          1           0      -12.323754    2.565552   -2.876994
     85          1           0      -13.311122    1.732756   -1.354322
     86          1           0      -12.363083    3.365473   -0.800243
     87          1           0      -12.580942   -1.754525   -1.245556
     88          1           0      -13.353132   -0.140817   -1.474929
     89          1           0      -13.068956   -1.564930   -3.436176
     90          1           0      -12.224372    0.056135   -3.785505
     91          1           0      -11.296028   -1.399363   -3.545787
     92          1           0       -8.700751   -4.809034   -1.689403
     93          1           0       -7.926299   -5.930496   -0.548980
     94          1           0       -9.482517   -5.194405   -0.286180
     95          1           0       -3.553442   -3.710499   -0.355374
     96          1           0       -1.153625   -4.755904    3.197952
     97          1           0       -3.016758   -5.320830    3.531629
     98          1           0       -1.804161   -6.290993    2.490590
     99          1           0        2.716447   -1.657919   -1.851675
    100          1           0        2.507416   -0.099458   -2.046471
    101          1           0        4.047590   -1.039305    0.143198
    102          1           0        3.888508    1.170480   -2.599391
    103          1           0        5.106940    2.223400   -1.709325
    104          1           0        5.878450    0.976272   -3.199958
    105          1           0        6.655426    1.420602   -0.001435
    106          1           0        6.417091   -0.124243    0.615594
    107          1           0        7.459899   -0.991311   -1.484587
    108          1           0        7.949991    0.592431   -1.784004
    109          1           0        8.993920    1.019627    0.342918
    110          1           0        8.817054   -0.755410    0.758005
    111          1           0       10.250184    0.238124   -1.715506
    112          1           0        9.102433   -1.969171   -1.871304
    113          1           0       10.825497   -2.109344   -2.216153
    114          1           0        9.841558   -2.635434   -0.579486
    115          1           0       11.386860    0.981717    0.317601
    116          1           0       11.271730   -1.030085    0.713603
    117          1           0       12.830392   -1.502845   -1.295390
    118          1           0       12.807045    0.327106   -1.446797
    119          1           0       13.861156    0.827361    0.691048
    120          1           0       13.915669   -0.995092    1.075681
    121          1           0       15.286814    0.266088   -1.201888
    122          1           0       15.729142   -2.348530   -0.001567
    123          1           0       15.117903   -2.122906   -1.754500
    124          1           0       16.753062   -1.666813   -1.443007
    125          1           0       16.185816    1.227438    1.001282
    126          1           0       16.643805   -0.410538    1.105094
    127          1           0       18.082664   -0.450930   -0.513149
    128          1           0       17.740107    1.253332   -1.074443
    129          1           0       18.353913    2.235974    0.623199
    130          1           0       18.816387    0.871128    1.949369
    131          1           0       20.714847    0.303326    0.121526
    132          1           0       20.026190    3.125473   -0.757648
    133          1           0       21.247303    2.135335   -1.316877
    134          1           0       19.732431    1.802526   -1.770940
    135          1           0       20.901272    1.263839    2.275104
    136          1           0       22.249709    2.131986    1.083348
    137          1           0       20.780508    3.063884    1.633759
 ---------------------------------------------------------------------

 SCF Done:  E(RCAM-B3LYP) =  -2932.55829718     A.U. after   18 cycles

 Excitation energies and oscillator strengths:

 Excited State   1:      Singlet-A      2.0738 eV  597.85 nm  f=0.2140  <S**2>=0.000
     240 -> 243        0.25220
     241 -> 242        0.65494
 This state for optimization and/or second-order correction.
 Total Energy, E(TD-HF/TD-KS) =  -2932.48208498
 Copying the excited state density for this state as the 1-particle RhoCI density.

 The electronic state is 1-A.
 Alpha  occ. eigenvalues --  -46.84840 -19.24182 -19.23841 -19.21448 -19.21283
 Alpha  occ. eigenvalues --  -19.20980 -14.41274 -14.39917 -14.39607 -14.39247
 Alpha  occ. eigenvalues --  -10.39124 -10.38746 -10.34419 -10.31127 -10.30922
 Alpha  occ. eigenvalues --  -10.30919 -10.30830 -10.30318 -10.30132 -10.29938
 Alpha  occ. eigenvalues --  -10.29649 -10.29583 -10.29329 -10.29103 -10.28995
 Alpha  occ. eigenvalues --  -10.28716 -10.28549 -10.28547 -10.28416 -10.28324
 Alpha  occ. eigenvalues --  -10.28080 -10.27865 -10.27787 -10.27682 -10.27532
 Alpha  occ. eigenvalues --  -10.27219 -10.27064 -10.27058 -10.26991 -10.26677
 Alpha  occ. eigenvalues --  -10.26420 -10.26382 -10.26342 -10.26303 -10.26297
 Alpha  occ. eigenvalues --  -10.26219 -10.26119 -10.26053 -10.26008 -10.25841
 Alpha  occ. eigenvalues --  -10.25815 -10.25538 -10.25494 -10.25448 -10.25380
 Alpha  occ. eigenvalues --  -10.25116 -10.25029 -10.24991 -10.24743 -10.24329
 Alpha  occ. eigenvalues --  -10.24290 -10.23613 -10.23545 -10.23339 -10.22274
 Alpha  occ. eigenvalues --   -3.13758  -1.88476  -1.88028  -1.87898  -1.18195
 Alpha  occ. eigenvalues --   -1.17090  -1.16011  -1.09579  -1.07692  -1.05376
 Alpha  occ. eigenvalues --   -1.04511  -1.04040  -1.01462  -0.91845  -0.91780
 Alpha  occ. eigenvalues --   -0.91118  -0.90205  -0.89469  -0.88810  -0.88714
 Alpha  occ. eigenvalues --   -0.88645  -0.87848  -0.87463  -0.86766  -0.86529
 Alpha  occ. eigenvalues --   -0.85376  -0.84211  -0.83559  -0.83345  -0.82427
 Alpha  occ. eigenvalues --   -0.81734  -0.80723  -0.80370  -0.80138  -0.78284
 Alpha  occ. eigenvalues --   -0.78092  -0.76720  -0.76270  -0.75942  -0.75529
 Alpha  occ. eigenvalues --   -0.74900  -0.74707  -0.73667  -0.73423  -0.72237
 Alpha  occ. eigenvalues --   -0.71075  -0.70142  -0.69319  -0.68880  -0.67832
 Alpha  occ. eigenvalues --   -0.67003  -0.66662  -0.64782  -0.64696  -0.64258
 Alpha  occ. eigenvalues --   -0.63558  -0.63506  -0.63076  -0.62625  -0.62427
 Alpha  occ. eigenvalues --   -0.61495  -0.61328  -0.60143  -0.59653  -0.59203
 Alpha  occ. eigenvalues --   -0.58641  -0.58105  -0.57744  -0.57240  -0.56438
 Alpha  occ. eigenvalues --   -0.55528  -0.55377  -0.55158  -0.54715  -0.54505
 Alpha  occ. eigenvalues --   -0.54358  -0.54020  -0.53582  -0.53359  -0.53212
 Alpha  occ. eigenvalues --   -0.53089  -0.52874  -0.52804  -0.51978  -0.51842
 Alpha  occ. eigenvalues --   -0.51501  -0.51291  -0.51031  -0.50967  -0.50842
 Alpha  occ. eigenvalues --   -0.50676  -0.50455  -0.50274  -0.50046  -0.49890
 Alpha  occ. eigenvalues --   -0.49722  -0.49626  -0.49286  -0.49014  -0.48500
 Alpha  occ. eigenvalues --   -0.48323  -0.48037  -0.47664  -0.47500  -0.47375
 Alpha  occ. eigenvalues --   -0.47080  -0.46870  -0.46672  -0.46266  -0.46223
 Alpha  occ. eigenvalues --   -0.46060  -0.45825  -0.45571  -0.45466  -0.45042
 Alpha  occ. eigenvalues --   -0.44811  -0.44757  -0.44474  -0.44420  -0.44136
 Alpha  occ. eigenvalues --   -0.44108  -0.43922  -0.43608  -0.43380  -0.43000
 Alpha  occ. eigenvalues --   -0.42633  -0.42487  -0.42328  -0.42062  -0.41755
 Alpha  occ. eigenvalues --   -0.41566  -0.41504  -0.41099  -0.41024  -0.40876
 Alpha  occ. eigenvalues --   -0.40518  -0.40442  -0.40342  -0.40105  -0.39756
 Alpha  occ. eigenvalues --   -0.39667  -0.39503  -0.39428  -0.39293  -0.39192
 Alpha  occ. eigenvalues --   -0.38958  -0.38473  -0.38195  -0.38047  -0.37997
 Alpha  occ. eigenvalues --   -0.37803  -0.37098  -0.36856  -0.36783  -0.36204
 Alpha  occ. eigenvalues --   -0.35964  -0.35812  -0.35784  -0.35624  -0.35606
 Alpha  occ. eigenvalues --   -0.35127  -0.34922  -0.34544  -0.33954  -0.33825
 Alpha  occ. eigenvalues --   -0.33687  -0.33220  -0.31949  -0.31324  -0.29985
 Alpha  occ. eigenvalues --   -0.29768  -0.28362  -0.27848  -0.27820  -0.23001
 Alpha  occ. eigenvalues --   -0.21933
 Alpha virt. eigenvalues --   -0.06923  -0.03133   0.02735   0.04385   0.04499
 Alpha virt. eigenvalues --    0.05011   0.05815   0.06049   0.06710   0.07066
 Alpha virt. eigenvalues --    0.08266   0.09137   0.10845   0.10917   0.11482

 Mulliken charges:
               1
     1  Mg   0.826977
     2  C    0.027999
     3  C   -0.193966
     4  C   -0.145174
     5  C   -0.156472
     6  N   -0.653832
     7  C    0.290065
     8  C   -0.180616
     9  C   -0.157938
    10  C    0.366733
    11  C   -0.277619
    12  C   -0.164520
    13  C   -0.260354
    14  C    0.628389
    15  O   -0.454077
    16  O   -0.537352
    17  N   -0.753253
    18  C    0.358421
    19  C   -0.073465
    20  C    0.018893
    21  C    0.272948
    22  C   -0.342442
    23  C   -0.061218
    24  C   -0.251983
    25  N   -0.676638
    26  C    0.275672
    27  C    0.064212
    28  C    0.004457
    29  C    0.303687
    30  C   -0.344453
    31  C   -0.249643
    32  C   -0.291963
    33  N   -0.724587
    34  C    0.225699
    35  C   -0.007012
    36  C   -0.031990
    37  C    0.347280
    38  C   -0.361688
    39  C    0.354849
    40  O   -0.371075
    41  C   -0.318336
    42  C    0.623654
    43  O   -0.441973
    44  O   -0.485614
    45  C   -0.064052
    46  C    0.025201
    47  C   -0.093135
    48  C    0.077975
    49  C   -0.328522
    50  C   -0.218364
    51  C   -0.169965
    52  C   -0.177992
    53  C   -0.066067
    54  C   -0.314866
    55  C   -0.133138
    56  C   -0.176460
    57  C   -0.162996
    58  C   -0.025742
    59  C   -0.316583
    60  C   -0.182510
    61  C   -0.188393
    62  C   -0.159095
    63  C   -0.051577
    64  C   -0.315426
    65  C   -0.281344
    66  H    0.091365
    67  H    0.098490
    68  H    0.108515
    69  H    0.117573
    70  H    0.084000
    71  H    0.113333
    72  H    0.115338
    73  H    0.087024
    74  H    0.114346
    75  H    0.133114
    76  H    0.122985
    77  H    0.151031
    78  H    0.137864
    79  H    0.134489
    80  H    0.093652
    81  H    0.078040
    82  H    0.100454
    83  H    0.114478
    84  H    0.064394
    85  H    0.110800
    86  H    0.119511
    87  H    0.088284
    88  H    0.096804
    89  H    0.113004
    90  H    0.107789
    91  H    0.095290
    92  H    0.142289
    93  H    0.139191
    94  H    0.121110
    95  H    0.172367
    96  H    0.090622
    97  H    0.130827
    98  H    0.124326
    99  H    0.100881
   100  H    0.122627
   101  H    0.086368
   102  H    0.119851
   103  H    0.114922
   104  H    0.087810
   105  H    0.103715
   106  H    0.108340
   107  H    0.112612
   108  H    0.099274
   109  H    0.068112
   110  H    0.093003
   111  H    0.083081
   112  H    0.104733
   113  H    0.118940
   114  H    0.078252
   115  H    0.035211
   116  H    0.097752
   117  H    0.088354
   118  H    0.099582
   119  H    0.085160
   120  H    0.058926
   121  H    0.092302
   122  H    0.076681
   123  H    0.068421
   124  H    0.118635
   125  H    0.083545
   126  H    0.100786
   127  H    0.086121
   128  H    0.092081
   129  H    0.078522
   130  H    0.056344
   131  H    0.098456
   132  H    0.100361
   133  H    0.104221
   134  H    0.097076
   135  H    0.107282
   136  H    0.069445
   137  H    0.091886
 Sum of Mulliken charges =   0.00000

 Dipole moment (field-independent basis, Debye):
    X=              0.1807    Y=              3.8063    Z=             -0.8497  Tot=              3.9041
 Quadrupole moment (field-independent basis, Debye-Ang):
   XX=           -343.1674   YY=           -389.6079   ZZ=           -400.7875
   XY=            -12.8345   XZ=              1.1753   YZ=             -3.1487

 Normal termination of Gaussian 09 at Fri Jun 28 00:56:17 2019.
