 Gaussian 09, Revision D.01,
 Gaussian 09:  ES64L-G09RevD.01 24-Apr-2013

 -------------------------------------
 # td=(NStates=1) CAM-B3LYP/6-31G(d,p)
 -------------------------------------

 --
 TD
 --
 Symbolic Z-matrix:
 Charge =  0 Multiplicity = 1

                         Standard orientation:
 ---------------------------------------------------------------------
 Center     Atomic      Atomic             Coordinates (Angstroms)
 Number     Number       Type             X           Y           Z
 ---------------------------------------------------------------------
      1         12           0       -7.193058    0.556456    0.032439
      2          6           0       -4.912060   -1.937126    0.556381
      3          6           0       -4.837426    2.791200    1.224077
      4          6           0       -9.423256    2.991470   -0.440605
      5          6           0       -9.531823   -1.793513   -0.933895
      6          7           0       -5.221907    0.390125    0.738707
      7          6           0       -4.307720   -0.671473    0.859519
      8          6           0       -2.904492   -0.370413    1.255194
      9          6           0       -3.111747    1.081326    1.760536
     10          6           0       -4.449198    1.520717    1.133038
     11          6           0       -3.045406    1.480901    3.191787
     12          6           0       -1.845622   -0.527775    0.176540
     13          6           0       -0.420454   -0.322695    0.649616
     14          6           0        0.463334   -0.583134   -0.444980
     15          8           0        0.272210   -0.879724   -1.606831
     16          8           0        1.895382   -0.304089   -0.114803
     17          7           0       -7.080321    2.647003    0.369461
     18          6           0       -6.111312    3.341902    0.786045
     19          6           0       -6.555580    4.773259    0.858475
     20          6           0       -7.901291    4.794831    0.406007
     21          6           0       -8.259841    3.420352    0.120788
     22          6           0       -5.664499    5.876967    1.224019
     23          6           0       -8.809121    5.980568    0.342373
     24          6           0       -8.367277    7.271121    0.222350
     25          7           0       -9.168819    0.609917   -0.637612
     26          6           0       -9.985845    1.732598   -0.702137
     27          6           0      -11.266538    1.300015   -1.139622
     28          6           0      -11.315678   -0.026501   -1.240892
     29          6           0       -9.936741   -0.477439   -0.978071
     30          6           0      -12.305598    2.334853   -1.474951
     31          6           0      -12.411139   -0.899394   -1.707906
     32          6           0      -12.459428   -1.191360   -3.227647
     33          7           0       -7.246845   -1.376295   -0.190650
     34          6           0       -8.250359   -2.318952   -0.572661
     35          6           0       -7.704865   -3.621556   -0.527569
     36          6           0       -6.428991   -3.567966   -0.147997
     37          6           0       -6.195659   -2.222407    0.112713
     38          6           0       -8.456463   -4.846096   -0.768366
     39          6           0       -5.300545   -4.393948    0.060082
     40          8           0       -5.106256   -5.563013    0.214664
     41          6           0       -4.117157   -3.206863    0.519545
     42          6           0       -3.588256   -3.692734    1.791222
     43          8           0       -3.735011   -3.106134    2.887032
     44          8           0       -2.620155   -4.635064    1.683562
     45          6           0       -2.119572   -5.261281    2.831669
     46          6           0        2.716879   -0.473909   -1.072057
     47          6           0        4.108775   -0.271361   -0.494208
     48          6           0        5.172790    0.514018   -0.816247
     49          6           0        5.068387    1.363864   -2.018610
     50          6           0        6.502063    0.461457   -0.204665
     51          6           0        7.699727   -0.232162   -0.967459
     52          6           0        8.987399   -0.287434   -0.072007
     53          6           0       10.273948   -0.622203   -0.804577
     54          6           0       10.087603   -2.096857   -1.335113
     55          6           0       11.507118   -0.219929    0.012065
     56          6           0       12.819102   -0.347102   -0.745863
     57          6           0       14.009569   -0.116069    0.147872
     58          6           0       15.358966   -0.193368   -0.475960
     59          6           0       15.663477   -1.670652   -0.720107
     60          6           0       16.449940    0.573742    0.408490
     61          6           0       17.814107    0.640180   -0.279524
     62          6           0       18.935424    1.186881    0.737258
     63          6           0       20.332369    1.230109    0.163432
     64          6           0       20.482064    2.069141   -1.216095
     65          6           0       21.345433    1.753969    1.171479
     66          1           0       -4.270888    3.529971    1.908014
     67          1           0      -10.110358    3.879599   -0.561996
     68          1           0      -10.291556   -2.565845   -0.936854
     69          1           0       -2.790597   -0.888576    2.213754
     70          1           0       -2.161322    1.604714    1.370075
     71          1           0       -2.018339    1.015133    3.732475
     72          1           0       -3.071211    2.421867    3.410082
     73          1           0       -3.816118    0.934046    3.775275
     74          1           0       -1.872469   -1.523948   -0.356259
     75          1           0       -2.086169    0.011688   -0.472506
     76          1           0       -0.430757    0.853014    0.907821
     77          1           0       -0.202397   -0.754347    1.556138
     78          1           0       -5.244611    6.483888    0.337766
     79          1           0       -6.196885    6.618835    1.872751
     80          1           0       -4.717289    5.684718    1.764377
     81          1           0       -9.799132    5.762234    0.439383
     82          1           0       -9.184438    7.890857    0.249049
     83          1           0       -7.446656    7.408840   -0.255548
     84          1           0      -11.905287    2.662104   -2.491770
     85          1           0      -13.376954    1.801615   -1.702334
     86          1           0      -12.446980    3.016721   -0.400121
     87          1           0      -12.737847   -1.877063   -1.055568
     88          1           0      -13.372017   -0.260551   -1.512582
     89          1           0      -13.318562   -1.803546   -3.779456
     90          1           0      -12.439032   -0.350873   -3.742217
     91          1           0      -11.516177   -1.717666   -3.326632
     92          1           0       -8.729373   -4.822415   -1.881904
     93          1           0       -7.936792   -5.718558   -0.361033
     94          1           0       -9.328596   -4.860731   -0.117594
     95          1           0       -3.401127   -3.228300   -0.420953
     96          1           0       -1.570282   -4.677376    3.621182
     97          1           0       -2.891007   -5.783864    3.237990
     98          1           0       -1.289698   -5.801043    2.563602
     99          1           0        2.579911   -1.402631   -1.608780
    100          1           0        2.735374    0.351070   -1.916481
    101          1           0        4.336334   -1.201595    0.148167
    102          1           0        4.137257    1.474869   -2.628146
    103          1           0        5.571495    2.373255   -1.823828
    104          1           0        5.654942    1.029777   -2.870719
    105          1           0        6.759348    1.485132   -0.007545
    106          1           0        6.283932    0.052443    0.859182
    107          1           0        7.412953   -1.174472   -1.272674
    108          1           0        7.897640    0.112172   -1.997723
    109          1           0        8.848635    0.639329    0.566522
    110          1           0        8.863632   -1.035560    0.659202
    111          1           0       10.224825    0.037842   -1.697157
    112          1           0        9.222303   -2.003645   -2.322424
    113          1           0       10.964679   -2.484891   -1.903689
    114          1           0        9.899845   -2.794352   -0.439532
    115          1           0       11.107277    0.666232    0.412597
    116          1           0       11.537628   -0.722923    0.844618
    117          1           0       12.929720   -1.299134   -1.393438
    118          1           0       12.611573    0.464748   -1.674649
    119          1           0       13.866639    0.880043    0.589375
    120          1           0       13.924814   -0.707675    1.108869
    121          1           0       15.487239    0.181652   -1.344206
    122          1           0       15.566439   -2.303987    0.211494
    123          1           0       14.885152   -2.049512   -1.367561
    124          1           0       16.656310   -1.916819   -1.007757
    125          1           0       15.946024    1.565837    0.578604
    126          1           0       16.324317    0.221179    1.424364
    127          1           0       18.282528   -0.257757   -0.520653
    128          1           0       17.846952    1.307016   -1.286021
    129          1           0       18.621816    2.023256    1.114000
    130          1           0       18.880658    0.393581    1.626340
    131          1           0       20.505574    0.167415    0.017206
    132          1           0       20.172940    3.121959   -1.061025
    133          1           0       21.551595    1.835292   -1.566552
    134          1           0       19.757611    1.533882   -2.080885
    135          1           0       21.261963    1.280404    2.157069
    136          1           0       22.384264    1.561852    0.728133
    137          1           0       21.176291    2.850408    1.146996
 ---------------------------------------------------------------------

 SCF Done:  E(RCAM-B3LYP) =  -2932.58286239     A.U. after   17 cycles

 Excitation energies and oscillator strengths:

 Excited State   1:      Singlet-A      1.9951 eV  621.43 nm  f=0.3112  <S**2>=0.000
     240 -> 243        0.21125
     241 -> 242        0.66456
 This state for optimization and/or second-order correction.
 Total Energy, E(TD-HF/TD-KS) =  -2932.50954234
 Copying the excited state density for this state as the 1-particle RhoCI density.

 The electronic state is 1-A.
 Alpha  occ. eigenvalues --  -46.84512 -19.25311 -19.24109 -19.23698 -19.22181
 Alpha  occ. eigenvalues --  -19.19373 -14.42078 -14.40071 -14.40005 -14.39403
 Alpha  occ. eigenvalues --  -10.40894 -10.38578 -10.36267 -10.31710 -10.30639
 Alpha  occ. eigenvalues --  -10.30357 -10.29887 -10.29585 -10.29547 -10.29416
 Alpha  occ. eigenvalues --  -10.29324 -10.29251 -10.29191 -10.29070 -10.29013
 Alpha  occ. eigenvalues --  -10.28552 -10.28355 -10.28327 -10.28249 -10.28077
 Alpha  occ. eigenvalues --  -10.28053 -10.27985 -10.27713 -10.27652 -10.27450
 Alpha  occ. eigenvalues --  -10.27322 -10.27155 -10.26895 -10.26806 -10.26321
 Alpha  occ. eigenvalues --  -10.26238 -10.26236 -10.26223 -10.26218 -10.26194
 Alpha  occ. eigenvalues --  -10.26192 -10.26124 -10.25858 -10.25785 -10.25754
 Alpha  occ. eigenvalues --  -10.25743 -10.25528 -10.25137 -10.25122 -10.25022
 Alpha  occ. eigenvalues --  -10.24942 -10.24839 -10.24839 -10.24769 -10.24744
 Alpha  occ. eigenvalues --  -10.24627 -10.24139 -10.23705 -10.23333 -10.23074
 Alpha  occ. eigenvalues --   -3.13570  -1.88269  -1.87813  -1.87755  -1.18624
 Alpha  occ. eigenvalues --   -1.17081  -1.13396  -1.11472  -1.06581  -1.04899
 Alpha  occ. eigenvalues --   -1.03956  -1.03091  -1.02104  -0.92840  -0.92196
 Alpha  occ. eigenvalues --   -0.90917  -0.90052  -0.90024  -0.89297  -0.89038
 Alpha  occ. eigenvalues --   -0.89007  -0.88319  -0.88138  -0.87983  -0.86994
 Alpha  occ. eigenvalues --   -0.85003  -0.84293  -0.83862  -0.83575  -0.82404
 Alpha  occ. eigenvalues --   -0.82010  -0.81545  -0.80607  -0.79856  -0.78627
 Alpha  occ. eigenvalues --   -0.78190  -0.76912  -0.75876  -0.75499  -0.75255
 Alpha  occ. eigenvalues --   -0.74874  -0.74682  -0.74340  -0.74041  -0.72871
 Alpha  occ. eigenvalues --   -0.71627  -0.71026  -0.70047  -0.69248  -0.69038
 Alpha  occ. eigenvalues --   -0.68352  -0.67621  -0.66205  -0.65331  -0.65177
 Alpha  occ. eigenvalues --   -0.64684  -0.64102  -0.63808  -0.63222  -0.62653
 Alpha  occ. eigenvalues --   -0.61895  -0.61616  -0.60634  -0.60288  -0.59464
 Alpha  occ. eigenvalues --   -0.58743  -0.58539  -0.58038  -0.57428  -0.57163
 Alpha  occ. eigenvalues --   -0.56811  -0.56447  -0.55895  -0.55559  -0.54814
 Alpha  occ. eigenvalues --   -0.54189  -0.54036  -0.53780  -0.53274  -0.53059
 Alpha  occ. eigenvalues --   -0.52639  -0.52387  -0.52253  -0.52036  -0.51844
 Alpha  occ. eigenvalues --   -0.51819  -0.51525  -0.51317  -0.50931  -0.50729
 Alpha  occ. eigenvalues --   -0.50631  -0.50499  -0.49973  -0.49783  -0.49764
 Alpha  occ. eigenvalues --   -0.49412  -0.49121  -0.48926  -0.48649  -0.48318
 Alpha  occ. eigenvalues --   -0.48185  -0.48134  -0.47897  -0.47508  -0.47363
 Alpha  occ. eigenvalues --   -0.47263  -0.46870  -0.46536  -0.46444  -0.46246
 Alpha  occ. eigenvalues --   -0.46110  -0.45789  -0.45614  -0.45384  -0.45143
 Alpha  occ. eigenvalues --   -0.45023  -0.44848  -0.44744  -0.44706  -0.44522
 Alpha  occ. eigenvalues --   -0.44406  -0.44025  -0.43698  -0.43365  -0.43245
 Alpha  occ. eigenvalues --   -0.43029  -0.42780  -0.42719  -0.42457  -0.42317
 Alpha  occ. eigenvalues --   -0.41775  -0.41574  -0.41515  -0.41095  -0.41048
 Alpha  occ. eigenvalues --   -0.40759  -0.40629  -0.40524  -0.40387  -0.40246
 Alpha  occ. eigenvalues --   -0.40145  -0.40012  -0.39585  -0.39538  -0.39215
 Alpha  occ. eigenvalues --   -0.38508  -0.38145  -0.38089  -0.37969  -0.37844
 Alpha  occ. eigenvalues --   -0.37453  -0.37391  -0.37294  -0.37028  -0.36875
 Alpha  occ. eigenvalues --   -0.36587  -0.36063  -0.36032  -0.35647  -0.35262
 Alpha  occ. eigenvalues --   -0.35078  -0.34896  -0.34691  -0.33889  -0.32733
 Alpha  occ. eigenvalues --   -0.32628  -0.32289  -0.31820  -0.31486  -0.30325
 Alpha  occ. eigenvalues --   -0.29687  -0.29155  -0.28022  -0.27409  -0.23859
 Alpha  occ. eigenvalues --   -0.21395
 Alpha virt. eigenvalues --   -0.07105  -0.03059   0.00774   0.02516   0.03314
 Alpha virt. eigenvalues --    0.04601   0.05698   0.06255   0.06760   0.06940
 Alpha virt. eigenvalues --    0.07567   0.09667   0.10703   0.11100   0.11163

 Mulliken charges:
               1
     1  Mg   0.818570
     2  C    0.017435
     3  C   -0.216945
     4  C   -0.176780
     5  C   -0.181652
     6  N   -0.628465
     7  C    0.308104
     8  C   -0.157043
     9  C   -0.152912
    10  C    0.365399
    11  C   -0.292320
    12  C   -0.133071
    13  C   -0.276536
    14  C    0.624518
    15  O   -0.438871
    16  O   -0.469203
    17  N   -0.679999
    18  C    0.335024
    19  C   -0.006220
    20  C    0.016944
    21  C    0.267973
    22  C   -0.399865
    23  C   -0.080892
    24  C   -0.230269
    25  N   -0.680890
    26  C    0.302073
    27  C    0.020913
    28  C    0.057955
    29  C    0.288914
    30  C   -0.354012
    31  C   -0.274241
    32  C   -0.291090
    33  N   -0.742966
    34  C    0.264987
    35  C   -0.003210
    36  C    0.112634
    37  C    0.301546
    38  C   -0.380947
    39  C    0.317981
    40  O   -0.420521
    41  C   -0.390374
    42  C    0.646531
    43  O   -0.500208
    44  O   -0.452883
    45  C   -0.064807
    46  C    0.053883
    47  C   -0.147420
    48  C    0.128693
    49  C   -0.374517
    50  C   -0.240310
    51  C   -0.179399
    52  C   -0.183224
    53  C   -0.075889
    54  C   -0.292322
    55  C   -0.162143
    56  C   -0.165302
    57  C   -0.183615
    58  C   -0.035390
    59  C   -0.318079
    60  C   -0.192048
    61  C   -0.181677
    62  C   -0.168813
    63  C   -0.063147
    64  C   -0.303361
    65  C   -0.295592
    66  H    0.086891
    67  H    0.088169
    68  H    0.099945
    69  H    0.153840
    70  H    0.083172
    71  H    0.067203
    72  H    0.130444
    73  H    0.123845
    74  H    0.123701
    75  H    0.119284
    76  H    0.145714
    77  H    0.166714
    78  H    0.115266
    79  H    0.126795
    80  H    0.111959
    81  H    0.095882
    82  H    0.102195
    83  H    0.117673
    84  H    0.138684
    85  H    0.095740
    86  H    0.104309
    87  H    0.092834
    88  H    0.086305
    89  H    0.091199
    90  H    0.120716
    91  H    0.109617
    92  H    0.127136
    93  H    0.143868
    94  H    0.128416
    95  H    0.151943
    96  H    0.102375
    97  H    0.132995
    98  H    0.121025
    99  H    0.103250
   100  H    0.049176
   101  H    0.063234
   102  H    0.115164
   103  H    0.089393
   104  H    0.119533
   105  H    0.104677
   106  H    0.095696
   107  H    0.114439
   108  H    0.089024
   109  H    0.081612
   110  H    0.100426
   111  H    0.082786
   112  H    0.066289
   113  H    0.102936
   114  H    0.101989
   115  H    0.103268
   116  H    0.094490
   117  H    0.091939
   118  H    0.059294
   119  H    0.088231
   120  H    0.090928
   121  H    0.096788
   122  H    0.082472
   123  H    0.100224
   124  H    0.100865
   125  H    0.085474
   126  H    0.092142
   127  H    0.107970
   128  H    0.077397
   129  H    0.096600
   130  H    0.065480
   131  H    0.085866
   132  H    0.112554
   133  H    0.103745
   134  H    0.075846
   135  H    0.104142
   136  H    0.089373
   137  H    0.098798
 Sum of Mulliken charges =   0.00000

 Dipole moment (field-independent basis, Debye):
    X=             -1.2279    Y=              3.7032    Z=              0.1330  Tot=              3.9037
 Quadrupole moment (field-independent basis, Debye-Ang):
   XX=           -335.6859   YY=           -392.1273   ZZ=           -397.0452
   XY=            -18.9947   XZ=             16.4783   YZ=              0.1959

 Normal termination of Gaussian 09 at Sat Jun 29 02:29:34 2019.
