 Gaussian 09, Revision D.01,
 Gaussian 09:  ES64L-G09RevD.01 24-Apr-2013

 -------------------------------------
 # td=(NStates=1) CAM-B3LYP/6-31G(d,p)
 -------------------------------------

 --
 TD
 --
 Symbolic Z-matrix:
 Charge =  0 Multiplicity = 1

                         Standard orientation:
 ---------------------------------------------------------------------
 Center     Atomic      Atomic             Coordinates (Angstroms)
 Number     Number       Type             X           Y           Z
 ---------------------------------------------------------------------
      1         12           0       -7.122975    0.598265    0.163791
      2          6           0       -4.844866   -2.038596    0.511161
      3          6           0       -4.762653    2.728192    1.390491
      4          6           0       -9.422020    3.068925   -0.273958
      5          6           0       -9.457249   -1.683621   -0.992404
      6          7           0       -5.114940    0.389137    0.888238
      7          6           0       -4.297426   -0.727504    0.879864
      8          6           0       -2.892461   -0.400948    1.278849
      9          6           0       -2.954328    1.037240    1.795496
     10          6           0       -4.308918    1.510102    1.312214
     11          6           0       -2.839575    1.169378    3.285981
     12          6           0       -1.927446   -0.613264    0.062283
     13          6           0       -0.511784   -0.410547    0.431982
     14          6           0        0.436773   -0.493661   -0.695341
     15          8           0        0.132863   -0.871143   -1.837370
     16          8           0        1.649833   -0.505009   -0.171496
     17          7           0       -7.104767    2.596399    0.454980
     18          6           0       -6.022304    3.270117    0.951144
     19          6           0       -6.373540    4.689008    0.920655
     20          6           0       -7.732320    4.802186    0.513186
     21          6           0       -8.142196    3.378425    0.255192
     22          6           0       -5.520158    5.829869    1.262376
     23          6           0       -8.557031    5.926525    0.460796
     24          6           0       -8.127522    7.117129   -0.125050
     25          7           0       -9.137834    0.667787   -0.455885
     26          6           0       -9.901751    1.772845   -0.639094
     27          6           0      -11.230263    1.417723   -1.090563
     28          6           0      -11.221577    0.110044   -1.293005
     29          6           0       -9.908243   -0.379549   -0.924391
     30          6           0      -12.218457    2.525726   -1.415265
     31          6           0      -12.349380   -0.753605   -1.860799
     32          6           0      -12.218238   -0.948034   -3.356824
     33          7           0       -7.147536   -1.286432   -0.243516
     34          6           0       -8.161427   -2.095681   -0.673854
     35          6           0       -7.831467   -3.564171   -0.548645
     36          6           0       -6.466948   -3.525949   -0.063494
     37          6           0       -6.136475   -2.156501    0.044717
     38          6           0       -8.625215   -4.759197   -0.725671
     39          6           0       -5.247614   -4.332956    0.214736
     40          8           0       -5.193323   -5.536998    0.262456
     41          6           0       -4.144904   -3.333771    0.543845
     42          6           0       -3.526616   -3.724489    1.868203
     43          8           0       -3.774668   -3.200425    2.942168
     44          8           0       -2.512254   -4.593636    1.672710
     45          6           0       -1.994361   -5.149952    2.833004
     46          6           0        2.816840   -0.786792   -1.149279
     47          6           0        4.145657   -0.617778   -0.560147
     48          6           0        5.066603    0.190590   -0.944583
     49          6           0        4.986057    1.088639   -2.179188
     50          6           0        6.321018    0.309916   -0.241682
     51          6           0        7.552272   -0.076074   -1.078715
     52          6           0        8.873523   -0.033211   -0.157158
     53          6           0       10.171762   -0.479035   -0.935659
     54          6           0       10.190522   -1.926434   -1.413243
     55          6           0       11.398353   -0.417592   -0.062786
     56          6           0       12.728989   -0.580185   -0.767851
     57          6           0       13.834752   -0.138584    0.157702
     58          6           0       15.244252   -0.194730   -0.409958
     59          6           0       15.641533   -1.625305   -0.922900
     60          6           0       16.290032    0.417047    0.445103
     61          6           0       17.622688    0.558790   -0.183037
     62          6           0       18.758274    1.269796    0.765286
     63          6           0       20.199927    1.406541    0.216936
     64          6           0       20.163386    2.391087   -0.992052
     65          6           0       21.113246    1.813420    1.277721
     66          1           0       -3.916870    3.446478    1.604754
     67          1           0      -10.212324    3.864057   -0.092098
     68          1           0      -10.343890   -2.367834   -1.403667
     69          1           0       -2.718555   -1.142766    1.969791
     70          1           0       -2.312145    1.739218    1.254348
     71          1           0       -1.800925    0.862450    3.657462
     72          1           0       -3.163395    2.120499    3.511809
     73          1           0       -3.544748    0.487668    3.614618
     74          1           0       -2.186386   -1.336984   -0.837069
     75          1           0       -2.084124    0.593075   -0.544139
     76          1           0       -0.398985    0.540517    1.122274
     77          1           0       -0.219630   -1.242804    1.080538
     78          1           0       -4.671350    6.127654    0.596802
     79          1           0       -6.138294    6.501778    1.641650
     80          1           0       -4.836857    5.643699    2.106858
     81          1           0       -9.588518    5.707465    0.639163
     82          1           0       -8.821544    7.918451   -0.095089
     83          1           0       -7.129875    7.345601   -0.580977
     84          1           0      -11.464915    3.545555   -1.697331
     85          1           0      -13.232910    2.069092   -2.156923
     86          1           0      -12.572343    3.036760   -0.322804
     87          1           0      -12.174057   -1.750887   -1.465726
     88          1           0      -13.280475   -0.242542   -1.419439
     89          1           0      -12.851560   -1.715580   -3.702268
     90          1           0      -12.508959   -0.003721   -3.775290
     91          1           0      -11.277931   -1.201760   -3.859684
     92          1           0       -9.068128   -4.909395   -1.795828
     93          1           0       -8.068175   -5.758945   -0.579801
     94          1           0       -9.459185   -4.746791    0.123023
     95          1           0       -3.193908   -3.270669   -0.151861
     96          1           0       -1.392527   -4.531635    3.360421
     97          1           0       -2.755180   -5.664352    3.390322
     98          1           0       -1.208003   -5.952423    2.445814
     99          1           0        2.383346   -1.930364   -1.444653
    100          1           0        2.656879   -0.390182   -2.041043
    101          1           0        4.410600   -1.043203    0.360307
    102          1           0        4.039487    1.181995   -2.797691
    103          1           0        5.294948    2.021029   -1.970274
    104          1           0        5.843474    0.914725   -2.937230
    105          1           0        6.340235    1.443628    0.031020
    106          1           0        6.276332   -0.063744    0.760861
    107          1           0        7.336910   -1.054634   -1.648911
    108          1           0        7.720687    0.745561   -1.896730
    109          1           0        8.984231    0.986189    0.229184
    110          1           0        8.921782   -0.507530    0.632208
    111          1           0       10.383708    0.268420   -1.771656
    112          1           0        9.200708   -2.134642   -1.770600
    113          1           0       11.028924   -1.965558   -2.407676
    114          1           0       10.509027   -2.511616   -0.703797
    115          1           0       11.376358    0.565131    0.445715
    116          1           0       11.328278   -0.982348    1.005265
    117          1           0       12.846435   -1.592054   -0.849351
    118          1           0       12.743419    0.000164   -1.639844
    119          1           0       13.641308    0.847938    0.441959
    120          1           0       13.978350   -0.981270    0.830503
    121          1           0       14.897493    0.412283   -1.282649
    122          1           0       15.989954   -2.359501   -0.210725
    123          1           0       14.866946   -2.222374   -1.487538
    124          1           0       16.439933   -1.699687   -1.502363
    125          1           0       15.961981    1.408095    0.703330
    126          1           0       16.338715   -0.248358    1.248079
    127          1           0       17.808655   -0.482219   -0.367080
    128          1           0       17.476685    1.433655   -1.004516
    129          1           0       18.411875    2.203993    1.105270
    130          1           0       18.771446    0.626011    1.781568
    131          1           0       20.470950    0.479999   -0.082319
    132          1           0       19.869765    3.412485   -0.719813
    133          1           0       21.146919    2.519515   -1.146165
    134          1           0       19.555962    2.068804   -1.836979
    135          1           0       21.039015    1.108743    2.159187
    136          1           0       22.040082    1.927197    1.071976
    137          1           0       20.778158    2.803802    1.639606
 ---------------------------------------------------------------------

 SCF Done:  E(RCAM-B3LYP) =  -2932.57681472     A.U. after   16 cycles

 Excitation energies and oscillator strengths:

 Excited State   1:      Singlet-A      1.8627 eV  665.62 nm  f=0.3085  <S**2>=0.000
     240 -> 243        0.20937
     241 -> 242        0.66903
 This state for optimization and/or second-order correction.
 Total Energy, E(TD-HF/TD-KS) =  -2932.50836269
 Copying the excited state density for this state as the 1-particle RhoCI density.

 The electronic state is 1-A.
 Alpha  occ. eigenvalues --  -46.83514 -19.26893 -19.26199 -19.21465 -19.20656
 Alpha  occ. eigenvalues --  -19.20284 -14.41474 -14.39579 -14.39441 -14.38870
 Alpha  occ. eigenvalues --  -10.39746 -10.38713 -10.35425 -10.32764 -10.31450
 Alpha  occ. eigenvalues --  -10.31207 -10.30866 -10.29964 -10.29918 -10.29489
 Alpha  occ. eigenvalues --  -10.29362 -10.29247 -10.29078 -10.28951 -10.28685
 Alpha  occ. eigenvalues --  -10.28662 -10.28195 -10.27964 -10.27807 -10.27783
 Alpha  occ. eigenvalues --  -10.27754 -10.27668 -10.27431 -10.27408 -10.27183
 Alpha  occ. eigenvalues --  -10.26882 -10.26867 -10.26797 -10.26534 -10.26365
 Alpha  occ. eigenvalues --  -10.26338 -10.26239 -10.26054 -10.25926 -10.25899
 Alpha  occ. eigenvalues --  -10.25800 -10.25552 -10.25460 -10.25444 -10.25396
 Alpha  occ. eigenvalues --  -10.25378 -10.25316 -10.25193 -10.24914 -10.24845
 Alpha  occ. eigenvalues --  -10.24767 -10.24580 -10.24333 -10.24056 -10.23693
 Alpha  occ. eigenvalues --  -10.23665 -10.23585 -10.23511 -10.23306 -10.22931
 Alpha  occ. eigenvalues --   -3.12734  -1.87423  -1.86965  -1.86945  -1.19492
 Alpha  occ. eigenvalues --   -1.17085  -1.11935  -1.09877  -1.07389  -1.04190
 Alpha  occ. eigenvalues --   -1.03641  -1.02700  -1.01689  -0.93621  -0.93545
 Alpha  occ. eigenvalues --   -0.92048  -0.90376  -0.90225  -0.89239  -0.89146
 Alpha  occ. eigenvalues --   -0.88841  -0.88445  -0.87460  -0.86853  -0.86654
 Alpha  occ. eigenvalues --   -0.85991  -0.84857  -0.84152  -0.83604  -0.82521
 Alpha  occ. eigenvalues --   -0.81786  -0.81484  -0.80458  -0.79967  -0.78442
 Alpha  occ. eigenvalues --   -0.77891  -0.77412  -0.76942  -0.76727  -0.76416
 Alpha  occ. eigenvalues --   -0.76083  -0.75466  -0.74591  -0.74085  -0.72082
 Alpha  occ. eigenvalues --   -0.71109  -0.70742  -0.70063  -0.69239  -0.68434
 Alpha  occ. eigenvalues --   -0.67644  -0.67602  -0.65743  -0.65699  -0.64547
 Alpha  occ. eigenvalues --   -0.64227  -0.63583  -0.63541  -0.63000  -0.62078
 Alpha  occ. eigenvalues --   -0.61911  -0.60953  -0.59643  -0.59446  -0.59236
 Alpha  occ. eigenvalues --   -0.58418  -0.58077  -0.57808  -0.57789  -0.57166
 Alpha  occ. eigenvalues --   -0.56879  -0.56282  -0.55974  -0.55210  -0.55131
 Alpha  occ. eigenvalues --   -0.54796  -0.54599  -0.54425  -0.53858  -0.53473
 Alpha  occ. eigenvalues --   -0.53040  -0.52999  -0.52528  -0.52158  -0.52083
 Alpha  occ. eigenvalues --   -0.51984  -0.51458  -0.51302  -0.51022  -0.50624
 Alpha  occ. eigenvalues --   -0.50550  -0.50462  -0.50092  -0.49701  -0.49652
 Alpha  occ. eigenvalues --   -0.49500  -0.49382  -0.49010  -0.48749  -0.48391
 Alpha  occ. eigenvalues --   -0.48190  -0.47858  -0.47689  -0.47342  -0.47189
 Alpha  occ. eigenvalues --   -0.47085  -0.46885  -0.46197  -0.46029  -0.45937
 Alpha  occ. eigenvalues --   -0.45781  -0.45718  -0.45360  -0.45213  -0.45119
 Alpha  occ. eigenvalues --   -0.44806  -0.44749  -0.44421  -0.44273  -0.44138
 Alpha  occ. eigenvalues --   -0.43988  -0.43909  -0.43685  -0.43555  -0.43520
 Alpha  occ. eigenvalues --   -0.43197  -0.42965  -0.42789  -0.42610  -0.42563
 Alpha  occ. eigenvalues --   -0.42494  -0.42379  -0.41783  -0.41755  -0.41498
 Alpha  occ. eigenvalues --   -0.41213  -0.41075  -0.41013  -0.40945  -0.40854
 Alpha  occ. eigenvalues --   -0.40764  -0.40671  -0.40365  -0.39673  -0.39528
 Alpha  occ. eigenvalues --   -0.39440  -0.38912  -0.38480  -0.38366  -0.38078
 Alpha  occ. eigenvalues --   -0.37776  -0.37566  -0.36951  -0.36646  -0.36288
 Alpha  occ. eigenvalues --   -0.36274  -0.36196  -0.35851  -0.35788  -0.34724
 Alpha  occ. eigenvalues --   -0.34641  -0.34431  -0.34228  -0.34068  -0.33531
 Alpha  occ. eigenvalues --   -0.33179  -0.32781  -0.32071  -0.31015  -0.30777
 Alpha  occ. eigenvalues --   -0.30509  -0.29119  -0.28181  -0.25979  -0.23098
 Alpha  occ. eigenvalues --   -0.20061
 Alpha virt. eigenvalues --   -0.06408  -0.02672   0.01584   0.03667   0.04861
 Alpha virt. eigenvalues --    0.05634   0.05792   0.06244   0.06732   0.07060
 Alpha virt. eigenvalues --    0.08071   0.08618   0.09693   0.10845   0.11012

 Mulliken charges:
               1
     1  Mg   0.822063
     2  C    0.037263
     3  C   -0.197221
     4  C   -0.175064
     5  C   -0.187856
     6  N   -0.627587
     7  C    0.312797
     8  C   -0.140306
     9  C   -0.150014
    10  C    0.320093
    11  C   -0.286562
    12  C   -0.170244
    13  C   -0.255392
    14  C    0.620974
    15  O   -0.498696
    16  O   -0.483012
    17  N   -0.715244
    18  C    0.305518
    19  C   -0.004197
    20  C    0.026614
    21  C    0.308195
    22  C   -0.376259
    23  C   -0.124237
    24  C   -0.238989
    25  N   -0.672920
    26  C    0.275894
    27  C    0.087330
    28  C   -0.001797
    29  C    0.298103
    30  C   -0.361091
    31  C   -0.238006
    32  C   -0.313582
    33  N   -0.741119
    34  C    0.274776
    35  C    0.046481
    36  C   -0.015286
    37  C    0.326044
    38  C   -0.400257
    39  C    0.388173
    40  O   -0.453872
    41  C   -0.330681
    42  C    0.621652
    43  O   -0.470958
    44  O   -0.434673
    45  C   -0.080375
    46  C    0.016131
    47  C   -0.134655
    48  C    0.173661
    49  C   -0.381913
    50  C   -0.242592
    51  C   -0.180364
    52  C   -0.166811
    53  C   -0.064865
    54  C   -0.279764
    55  C   -0.197976
    56  C   -0.159766
    57  C   -0.177413
    58  C   -0.053827
    59  C   -0.360864
    60  C   -0.159782
    61  C   -0.168733
    62  C   -0.169004
    63  C   -0.052695
    64  C   -0.317999
    65  C   -0.299996
    66  H    0.082818
    67  H    0.088576
    68  H    0.092403
    69  H    0.127193
    70  H    0.106133
    71  H    0.100464
    72  H    0.115989
    73  H    0.134832
    74  H    0.143574
    75  H    0.040333
    76  H    0.125785
    77  H    0.139259
    78  H    0.115149
    79  H    0.128923
    80  H    0.098261
    81  H    0.096649
    82  H    0.099658
    83  H    0.118389
    84  H    0.107546
    85  H    0.093641
    86  H    0.095899
    87  H    0.102994
    88  H    0.107777
    89  H    0.108567
    90  H    0.111467
    91  H    0.118894
    92  H    0.116658
    93  H    0.148295
    94  H    0.121807
    95  H    0.162870
    96  H    0.130718
    97  H    0.136395
    98  H    0.101347
    99  H    0.101626
   100  H    0.141532
   101  H    0.082483
   102  H    0.116871
   103  H    0.130382
   104  H    0.108984
   105  H    0.093015
   106  H    0.109584
   107  H    0.105522
   108  H    0.095059
   109  H    0.092691
   110  H    0.102515
   111  H    0.077061
   112  H    0.094967
   113  H    0.066772
   114  H    0.122231
   115  H    0.071114
   116  H    0.064241
   117  H    0.112643
   118  H    0.093257
   119  H    0.093792
   120  H    0.087535
   121  H    0.065906
   122  H    0.094677
   123  H    0.096447
   124  H    0.122762
   125  H    0.084302
   126  H    0.094060
   127  H    0.095971
   128  H    0.077123
   129  H    0.092048
   130  H    0.047834
   131  H    0.096633
   132  H    0.093074
   133  H    0.106535
   134  H    0.111330
   135  H    0.093560
   136  H    0.107283
   137  H    0.090067
 Sum of Mulliken charges =   0.00000

 Dipole moment (field-independent basis, Debye):
    X=              4.4266    Y=              3.1821    Z=              0.5645  Tot=              5.4808
 Quadrupole moment (field-independent basis, Debye-Ang):
   XX=           -341.3831   YY=           -394.3976   ZZ=           -401.9241
   XY=             -7.7601   XZ=             10.0048   YZ=             -1.1482

 Normal termination of Gaussian 09 at Sat Jun 29 07:50:11 2019.
