 Gaussian 09, Revision D.01,
 Gaussian 09:  ES64L-G09RevD.01 24-Apr-2013

 -------------------------------------
 # td=(NStates=1) CAM-B3LYP/6-31G(d,p)
 -------------------------------------

 --
 TD
 --
 Symbolic Z-matrix:
 Charge =  0 Multiplicity = 1

                         Standard orientation:
 ---------------------------------------------------------------------
 Center     Atomic      Atomic             Coordinates (Angstroms)
 Number     Number       Type             X           Y           Z
 ---------------------------------------------------------------------
      1         12           0       -7.147123    0.628125    0.094295
      2          6           0       -4.867003   -2.021029    0.512587
      3          6           0       -4.848841    2.729188    1.081671
      4          6           0       -9.451623    3.083935   -0.287808
      5          6           0       -9.527191   -1.695613   -0.888134
      6          7           0       -5.139960    0.343520    0.776408
      7          6           0       -4.330356   -0.763694    0.752516
      8          6           0       -2.928475   -0.423993    1.196000
      9          6           0       -3.041626    1.060132    1.672841
     10          6           0       -4.451627    1.446504    1.227265
     11          6           0       -2.919333    1.247745    3.226428
     12          6           0       -1.906877   -0.659401    0.210519
     13          6           0       -0.441452   -0.567320    0.592059
     14          6           0        0.466116   -0.645525   -0.631366
     15          8           0        0.113419   -0.961797   -1.764685
     16          8           0        1.734783   -0.531958   -0.172520
     17          7           0       -7.194491    2.623201    0.390729
     18          6           0       -6.058611    3.285006    0.727039
     19          6           0       -6.448551    4.784461    0.846878
     20          6           0       -7.770852    4.831458    0.388568
     21          6           0       -8.154556    3.453399    0.142225
     22          6           0       -5.515193    5.966247    1.229182
     23          6           0       -8.696292    5.978853    0.254377
     24          6           0       -8.313850    7.235641    0.214760
     25          7           0       -9.015917    0.676085   -0.656566
     26          6           0       -9.799295    1.853519   -0.661751
     27          6           0      -11.161234    1.525720   -1.093600
     28          6           0      -11.179270    0.186189   -1.343017
     29          6           0       -9.926737   -0.389119   -0.933445
     30          6           0      -12.321764    2.514485   -1.235691
     31          6           0      -12.404761   -0.701443   -1.583515
     32          6           0      -12.525536   -1.158778   -3.110214
     33          7           0       -7.246907   -1.385952   -0.031252
     34          6           0       -8.235638   -2.207812   -0.531959
     35          6           0       -7.880490   -3.595825   -0.567327
     36          6           0       -6.496319   -3.510038   -0.149882
     37          6           0       -6.168258   -2.214675    0.155641
     38          6           0       -8.620998   -4.827951   -0.808687
     39          6           0       -5.424472   -4.354128    0.233614
     40          8           0       -5.287930   -5.582442    0.417306
     41          6           0       -4.188009   -3.400760    0.434930
     42          6           0       -3.457463   -3.670842    1.772925
     43          8           0       -3.739351   -3.175767    2.848199
     44          8           0       -2.557327   -4.671267    1.641773
     45          6           0       -1.979569   -5.148517    2.841435
     46          6           0        2.719647   -0.749552   -1.177797
     47          6           0        4.088483   -0.430482   -0.506217
     48          6           0        5.039890    0.308995   -0.921635
     49          6           0        4.990742    1.109701   -2.183705
     50          6           0        6.397493    0.266286   -0.234754
     51          6           0        7.539476   -0.234191   -0.926551
     52          6           0        8.946889   -0.064290   -0.201020
     53          6           0       10.199637   -0.406860   -0.977136
     54          6           0       10.216238   -1.910373   -1.390844
     55          6           0       11.463412   -0.061048   -0.214668
     56          6           0       12.842189   -0.205886   -0.856939
     57          6           0       14.003633    0.039495    0.130609
     58          6           0       15.402329   -0.103916   -0.628364
     59          6           0       15.645855   -1.570685   -1.066901
     60          6           0       16.449054    0.426948    0.345202
     61          6           0       17.860626    0.512614   -0.184535
     62          6           0       18.817622    1.126203    0.784951
     63          6           0       20.301406    1.210457    0.394627
     64          6           0       20.462287    2.114780   -0.874701
     65          6           0       21.230579    1.855297    1.539926
     66          1           0       -3.978573    3.543251    1.604004
     67          1           0      -10.230694    3.901070   -0.632816
     68          1           0      -10.197708   -2.617421   -1.150791
     69          1           0       -2.671714   -1.125800    1.918771
     70          1           0       -2.377609    1.523117    1.115553
     71          1           0       -1.952594    0.932724    3.525695
     72          1           0       -3.044883    2.186537    3.426007
     73          1           0       -3.583820    0.557119    3.913655
     74          1           0       -1.923184   -1.753225   -0.286464
     75          1           0       -1.880258   -0.168790   -0.744624
     76          1           0       -0.339486    0.423623    0.889471
     77          1           0       -0.218329   -0.945660    1.509622
     78          1           0       -5.115856    6.322349    0.169047
     79          1           0       -6.377744    6.680248    1.575362
     80          1           0       -4.715400    5.988807    2.116664
     81          1           0       -9.808616    5.653652    0.451292
     82          1           0       -8.992536    8.145159    0.190407
     83          1           0       -7.293110    7.310016    0.050490
     84          1           0      -12.054939    3.584303   -1.803863
     85          1           0      -13.165236    2.087241   -1.714740
     86          1           0      -12.565242    2.929029   -0.094722
     87          1           0      -12.283434   -1.454962   -0.770820
     88          1           0      -13.427019   -0.171858   -1.474151
     89          1           0      -13.305214   -1.914542   -3.220430
     90          1           0      -12.626878   -0.272160   -3.699474
     91          1           0      -11.437326   -1.573399   -3.437507
     92          1           0       -8.780751   -5.117278   -1.921461
     93          1           0       -8.060815   -5.608344   -0.396675
     94          1           0       -9.665270   -4.800445   -0.317852
     95          1           0       -3.551195   -3.613257   -0.369211
     96          1           0       -1.338469   -4.309205    3.244953
     97          1           0       -2.838086   -5.484743    3.634434
     98          1           0       -1.168777   -5.956987    2.687253
     99          1           0        2.621653   -1.950049   -1.491780
    100          1           0        2.544655   -0.300170   -2.136085
    101          1           0        4.002821   -1.089546    0.419968
    102          1           0        4.094939    1.218260   -2.736074
    103          1           0        5.413175    2.124603   -2.077382
    104          1           0        5.745032    0.689319   -2.948363
    105          1           0        6.678986    1.421174    0.156833
    106          1           0        6.178972   -0.226926    0.664232
    107          1           0        7.555874   -1.274815   -1.077860
    108          1           0        7.850827    0.228714   -1.880850
    109          1           0        9.096591    0.939702    0.219105
    110          1           0        8.926603   -0.859437    0.619220
    111          1           0        9.945665    0.280726   -1.805451
    112          1           0        9.252057   -2.108565   -2.027151
    113          1           0       11.031741   -2.394264   -2.010611
    114          1           0       10.078927   -2.687914   -0.529457
    115          1           0       11.534863    1.036360    0.112773
    116          1           0       11.341224   -0.752161    0.690025
    117          1           0       13.009511   -1.198987   -1.289345
    118          1           0       12.850770    0.381405   -1.858876
    119          1           0       14.037879    1.120933    0.526933
    120          1           0       13.839014   -0.646377    0.918785
    121          1           0       15.450218    0.695492   -1.399418
    122          1           0       15.496038   -2.345136   -0.288165
    123          1           0       14.752321   -1.759960   -1.731018
    124          1           0       16.682779   -1.891008   -1.542191
    125          1           0       16.171442    1.329382    0.912005
    126          1           0       16.332453   -0.243230    1.378003
    127          1           0       18.265969   -0.409341   -0.554124
    128          1           0       18.125874    1.341516   -1.050805
    129          1           0       18.583967    2.150976    1.301179
    130          1           0       19.078741    0.360076    1.785450
    131          1           0       20.648616    0.287664    0.070909
    132          1           0       20.096292    3.225002   -0.656421
    133          1           0       21.428336    2.236937   -1.187452
    134          1           0       19.776701    1.731406   -1.558771
    135          1           0       21.085912    1.168694    2.380036
    136          1           0       22.266742    1.523904    1.472754
    137          1           0       21.085342    3.058784    1.555327
 ---------------------------------------------------------------------

 SCF Done:  E(RCAM-B3LYP) =  -2932.67002039     A.U. after   17 cycles

 Excitation energies and oscillator strengths:

 Excited State   1:      Singlet-A      1.9584 eV  633.09 nm  f=0.3142  <S**2>=0.000
     240 -> 243        0.22062
     241 -> 242        0.67042
 This state for optimization and/or second-order correction.
 Total Energy, E(TD-HF/TD-KS) =  -2932.59805065
 Copying the excited state density for this state as the 1-particle RhoCI density.

 The electronic state is 1-A.
 Alpha  occ. eigenvalues --  -46.83730 -19.27610 -19.26092 -19.22317 -19.20566
 Alpha  occ. eigenvalues --  -19.19108 -14.42101 -14.40163 -14.39114 -14.38637
 Alpha  occ. eigenvalues --  -10.40478 -10.38998 -10.34037 -10.33082 -10.32547
 Alpha  occ. eigenvalues --  -10.31010 -10.30819 -10.30299 -10.29741 -10.29480
 Alpha  occ. eigenvalues --  -10.29081 -10.29025 -10.28899 -10.28896 -10.28880
 Alpha  occ. eigenvalues --  -10.28066 -10.28061 -10.27764 -10.27740 -10.27687
 Alpha  occ. eigenvalues --  -10.27545 -10.27445 -10.27353 -10.27333 -10.27101
 Alpha  occ. eigenvalues --  -10.26840 -10.26816 -10.26800 -10.26792 -10.26763
 Alpha  occ. eigenvalues --  -10.26759 -10.26749 -10.26605 -10.26428 -10.26396
 Alpha  occ. eigenvalues --  -10.26349 -10.26320 -10.26240 -10.26230 -10.26196
 Alpha  occ. eigenvalues --  -10.26136 -10.26086 -10.26065 -10.26025 -10.26001
 Alpha  occ. eigenvalues --  -10.25965 -10.25913 -10.25730 -10.25692 -10.25652
 Alpha  occ. eigenvalues --  -10.25585 -10.25423 -10.25364 -10.24375 -10.23370
 Alpha  occ. eigenvalues --   -3.12926  -1.87621  -1.87160  -1.87119  -1.19115
 Alpha  occ. eigenvalues --   -1.17988  -1.10157  -1.08793  -1.08221  -1.05830
 Alpha  occ. eigenvalues --   -1.03997  -1.02806  -1.00954  -0.92920  -0.92380
 Alpha  occ. eigenvalues --   -0.91608  -0.90619  -0.89839  -0.89782  -0.89132
 Alpha  occ. eigenvalues --   -0.88081  -0.87983  -0.87288  -0.86825  -0.86616
 Alpha  occ. eigenvalues --   -0.85419  -0.84092  -0.83292  -0.83035  -0.82546
 Alpha  occ. eigenvalues --   -0.81625  -0.80783  -0.80690  -0.80149  -0.78970
 Alpha  occ. eigenvalues --   -0.78017  -0.76525  -0.76472  -0.75895  -0.75407
 Alpha  occ. eigenvalues --   -0.75118  -0.74989  -0.74556  -0.73860  -0.72847
 Alpha  occ. eigenvalues --   -0.72231  -0.70591  -0.69514  -0.68931  -0.67862
 Alpha  occ. eigenvalues --   -0.67268  -0.66916  -0.66332  -0.65264  -0.64760
 Alpha  occ. eigenvalues --   -0.64436  -0.63237  -0.63084  -0.62474  -0.61848
 Alpha  occ. eigenvalues --   -0.61702  -0.61403  -0.60085  -0.60048  -0.59169
 Alpha  occ. eigenvalues --   -0.58506  -0.58051  -0.57456  -0.57148  -0.56846
 Alpha  occ. eigenvalues --   -0.56615  -0.56003  -0.55583  -0.55130  -0.54836
 Alpha  occ. eigenvalues --   -0.54366  -0.53962  -0.53749  -0.53495  -0.53106
 Alpha  occ. eigenvalues --   -0.52812  -0.52461  -0.52360  -0.52147  -0.51719
 Alpha  occ. eigenvalues --   -0.51651  -0.51557  -0.51195  -0.50827  -0.50610
 Alpha  occ. eigenvalues --   -0.50418  -0.50163  -0.49829  -0.49528  -0.49374
 Alpha  occ. eigenvalues --   -0.49160  -0.48929  -0.48710  -0.48552  -0.47972
 Alpha  occ. eigenvalues --   -0.47848  -0.47620  -0.47178  -0.47065  -0.46992
 Alpha  occ. eigenvalues --   -0.46694  -0.46376  -0.46231  -0.45924  -0.45836
 Alpha  occ. eigenvalues --   -0.45601  -0.45399  -0.45373  -0.45197  -0.45021
 Alpha  occ. eigenvalues --   -0.44417  -0.44310  -0.44107  -0.44022  -0.43882
 Alpha  occ. eigenvalues --   -0.43778  -0.43679  -0.43482  -0.43459  -0.43271
 Alpha  occ. eigenvalues --   -0.43222  -0.43106  -0.42633  -0.42482  -0.42373
 Alpha  occ. eigenvalues --   -0.42169  -0.42136  -0.41824  -0.41599  -0.41505
 Alpha  occ. eigenvalues --   -0.41236  -0.40988  -0.40801  -0.40695  -0.40117
 Alpha  occ. eigenvalues --   -0.39828  -0.39640  -0.39387  -0.39140  -0.39103
 Alpha  occ. eigenvalues --   -0.39058  -0.38907  -0.38150  -0.37895  -0.37736
 Alpha  occ. eigenvalues --   -0.37306  -0.37186  -0.37073  -0.36895  -0.36713
 Alpha  occ. eigenvalues --   -0.36443  -0.36380  -0.36013  -0.35671  -0.35414
 Alpha  occ. eigenvalues --   -0.35361  -0.34926  -0.34628  -0.34035  -0.33528
 Alpha  occ. eigenvalues --   -0.33304  -0.32409  -0.32364  -0.31877  -0.31202
 Alpha  occ. eigenvalues --   -0.29180  -0.28696  -0.28329  -0.27980  -0.23197
 Alpha  occ. eigenvalues --   -0.21172
 Alpha virt. eigenvalues --   -0.07220  -0.02426   0.01572   0.03980   0.05143
 Alpha virt. eigenvalues --    0.06111   0.06166   0.06702   0.06780   0.07479
 Alpha virt. eigenvalues --    0.08251   0.10189   0.10991   0.11338   0.11808

 Mulliken charges:
               1
     1  Mg   0.814090
     2  C    0.086046
     3  C   -0.190069
     4  C   -0.195040
     5  C   -0.190763
     6  N   -0.631959
     7  C    0.293885
     8  C   -0.144873
     9  C   -0.132968
    10  C    0.324890
    11  C   -0.304975
    12  C   -0.207426
    13  C   -0.276608
    14  C    0.625881
    15  O   -0.472672
    16  O   -0.460106
    17  N   -0.705433
    18  C    0.295493
    19  C   -0.011832
    20  C   -0.004165
    21  C    0.339383
    22  C   -0.373529
    23  C   -0.036599
    24  C   -0.269120
    25  N   -0.707928
    26  C    0.335484
    27  C    0.028695
    28  C    0.031644
    29  C    0.290623
    30  C   -0.356872
    31  C   -0.239821
    32  C   -0.307874
    33  N   -0.729511
    34  C    0.249549
    35  C    0.081909
    36  C   -0.016407
    37  C    0.308317
    38  C   -0.391307
    39  C    0.341620
    40  O   -0.498773
    41  C   -0.300624
    42  C    0.630479
    43  O   -0.479298
    44  O   -0.443231
    45  C   -0.075704
    46  C   -0.000205
    47  C   -0.142217
    48  C    0.154460
    49  C   -0.377536
    50  C   -0.207783
    51  C   -0.166512
    52  C   -0.186918
    53  C   -0.057635
    54  C   -0.321421
    55  C   -0.149776
    56  C   -0.188979
    57  C   -0.175241
    58  C   -0.048166
    59  C   -0.314568
    60  C   -0.168009
    61  C   -0.159261
    62  C   -0.140061
    63  C   -0.069618
    64  C   -0.308887
    65  C   -0.310838
    66  H    0.071899
    67  H    0.095856
    68  H    0.097147
    69  H    0.127307
    70  H    0.114421
    71  H    0.108804
    72  H    0.118200
    73  H    0.121543
    74  H    0.095674
    75  H    0.121396
    76  H    0.133225
    77  H    0.137601
    78  H    0.126279
    79  H    0.123410
    80  H    0.117085
    81  H    0.091446
    82  H    0.111051
    83  H    0.106312
    84  H    0.097218
    85  H    0.124607
    86  H    0.104053
    87  H    0.113165
    88  H    0.093408
    89  H    0.112389
    90  H    0.121574
    91  H    0.090161
    92  H    0.119211
    93  H    0.161619
    94  H    0.112732
    95  H    0.162535
    96  H    0.109726
    97  H    0.125709
    98  H    0.118614
    99  H    0.093793
   100  H    0.132985
   101  H    0.097140
   102  H    0.119014
   103  H    0.115820
   104  H    0.112215
   105  H    0.060945
   106  H    0.111252
   107  H    0.112324
   108  H    0.090387
   109  H    0.092086
   110  H    0.073360
   111  H    0.082126
   112  H    0.089542
   113  H    0.107789
   114  H    0.092956
   115  H    0.081550
   116  H    0.079121
   117  H    0.091774
   118  H    0.079137
   119  H    0.083633
   120  H    0.107367
   121  H    0.096724
   122  H    0.108250
   123  H    0.101546
   124  H    0.093573
   125  H    0.095914
   126  H    0.057327
   127  H    0.106927
   128  H    0.073794
   129  H    0.085431
   130  H    0.031082
   131  H    0.094470
   132  H    0.066339
   133  H    0.109452
   134  H    0.101334
   135  H    0.100237
   136  H    0.102679
   137  H    0.099897
 Sum of Mulliken charges =   0.00000

 Dipole moment (field-independent basis, Debye):
    X=              2.0469    Y=              5.2683    Z=             -0.1658  Tot=              5.6544
 Quadrupole moment (field-independent basis, Debye-Ang):
   XX=           -345.7356   YY=           -396.4638   ZZ=           -401.7180
   XY=            -38.2713   XZ=              6.6090   YZ=              1.6776

 Normal termination of Gaussian 09 at Sun Jun 30 04:42:31 2019.
