 Gaussian 09, Revision D.01,
 Gaussian 09:  ES64L-G09RevD.01 24-Apr-2013

 -------------------------------------
 # td=(NStates=1) CAM-B3LYP/6-31G(d,p)
 -------------------------------------

 --
 TD
 --
 Symbolic Z-matrix:
 Charge =  0 Multiplicity = 1

                         Standard orientation:
 ---------------------------------------------------------------------
 Center     Atomic      Atomic             Coordinates (Angstroms)
 Number     Number       Type             X           Y           Z
 ---------------------------------------------------------------------
      1         12           0       -7.162121    0.623689    0.119338
      2          6           0       -4.800450   -2.004511    0.450768
      3          6           0       -4.783218    2.800688    1.124975
      4          6           0       -9.396946    3.124222   -0.353300
      5          6           0       -9.495093   -1.698058   -0.800358
      6          7           0       -5.113686    0.427252    0.596478
      7          6           0       -4.372292   -0.713315    0.758021
      8          6           0       -2.889926   -0.447514    1.172752
      9          6           0       -2.995510    1.071562    1.580166
     10          6           0       -4.398828    1.504749    1.093103
     11          6           0       -2.965992    1.196290    3.115969
     12          6           0       -1.867342   -0.631234   -0.016006
     13          6           0       -0.413234   -0.474014    0.603824
     14          6           0        0.507623   -0.703792   -0.514666
     15          8           0        0.299939   -1.013331   -1.611203
     16          8           0        1.768549   -0.336057   -0.062600
     17          7           0       -7.024542    2.583505    0.324844
     18          6           0       -6.062442    3.314088    0.886093
     19          6           0       -6.418498    4.703273    0.974564
     20          6           0       -7.754509    4.703916    0.572509
     21          6           0       -8.134424    3.408156    0.150615
     22          6           0       -5.473484    5.841346    1.325874
     23          6           0       -8.543679    5.995246    0.481965
     24          6           0       -8.188801    7.250553    0.078883
     25          7           0       -9.160785    0.696925   -0.353770
     26          6           0       -9.914451    1.844354   -0.594080
     27          6           0      -11.220648    1.552123   -1.182658
     28          6           0      -11.281926    0.137558   -1.302867
     29          6           0       -9.955336   -0.344197   -0.850250
     30          6           0      -12.283449    2.452077   -1.380204
     31          6           0      -12.446927   -0.704964   -1.755724
     32          6           0      -12.360986   -0.984609   -3.250496
     33          7           0       -7.284382   -1.377251   -0.174086
     34          6           0       -8.326740   -2.193658   -0.477118
     35          6           0       -7.826101   -3.557183   -0.603248
     36          6           0       -6.531295   -3.538031   -0.255512
     37          6           0       -6.171616   -2.206415    0.110281
     38          6           0       -8.682283   -4.889982   -1.020238
     39          6           0       -5.303347   -4.433497    0.152637
     40          8           0       -5.216759   -5.619247    0.082986
     41          6           0       -4.197746   -3.328907    0.601151
     42          6           0       -3.543288   -3.703127    1.849767
     43          8           0       -3.900044   -3.335670    2.903033
     44          8           0       -2.605465   -4.753015    1.724407
     45          6           0       -2.126285   -5.298765    2.891585
     46          6           0        2.832164   -0.485741   -1.108118
     47          6           0        4.114580   -0.253996   -0.325731
     48          6           0        5.177364    0.425364   -0.797679
     49          6           0        5.161016    1.255165   -2.110692
     50          6           0        6.417225    0.563036   -0.159994
     51          6           0        7.535587   -0.088584   -0.959370
     52          6           0        8.910315   -0.087404   -0.038086
     53          6           0       10.142924   -0.500218   -0.801473
     54          6           0       10.048230   -1.968000   -1.347979
     55          6           0       11.361219   -0.409991    0.134215
     56          6           0       12.709785   -0.596601   -0.643899
     57          6           0       14.009750   -0.208611    0.210139
     58          6           0       15.327229   -0.199817   -0.525551
     59          6           0       15.672564   -1.640652   -1.104570
     60          6           0       16.463046    0.356965    0.459082
     61          6           0       17.845946    0.525655   -0.367495
     62          6           0       18.821715    1.249434    0.647542
     63          6           0       20.269603    1.351518    0.158357
     64          6           0       20.410015    2.106422   -1.086176
     65          6           0       21.051252    1.910983    1.398697
     66          1           0       -3.906277    3.556885    1.550232
     67          1           0      -10.050070    4.076834   -0.553799
     68          1           0      -10.419553   -2.412235   -1.031603
     69          1           0       -2.705510   -0.965523    1.930596
     70          1           0       -2.203793    1.582059    0.981090
     71          1           0       -1.902276    0.918437    3.523012
     72          1           0       -3.060712    2.264520    3.216167
     73          1           0       -3.748087    0.582646    3.537217
     74          1           0       -1.957362   -1.507595   -0.479861
     75          1           0       -2.135133    0.129395   -0.812732
     76          1           0       -0.327372    0.504930    1.015425
     77          1           0       -0.117112   -1.285717    1.419993
     78          1           0       -4.771799    6.028144    0.310727
     79          1           0       -6.207030    6.883810    1.450556
     80          1           0       -4.831263    5.523436    2.167113
     81          1           0       -9.593115    5.882036    0.925091
     82          1           0       -8.903335    7.910718    0.242763
     83          1           0       -7.305428    7.418866   -0.280024
     84          1           0      -12.302271    3.277216   -2.113134
     85          1           0      -13.402599    1.995586   -1.600970
     86          1           0      -12.473175    3.029053   -0.484714
     87          1           0      -12.469231   -1.648787   -1.251018
     88          1           0      -13.300263   -0.218597   -1.722438
     89          1           0      -13.144370   -1.674118   -3.552546
     90          1           0      -12.447314   -0.071426   -3.883494
     91          1           0      -11.354260   -1.406735   -3.571297
     92          1           0       -9.316729   -4.861337   -1.931158
     93          1           0       -7.829351   -5.626986   -1.041453
     94          1           0       -9.412139   -5.048166    0.035619
     95          1           0       -3.076638   -3.396838   -0.029093
     96          1           0       -1.679792   -4.479071    3.360134
     97          1           0       -2.914815   -5.530821    3.655484
     98          1           0       -1.603225   -6.169597    2.621826
     99          1           0        2.762085   -1.567822   -1.463024
    100          1           0        2.659287    0.152792   -2.039735
    101          1           0        4.298848   -1.019913    0.496712
    102          1           0        4.162811    1.509457   -2.455666
    103          1           0        5.596470    2.330393   -2.283083
    104          1           0        5.640655    0.616242   -2.973963
    105          1           0        6.586913    1.630449   -0.050438
    106          1           0        6.127177    0.026533    0.782564
    107          1           0        7.453211   -1.014004   -1.244327
    108          1           0        7.604739    0.535471   -1.790829
    109          1           0        8.942355    0.905639    0.190886
    110          1           0        8.678280   -0.546961    0.735382
    111          1           0       10.209665    0.061693   -1.701292
    112          1           0        9.222967   -2.152694   -2.037000
    113          1           0       11.078906   -2.154139   -1.968658
    114          1           0        9.934343   -2.801767   -0.719926
    115          1           0       11.172888    0.488289    0.538369
    116          1           0       11.207814   -1.166171    0.858488
    117          1           0       13.022686   -1.511186   -1.057220
    118          1           0       12.692271    0.000975   -1.585779
    119          1           0       13.922124    0.682874    0.567397
    120          1           0       14.024816   -0.911488    1.036323
    121          1           0       15.270069    0.475280   -1.297367
    122          1           0       15.957190   -2.482793   -0.333209
    123          1           0       14.880246   -1.909027   -1.788465
    124          1           0       16.635592   -1.531369   -1.696170
    125          1           0       16.035547    1.364873    0.966184
    126          1           0       16.894925   -0.472744    1.201262
    127          1           0       18.233861   -0.403251   -0.545514
    128          1           0       17.817441    1.073284   -1.345174
    129          1           0       18.560686    2.281918    0.842561
    130          1           0       18.933607    0.747510    1.731319
    131          1           0       20.549106    0.316994    0.077138
    132          1           0       20.167665    3.271059   -0.815419
    133          1           0       21.658790    2.224436   -1.352528
    134          1           0       19.946693    1.973182   -2.172872
    135          1           0       20.847290    1.379622    2.402695
    136          1           0       22.110532    1.926132    1.120400
    137          1           0       20.657952    2.974385    1.586994
 ---------------------------------------------------------------------

 SCF Done:  E(RCAM-B3LYP) =  -2932.61431873     A.U. after   15 cycles

 Excitation energies and oscillator strengths:

 Excited State   1:      Singlet-A      2.1023 eV  589.75 nm  f=0.2037  <S**2>=0.000
     240 -> 243        0.26306
     241 -> 242        0.64383
 This state for optimization and/or second-order correction.
 Total Energy, E(TD-HF/TD-KS) =  -2932.53706040
 Copying the excited state density for this state as the 1-particle RhoCI density.

 The electronic state is 1-A.
 Alpha  occ. eigenvalues --  -46.83371 -19.25044 -19.24385 -19.23156 -19.21710
 Alpha  occ. eigenvalues --  -19.21654 -14.41762 -14.39642 -14.39251 -14.39249
 Alpha  occ. eigenvalues --  -10.39210 -10.38210 -10.38020 -10.32313 -10.31388
 Alpha  occ. eigenvalues --  -10.30788 -10.30308 -10.29885 -10.29558 -10.29433
 Alpha  occ. eigenvalues --  -10.29215 -10.29177 -10.29050 -10.29039 -10.28731
 Alpha  occ. eigenvalues --  -10.28617 -10.28455 -10.28344 -10.28330 -10.28058
 Alpha  occ. eigenvalues --  -10.27987 -10.27643 -10.27594 -10.27484 -10.27196
 Alpha  occ. eigenvalues --  -10.27167 -10.26953 -10.26783 -10.26772 -10.26562
 Alpha  occ. eigenvalues --  -10.26545 -10.26513 -10.26430 -10.26291 -10.26256
 Alpha  occ. eigenvalues --  -10.26235 -10.26104 -10.25908 -10.25758 -10.25541
 Alpha  occ. eigenvalues --  -10.25497 -10.25381 -10.25284 -10.25180 -10.25175
 Alpha  occ. eigenvalues --  -10.25141 -10.25117 -10.25011 -10.24888 -10.24527
 Alpha  occ. eigenvalues --  -10.24305 -10.23979 -10.23976 -10.22727 -10.22691
 Alpha  occ. eigenvalues --   -3.12596  -1.87293  -1.86850  -1.86777  -1.18930
 Alpha  occ. eigenvalues --   -1.18496  -1.14352  -1.10938  -1.09170  -1.04316
 Alpha  occ. eigenvalues --   -1.03602  -1.02609  -1.01084  -0.93237  -0.92469
 Alpha  occ. eigenvalues --   -0.90152  -0.89972  -0.89460  -0.89077  -0.88722
 Alpha  occ. eigenvalues --   -0.88017  -0.87910  -0.87564  -0.86140  -0.85733
 Alpha  occ. eigenvalues --   -0.84857  -0.84507  -0.83896  -0.82975  -0.82298
 Alpha  occ. eigenvalues --   -0.81418  -0.80886  -0.79973  -0.78585  -0.77623
 Alpha  occ. eigenvalues --   -0.77091  -0.76567  -0.76183  -0.76014  -0.75324
 Alpha  occ. eigenvalues --   -0.74554  -0.74298  -0.73788  -0.72873  -0.72061
 Alpha  occ. eigenvalues --   -0.71607  -0.71138  -0.69768  -0.69479  -0.68400
 Alpha  occ. eigenvalues --   -0.67793  -0.67393  -0.65760  -0.65671  -0.64963
 Alpha  occ. eigenvalues --   -0.64702  -0.64123  -0.62730  -0.62082  -0.61890
 Alpha  occ. eigenvalues --   -0.61760  -0.61132  -0.60300  -0.59850  -0.59063
 Alpha  occ. eigenvalues --   -0.58277  -0.58092  -0.57722  -0.57236  -0.56650
 Alpha  occ. eigenvalues --   -0.56355  -0.55957  -0.55529  -0.55261  -0.54839
 Alpha  occ. eigenvalues --   -0.54487  -0.54143  -0.53734  -0.53556  -0.53303
 Alpha  occ. eigenvalues --   -0.53021  -0.52909  -0.52421  -0.52072  -0.51986
 Alpha  occ. eigenvalues --   -0.51762  -0.51410  -0.51163  -0.50661  -0.50518
 Alpha  occ. eigenvalues --   -0.50252  -0.50021  -0.49849  -0.49824  -0.49319
 Alpha  occ. eigenvalues --   -0.49226  -0.49075  -0.48795  -0.48517  -0.48256
 Alpha  occ. eigenvalues --   -0.48019  -0.47952  -0.47429  -0.47230  -0.46828
 Alpha  occ. eigenvalues --   -0.46594  -0.46371  -0.46257  -0.46028  -0.45871
 Alpha  occ. eigenvalues --   -0.45482  -0.45184  -0.45125  -0.44965  -0.44881
 Alpha  occ. eigenvalues --   -0.44687  -0.44570  -0.44226  -0.44154  -0.43902
 Alpha  occ. eigenvalues --   -0.43866  -0.43637  -0.43552  -0.43375  -0.43311
 Alpha  occ. eigenvalues --   -0.43119  -0.42942  -0.42860  -0.42547  -0.42393
 Alpha  occ. eigenvalues --   -0.42146  -0.42021  -0.42008  -0.41618  -0.41509
 Alpha  occ. eigenvalues --   -0.41274  -0.40985  -0.40761  -0.40704  -0.40594
 Alpha  occ. eigenvalues --   -0.40448  -0.40169  -0.40040  -0.39999  -0.39487
 Alpha  occ. eigenvalues --   -0.39395  -0.38671  -0.38473  -0.38315  -0.37901
 Alpha  occ. eigenvalues --   -0.37464  -0.37366  -0.37260  -0.37245  -0.36834
 Alpha  occ. eigenvalues --   -0.36647  -0.36257  -0.36107  -0.35921  -0.35679
 Alpha  occ. eigenvalues --   -0.34915  -0.34627  -0.34432  -0.34243  -0.34051
 Alpha  occ. eigenvalues --   -0.33481  -0.32249  -0.31929  -0.31467  -0.31073
 Alpha  occ. eigenvalues --   -0.29863  -0.29313  -0.27964  -0.27454  -0.23367
 Alpha  occ. eigenvalues --   -0.21282
 Alpha virt. eigenvalues --   -0.06041  -0.03325   0.01568   0.04172   0.05495
 Alpha virt. eigenvalues --    0.05719   0.05941   0.06617   0.06778   0.07211
 Alpha virt. eigenvalues --    0.07901   0.10188   0.10893   0.11330   0.11604

 Mulliken charges:
               1
     1  Mg   0.806325
     2  C    0.098583
     3  C   -0.213866
     4  C   -0.181030
     5  C   -0.207576
     6  N   -0.632039
     7  C    0.267930
     8  C   -0.104435
     9  C   -0.176954
    10  C    0.346210
    11  C   -0.292434
    12  C   -0.184709
    13  C   -0.271489
    14  C    0.617059
    15  O   -0.435953
    16  O   -0.516898
    17  N   -0.727172
    18  C    0.311394
    19  C    0.042468
    20  C   -0.037953
    21  C    0.345817
    22  C   -0.349389
    23  C   -0.124659
    24  C   -0.193940
    25  N   -0.672302
    26  C    0.282225
    27  C    0.076647
    28  C    0.016208
    29  C    0.261632
    30  C   -0.424023
    31  C   -0.208619
    32  C   -0.319690
    33  N   -0.722614
    34  C    0.351062
    35  C   -0.029076
    36  C   -0.026500
    37  C    0.261314
    38  C   -0.341569
    39  C    0.429498
    40  O   -0.409898
    41  C   -0.327621
    42  C    0.602319
    43  O   -0.433344
    44  O   -0.478638
    45  C   -0.069371
    46  C    0.005164
    47  C   -0.136800
    48  C    0.140264
    49  C   -0.377799
    50  C   -0.224781
    51  C   -0.198174
    52  C   -0.172515
    53  C   -0.071197
    54  C   -0.322948
    55  C   -0.148823
    56  C   -0.209116
    57  C   -0.160063
    58  C   -0.060546
    59  C   -0.321596
    60  C   -0.166718
    61  C   -0.195498
    62  C   -0.160698
    63  C   -0.053456
    64  C   -0.280400
    65  C   -0.308457
    66  H    0.074631
    67  H    0.105911
    68  H    0.085833
    69  H    0.100609
    70  H    0.103018
    71  H    0.092731
    72  H    0.111198
    73  H    0.133807
    74  H    0.127132
    75  H    0.118149
    76  H    0.151985
    77  H    0.133970
    78  H    0.100773
    79  H    0.099731
    80  H    0.122133
    81  H    0.085570
    82  H    0.100604
    83  H    0.100973
    84  H    0.124047
    85  H    0.093061
    86  H    0.129519
    87  H    0.109982
    88  H    0.112978
    89  H    0.101152
    90  H    0.106996
    91  H    0.101724
    92  H    0.132453
    93  H    0.148454
    94  H    0.096518
    95  H    0.130358
    96  H    0.115166
    97  H    0.112643
    98  H    0.127932
    99  H    0.121550
   100  H    0.123312
   101  H    0.090328
   102  H    0.110170
   103  H    0.102350
   104  H    0.112617
   105  H    0.112778
   106  H    0.084186
   107  H    0.108445
   108  H    0.104219
   109  H    0.095125
   110  H    0.099720
   111  H    0.091118
   112  H    0.093370
   113  H    0.074425
   114  H    0.106595
   115  H    0.097598
   116  H    0.099876
   117  H    0.106377
   118  H    0.076714
   119  H    0.089280
   120  H    0.087965
   121  H    0.095500
   122  H    0.092934
   123  H    0.107559
   124  H    0.091987
   125  H    0.079128
   126  H    0.084301
   127  H    0.111330
   128  H    0.090513
   129  H    0.087436
   130  H    0.065242
   131  H    0.093346
   132  H    0.076638
   133  H    0.057275
   134  H    0.111987
   135  H    0.101136
   136  H    0.102925
   137  H    0.092134
 Sum of Mulliken charges =   0.00000

 Dipole moment (field-independent basis, Debye):
    X=              1.1626    Y=              3.3301    Z=             -0.0512  Tot=              3.5276
 Quadrupole moment (field-independent basis, Debye-Ang):
   XX=           -348.3284   YY=           -394.1260   ZZ=           -398.8213
   XY=            -18.2572   XZ=              6.4529   YZ=             -4.1024

 Normal termination of Gaussian 09 at Fri Jun 28 21:42:16 2019.
