 Gaussian 09, Revision D.01,
 Gaussian 09:  ES64L-G09RevD.01 24-Apr-2013

 -------------------------------------
 # td=(NStates=1) CAM-B3LYP/6-31G(d,p)
 -------------------------------------

 --
 TD
 --
 Symbolic Z-matrix:
 Charge =  0 Multiplicity = 1

                         Standard orientation:
 ---------------------------------------------------------------------
 Center     Atomic      Atomic             Coordinates (Angstroms)
 Number     Number       Type             X           Y           Z
 ---------------------------------------------------------------------
      1         12           0       -7.180403    0.596817    0.098767
      2          6           0       -4.847464   -1.914739    0.611317
      3          6           0       -4.783964    2.863024    1.061218
      4          6           0       -9.308015    3.097500   -0.390174
      5          6           0       -9.455912   -1.744409   -0.957177
      6          7           0       -5.118805    0.442924    0.861479
      7          6           0       -4.366745   -0.732238    0.911884
      8          6           0       -2.843913   -0.319982    1.388521
      9          6           0       -3.016823    1.123359    1.784192
     10          6           0       -4.445810    1.516685    1.176009
     11          6           0       -3.074305    1.264993    3.262052
     12          6           0       -1.954773   -0.541163    0.170219
     13          6           0       -0.457026   -0.502674    0.534638
     14          6           0        0.510225   -0.727759   -0.523055
     15          8           0        0.176952   -1.024530   -1.636527
     16          8           0        1.758239   -0.440913   -0.227609
     17          7           0       -7.116115    2.553215    0.372036
     18          6           0       -6.113753    3.349976    0.821130
     19          6           0       -6.418561    4.826038    0.776778
     20          6           0       -7.720612    4.920149    0.413164
     21          6           0       -8.126874    3.498559    0.023323
     22          6           0       -5.541040    5.832947    1.302245
     23          6           0       -8.595301    6.053316    0.327932
     24          6           0       -8.251033    7.289469    0.253865
     25          7           0       -9.071707    0.702586   -0.550362
     26          6           0       -9.818355    1.848775   -0.738654
     27          6           0      -11.219866    1.482053   -1.154655
     28          6           0      -11.142059    0.184583   -1.383286
     29          6           0       -9.841673   -0.412833   -0.909868
     30          6           0      -12.280629    2.555808   -1.527783
     31          6           0      -12.246437   -0.713899   -1.921450
     32          6           0      -12.196005   -1.211136   -3.334366
     33          7           0       -7.218536   -1.341100   -0.081347
     34          6           0       -8.261056   -2.233168   -0.546515
     35          6           0       -7.769967   -3.740502   -0.435952
     36          6           0       -6.456247   -3.534748   -0.072072
     37          6           0       -6.191207   -2.124456    0.181133
     38          6           0       -8.694243   -4.778440   -0.777586
     39          6           0       -5.306887   -4.259649    0.149526
     40          8           0       -5.145485   -5.487270    0.120916
     41          6           0       -4.146917   -3.330710    0.585552
     42          6           0       -3.574191   -3.614621    1.979425
     43          8           0       -3.752497   -3.092765    3.029159
     44          8           0       -2.844369   -4.764913    1.846252
     45          6           0       -2.283089   -5.366717    3.001931
     46          6           0        2.756718   -0.690069   -1.233589
     47          6           0        4.119860   -0.554290   -0.496496
     48          6           0        5.140215    0.185077   -0.907343
     49          6           0        5.102970    1.152222   -2.109522
     50          6           0        6.406013    0.187002   -0.220833
     51          6           0        7.649390   -0.303365   -1.031624
     52          6           0        8.881827   -0.294912   -0.206838
     53          6           0       10.173803   -0.677178   -0.993407
     54          6           0       10.301373   -2.184340   -1.340638
     55          6           0       11.413161   -0.318727   -0.163349
     56          6           0       12.716641   -0.497674   -0.910159
     57          6           0       13.927967   -0.035944    0.062556
     58          6           0       15.383972   -0.031341   -0.625276
     59          6           0       15.758159   -1.456982   -1.157175
     60          6           0       16.385489    0.519150    0.379804
     61          6           0       17.821365    0.592038   -0.163086
     62          6           0       18.722416    1.351998    0.770033
     63          6           0       20.172130    1.342159    0.414182
     64          6           0       20.441231    2.149326   -0.854683
     65          6           0       20.922289    1.989367    1.505654
     66          1           0       -3.962171    3.513319    1.325905
     67          1           0      -10.047753    3.974335   -0.581383
     68          1           0      -10.345824   -2.337267   -1.277325
     69          1           0       -2.564319   -0.924775    2.266646
     70          1           0       -2.395788    1.928296    1.596055
     71          1           0       -1.972576    1.212181    3.743655
     72          1           0       -3.451918    2.263018    3.782377
     73          1           0       -3.686072    0.472858    3.708050
     74          1           0       -2.224827   -1.507559   -0.260007
     75          1           0       -2.106287    0.299616   -0.553811
     76          1           0       -0.200664    0.390724    1.026686
     77          1           0       -0.255541   -1.379914    1.107949
     78          1           0       -4.716324    6.031463    0.534546
     79          1           0       -6.017346    6.862736    1.535830
     80          1           0       -4.857869    5.480587    2.142966
     81          1           0       -9.686822    5.832469    0.551204
     82          1           0       -9.076509    8.062038    0.259998
     83          1           0       -7.389208    7.615102   -0.049826
     84          1           0      -12.098096    3.037054   -2.471501
     85          1           0      -13.179157    1.999172   -1.902633
     86          1           0      -12.420964    3.034534   -0.686676
     87          1           0      -12.030961   -1.566041   -1.062057
     88          1           0      -13.130333   -0.309473   -1.800894
     89          1           0      -12.904149   -2.175956   -3.399865
     90          1           0      -12.631260   -0.448335   -4.097733
     91          1           0      -11.210838   -1.553083   -3.566251
     92          1           0       -8.928426   -4.841984   -1.675117
     93          1           0       -8.016018   -5.773265   -0.648819
     94          1           0       -9.740940   -4.923567   -0.148456
     95          1           0       -3.383484   -3.219371   -0.158593
     96          1           0       -1.512529   -4.784003    3.492728
     97          1           0       -3.007836   -5.742745    3.545736
     98          1           0       -1.604872   -6.024776    2.570393
     99          1           0        2.562986   -1.852277   -1.788403
    100          1           0        2.543903    0.140680   -2.124111
    101          1           0        4.307596   -1.058022    0.563057
    102          1           0        4.152325    1.454619   -2.591459
    103          1           0        5.555885    2.221529   -1.633546
    104          1           0        5.821958    0.842708   -2.829724
    105          1           0        6.828230    1.232359   -0.002977
    106          1           0        6.264342   -0.249324    0.789238
    107          1           0        7.271596   -1.355665   -1.344532
    108          1           0        7.777702    0.248375   -1.891470
    109          1           0        8.971198    0.798170    0.183991
    110          1           0        8.963743   -0.927641    0.514864
    111          1           0       10.001712    0.042955   -1.936183
    112          1           0        9.370649   -2.627318   -1.877100
    113          1           0       11.032732   -2.473022   -2.172719
    114          1           0       10.515238   -2.698457   -0.408854
    115          1           0       11.358212    0.684174    0.444659
    116          1           0       11.360622   -1.057203    0.543063
    117          1           0       12.787219   -1.441578   -1.199607
    118          1           0       12.663109   -0.031830   -1.904557
    119          1           0       13.694210    0.967092    0.456702
    120          1           0       13.909585   -0.698422    0.925833
    121          1           0       15.329050    0.496702   -1.472678
    122          1           0       15.629732   -2.289759   -0.420092
    123          1           0       15.150602   -1.636491   -1.937731
    124          1           0       16.746650   -1.482584   -1.635093
    125          1           0       15.938824    1.534699    0.798893
    126          1           0       16.402664   -0.235398    1.218589
    127          1           0       18.085179   -0.413217   -0.691722
    128          1           0       17.628636    1.205605   -1.045508
    129          1           0       18.508689    2.375584    0.974036
    130          1           0       18.680921    0.746529    1.807999
    131          1           0       20.450034    0.351078    0.126130
    132          1           0       20.141579    3.136806   -0.875462
    133          1           0       21.665801    2.371830   -1.274367
    134          1           0       19.975989    1.642294   -1.720229
    135          1           0       20.721635    1.284118    2.413015
    136          1           0       21.977943    2.114163    1.315359
    137          1           0       20.568483    2.995233    1.827523
 ---------------------------------------------------------------------

 SCF Done:  E(RCAM-B3LYP) =  -2932.66229929     A.U. after   17 cycles

 Excitation energies and oscillator strengths:

 Excited State   1:      Singlet-A      2.0900 eV  593.21 nm  f=0.2916  <S**2>=0.000
     240 -> 243       -0.22798
     241 -> 242        0.66189
 This state for optimization and/or second-order correction.
 Total Energy, E(TD-HF/TD-KS) =  -2932.58549177
 Copying the excited state density for this state as the 1-particle RhoCI density.

 The electronic state is 1-A.
 Alpha  occ. eigenvalues --  -46.83216 -19.26220 -19.24702 -19.21452 -19.19157
 Alpha  occ. eigenvalues --  -19.19037 -14.40860 -14.40497 -14.39980 -14.39322
 Alpha  occ. eigenvalues --  -10.39147 -10.37614 -10.35302 -10.33781 -10.31151
 Alpha  occ. eigenvalues --  -10.30540 -10.30226 -10.29811 -10.29626 -10.29397
 Alpha  occ. eigenvalues --  -10.29338 -10.29176 -10.28767 -10.28517 -10.28216
 Alpha  occ. eigenvalues --  -10.27772 -10.27753 -10.27605 -10.27539 -10.27441
 Alpha  occ. eigenvalues --  -10.27329 -10.27171 -10.27147 -10.27073 -10.27015
 Alpha  occ. eigenvalues --  -10.26671 -10.26657 -10.26528 -10.26479 -10.26472
 Alpha  occ. eigenvalues --  -10.26249 -10.26231 -10.26137 -10.26084 -10.25990
 Alpha  occ. eigenvalues --  -10.25810 -10.25778 -10.25668 -10.25630 -10.25606
 Alpha  occ. eigenvalues --  -10.25539 -10.25416 -10.25393 -10.25371 -10.25324
 Alpha  occ. eigenvalues --  -10.25221 -10.25124 -10.25048 -10.25036 -10.24840
 Alpha  occ. eigenvalues --  -10.24661 -10.24478 -10.24371 -10.24008 -10.23784
 Alpha  occ. eigenvalues --   -3.12618  -1.87292  -1.86878  -1.86816  -1.19372
 Alpha  occ. eigenvalues --   -1.17975  -1.09788  -1.09067  -1.08888  -1.03999
 Alpha  occ. eigenvalues --   -1.02870  -1.02524  -1.00971  -0.92461  -0.91931
 Alpha  occ. eigenvalues --   -0.90981  -0.90878  -0.90480  -0.90131  -0.89220
 Alpha  occ. eigenvalues --   -0.88461  -0.88412  -0.87853  -0.87384  -0.86641
 Alpha  occ. eigenvalues --   -0.85580  -0.85145  -0.84156  -0.83547  -0.82708
 Alpha  occ. eigenvalues --   -0.82299  -0.81389  -0.81123  -0.79942  -0.78748
 Alpha  occ. eigenvalues --   -0.77918  -0.77603  -0.77083  -0.76150  -0.75445
 Alpha  occ. eigenvalues --   -0.75220  -0.75068  -0.74144  -0.73294  -0.72464
 Alpha  occ. eigenvalues --   -0.70766  -0.70375  -0.69257  -0.69017  -0.68756
 Alpha  occ. eigenvalues --   -0.68040  -0.66997  -0.65831  -0.65600  -0.64795
 Alpha  occ. eigenvalues --   -0.63662  -0.63524  -0.63423  -0.62720  -0.62025
 Alpha  occ. eigenvalues --   -0.61267  -0.60531  -0.59920  -0.59758  -0.58969
 Alpha  occ. eigenvalues --   -0.58752  -0.58446  -0.57827  -0.57522  -0.57389
 Alpha  occ. eigenvalues --   -0.56767  -0.55980  -0.55694  -0.55292  -0.54940
 Alpha  occ. eigenvalues --   -0.54248  -0.54008  -0.53877  -0.53645  -0.53619
 Alpha  occ. eigenvalues --   -0.53405  -0.53282  -0.52736  -0.52216  -0.51976
 Alpha  occ. eigenvalues --   -0.51738  -0.51542  -0.51260  -0.50926  -0.50621
 Alpha  occ. eigenvalues --   -0.50462  -0.50008  -0.49717  -0.49588  -0.49499
 Alpha  occ. eigenvalues --   -0.49290  -0.48978  -0.48813  -0.48564  -0.48489
 Alpha  occ. eigenvalues --   -0.48212  -0.47962  -0.47623  -0.47355  -0.47112
 Alpha  occ. eigenvalues --   -0.46997  -0.46799  -0.46556  -0.46325  -0.45990
 Alpha  occ. eigenvalues --   -0.45920  -0.45689  -0.45374  -0.45138  -0.45029
 Alpha  occ. eigenvalues --   -0.44890  -0.44701  -0.44472  -0.44200  -0.44191
 Alpha  occ. eigenvalues --   -0.44007  -0.43838  -0.43392  -0.43269  -0.43186
 Alpha  occ. eigenvalues --   -0.42915  -0.42692  -0.42632  -0.42241  -0.41952
 Alpha  occ. eigenvalues --   -0.41751  -0.41488  -0.41450  -0.41043  -0.40909
 Alpha  occ. eigenvalues --   -0.40879  -0.40535  -0.40415  -0.40253  -0.40171
 Alpha  occ. eigenvalues --   -0.39955  -0.39846  -0.39795  -0.39705  -0.39398
 Alpha  occ. eigenvalues --   -0.39152  -0.39057  -0.38554  -0.38016  -0.37876
 Alpha  occ. eigenvalues --   -0.37395  -0.37353  -0.37205  -0.37099  -0.36654
 Alpha  occ. eigenvalues --   -0.36524  -0.36406  -0.36217  -0.35867  -0.35656
 Alpha  occ. eigenvalues --   -0.35383  -0.35020  -0.34760  -0.33879  -0.33299
 Alpha  occ. eigenvalues --   -0.32777  -0.32459  -0.32307  -0.31226  -0.30364
 Alpha  occ. eigenvalues --   -0.29573  -0.29546  -0.28951  -0.28372  -0.23588
 Alpha  occ. eigenvalues --   -0.20592
 Alpha virt. eigenvalues --   -0.05746  -0.02532   0.01456   0.04140   0.05979
 Alpha virt. eigenvalues --    0.06266   0.06568   0.07223   0.07621   0.08335
 Alpha virt. eigenvalues --    0.08567   0.10927   0.11356   0.11627   0.12043

 Mulliken charges:
               1
     1  Mg   0.821896
     2  C    0.032984
     3  C   -0.209199
     4  C   -0.213000
     5  C   -0.174766
     6  N   -0.633336
     7  C    0.245044
     8  C   -0.142537
     9  C   -0.118772
    10  C    0.358447
    11  C   -0.314757
    12  C   -0.158098
    13  C   -0.256720
    14  C    0.583071
    15  O   -0.479026
    16  O   -0.453648
    17  N   -0.679977
    18  C    0.309667
    19  C    0.054311
    20  C    0.050061
    21  C    0.292907
    22  C   -0.408114
    23  C   -0.062944
    24  C   -0.240001
    25  N   -0.705492
    26  C    0.283635
    27  C   -0.013287
    28  C    0.009053
    29  C    0.283767
    30  C   -0.342747
    31  C   -0.216951
    32  C   -0.298001
    33  N   -0.733325
    34  C    0.207616
    35  C    0.105246
    36  C    0.038940
    37  C    0.359392
    38  C   -0.387323
    39  C    0.310553
    40  O   -0.482654
    41  C   -0.295583
    42  C    0.618044
    43  O   -0.445605
    44  O   -0.462668
    45  C   -0.068336
    46  C    0.022149
    47  C   -0.155458
    48  C    0.171375
    49  C   -0.354961
    50  C   -0.239107
    51  C   -0.174457
    52  C   -0.141250
    53  C   -0.077038
    54  C   -0.322205
    55  C   -0.167817
    56  C   -0.183179
    57  C   -0.186898
    58  C   -0.064451
    59  C   -0.323988
    60  C   -0.157461
    61  C   -0.193132
    62  C   -0.142676
    63  C   -0.053955
    64  C   -0.297451
    65  C   -0.295563
    66  H    0.071785
    67  H    0.075724
    68  H    0.097208
    69  H    0.128603
    70  H    0.099284
    71  H    0.082322
    72  H    0.094127
    73  H    0.129649
    74  H    0.112184
    75  H    0.116354
    76  H    0.133848
    77  H    0.136009
    78  H    0.120031
    79  H    0.119558
    80  H    0.123696
    81  H    0.098385
    82  H    0.095151
    83  H    0.105659
    84  H    0.133776
    85  H    0.101494
    86  H    0.133590
    87  H    0.078697
    88  H    0.103725
    89  H    0.087787
    90  H    0.100969
    91  H    0.118134
    92  H    0.151879
    93  H    0.127019
    94  H    0.116220
    95  H    0.172396
    96  H    0.109131
    97  H    0.136362
    98  H    0.126260
    99  H    0.106912
   100  H    0.111837
   101  H    0.087626
   102  H    0.115572
   103  H    0.081738
   104  H    0.130335
   105  H    0.084191
   106  H    0.096096
   107  H    0.085936
   108  H    0.106501
   109  H    0.078232
   110  H    0.096972
   111  H    0.053645
   112  H    0.094978
   113  H    0.108123
   114  H    0.109643
   115  H    0.073630
   116  H    0.096607
   117  H    0.108008
   118  H    0.084702
   119  H    0.088832
   120  H    0.094165
   121  H    0.094473
   122  H    0.097235
   123  H    0.112180
   124  H    0.093585
   125  H    0.074051
   126  H    0.081912
   127  H    0.093628
   128  H    0.095661
   129  H    0.101057
   130  H    0.067076
   131  H    0.097280
   132  H    0.109944
   133  H    0.043657
   134  H    0.096282
   135  H    0.079023
   136  H    0.103352
   137  H    0.098067
 Sum of Mulliken charges =   0.00000

 Dipole moment (field-independent basis, Debye):
    X=              0.8621    Y=              4.6230    Z=             -0.1979  Tot=              4.7069
 Quadrupole moment (field-independent basis, Debye-Ang):
   XX=           -358.4509   YY=           -386.2464   ZZ=           -398.2124
   XY=            -29.2855   XZ=              9.4633   YZ=             -1.9908

 Normal termination of Gaussian 09 at Fri Jun 28 01:09:22 2019.
