 Gaussian 09, Revision D.01,
 Gaussian 09:  ES64L-G09RevD.01 24-Apr-2013

 -------------------------------------
 # td=(NStates=1) CAM-B3LYP/6-31G(d,p)
 -------------------------------------

 --
 TD
 --
 Symbolic Z-matrix:
 Charge =  0 Multiplicity = 1

                         Standard orientation:
 ---------------------------------------------------------------------
 Center     Atomic      Atomic             Coordinates (Angstroms)
 Number     Number       Type             X           Y           Z
 ---------------------------------------------------------------------
      1         12           0       -7.159842    0.584533    0.208277
      2          6           0       -4.829006   -1.924589    0.538700
      3          6           0       -4.900017    2.897101    1.086353
      4          6           0       -9.484902    2.930166   -0.288159
      5          6           0       -9.568109   -1.797210   -0.673221
      6          7           0       -5.059474    0.441700    0.688157
      7          6           0       -4.356939   -0.614530    0.908259
      8          6           0       -2.917340   -0.272432    1.300754
      9          6           0       -2.988878    1.131776    1.671536
     10          6           0       -4.437723    1.587073    1.141963
     11          6           0       -2.920197    1.413854    3.143108
     12          6           0       -1.945613   -0.649804    0.190517
     13          6           0       -0.473199   -0.386875    0.416499
     14          6           0        0.491468   -0.640052   -0.646336
     15          8           0        0.221887   -1.031419   -1.730988
     16          8           0        1.763782   -0.281577   -0.307093
     17          7           0       -7.236416    2.556758    0.327162
     18          6           0       -6.175460    3.364129    0.736426
     19          6           0       -6.569330    4.779598    0.789130
     20          6           0       -7.859006    4.796255    0.360325
     21          6           0       -8.235226    3.421209    0.003159
     22          6           0       -5.688541    5.914740    1.133643
     23          6           0       -8.818558    5.906158    0.137311
     24          6           0       -8.525585    7.261049    0.120666
     25          7           0       -9.154672    0.513568   -0.373571
     26          6           0       -9.859922    1.622907   -0.517303
     27          6           0      -11.212583    1.303994   -1.125801
     28          6           0      -11.290448   -0.030235   -1.090762
     29          6           0       -9.966034   -0.526859   -0.649071
     30          6           0      -12.206147    2.362289   -1.495725
     31          6           0      -12.423218   -0.919883   -1.533185
     32          6           0      -12.207379   -1.346800   -2.997152
     33          7           0       -7.229380   -1.435767   -0.079877
     34          6           0       -8.256332   -2.351458   -0.362160
     35          6           0       -7.731729   -3.643773   -0.428353
     36          6           0       -6.431588   -3.581109    0.009745
     37          6           0       -6.203116   -2.197926    0.156181
     38          6           0       -8.494291   -4.787186   -0.963695
     39          6           0       -5.170849   -4.252271    0.176037
     40          8           0       -4.991773   -5.503078   -0.001842
     41          6           0       -4.103428   -3.264736    0.508192
     42          6           0       -3.462460   -3.593582    1.815630
     43          8           0       -3.752549   -3.003080    2.890763
     44          8           0       -2.494995   -4.575655    1.659345
     45          6           0       -1.883774   -5.126327    2.820152
     46          6           0        2.830799   -0.560286   -1.299704
     47          6           0        4.222527   -0.279961   -0.588255
     48          6           0        5.163807    0.451367   -1.005855
     49          6           0        5.074298    1.338894   -2.393722
     50          6           0        6.443011    0.503060   -0.314432
     51          6           0        7.695264   -0.087940   -0.974490
     52          6           0        8.941909   -0.080434   -0.155410
     53          6           0       10.231554   -0.607689   -0.893024
     54          6           0       10.028398   -2.003015   -1.339649
     55          6           0       11.436560   -0.339696    0.001866
     56          6           0       12.783126   -0.479200   -0.807211
     57          6           0       14.025949   -0.108475    0.165840
     58          6           0       15.409785   -0.310170   -0.359491
     59          6           0       15.690703   -1.768303   -0.731699
     60          6           0       16.388339    0.250046    0.510865
     61          6           0       17.775925    0.540959   -0.094085
     62          6           0       18.803083    1.231629    0.844038
     63          6           0       20.158098    1.352161    0.264156
     64          6           0       20.254255    2.143534   -0.982679
     65          6           0       21.055970    1.932363    1.326831
     66          1           0       -4.101051    3.665347    1.133627
     67          1           0      -10.357896    3.659789   -0.586983
     68          1           0      -10.414814   -2.515875   -0.868248
     69          1           0       -2.503034   -0.939346    1.870896
     70          1           0       -2.231201    1.567109    1.165525
     71          1           0       -1.911658    1.188654    3.440589
     72          1           0       -3.086255    2.323696    3.544777
     73          1           0       -3.644536    0.884864    3.764451
     74          1           0       -2.048240   -1.641923   -0.050731
     75          1           0       -2.244033   -0.013418   -0.608674
     76          1           0       -0.269005    0.751394    0.727835
     77          1           0       -0.220271   -1.037460    1.287035
     78          1           0       -5.004515    6.030112    0.225419
     79          1           0       -6.282826    6.771982    1.419267
     80          1           0       -4.808838    5.566794    1.994519
     81          1           0       -9.858818    5.584014    0.120579
     82          1           0       -9.175740    8.277521    0.002616
     83          1           0       -7.597380    7.509532   -0.068664
     84          1           0      -11.828436    3.074977   -2.203509
     85          1           0      -13.172012    1.872794   -1.819593
     86          1           0      -12.531575    2.844230   -0.555761
     87          1           0      -12.390438   -1.764502   -0.880050
     88          1           0      -13.531074   -0.420327   -1.374761
     89          1           0      -12.909342   -2.048285   -3.542390
     90          1           0      -12.201001   -0.485362   -3.748996
     91          1           0      -11.195859   -1.905281   -3.063104
     92          1           0       -8.771195   -4.912846   -1.916342
     93          1           0       -7.887479   -5.622570   -0.587626
     94          1           0       -9.519116   -4.967784   -0.576166
     95          1           0       -3.456452   -3.239413   -0.357476
     96          1           0       -1.801208   -4.153408    3.575322
     97          1           0       -2.641714   -5.785767    3.340815
     98          1           0       -1.063307   -5.709452    2.456635
     99          1           0        2.906018   -1.591941   -1.521318
    100          1           0        2.545982    0.020139   -2.161906
    101          1           0        4.277264   -0.661176    0.364955
    102          1           0        4.198952    1.413289   -2.762107
    103          1           0        5.517422    2.286237   -2.240816
    104          1           0        5.813486    0.907370   -3.205559
    105          1           0        6.486261    1.557900   -0.088748
    106          1           0        6.237280   -0.076014    0.695459
    107          1           0        7.197765   -1.133131   -1.196538
    108          1           0        7.711880    0.423380   -2.062728
    109          1           0        9.113043    0.917116    0.089812
    110          1           0        8.781616   -0.388652    0.976429
    111          1           0       10.414840    0.074268   -1.613770
    112          1           0        9.069580   -2.095793   -1.735681
    113          1           0       10.801940   -2.342718   -2.105982
    114          1           0       10.316040   -2.936793   -0.570862
    115          1           0       11.331612    0.681819    0.402606
    116          1           0       11.476580   -1.036596    0.690364
    117          1           0       12.915511   -1.412208   -1.276841
    118          1           0       12.991219    0.240266   -1.809812
    119          1           0       13.930323    0.850398    0.626368
    120          1           0       13.785861   -0.749458    1.087063
    121          1           0       15.405221    0.374833   -1.330705
    122          1           0       15.664263   -2.527025    0.147602
    123          1           0       14.903688   -1.989992   -1.442057
    124          1           0       16.520680   -1.914490   -1.313795
    125          1           0       16.045469    1.222431    0.670361
    126          1           0       16.473102   -0.127889    1.561060
    127          1           0       18.177686   -0.424387   -0.517533
    128          1           0       17.646528    1.383482   -1.044911
    129          1           0       18.442205    2.090764    0.922810
    130          1           0       18.777945    0.649654    1.841385
    131          1           0       20.734235    0.216140    0.044978
    132          1           0       19.934585    3.096478   -1.011304
    133          1           0       21.282863    2.168552   -1.414442
    134          1           0       19.730412    1.685553   -1.886971
    135          1           0       20.971179    1.679062    2.540833
    136          1           0       22.222795    2.231564    1.027350
    137          1           0       20.766448    3.017009    1.446698
 ---------------------------------------------------------------------

 SCF Done:  E(RCAM-B3LYP) =  -2932.63129741     A.U. after   18 cycles

 Excitation energies and oscillator strengths:

 Excited State   1:      Singlet-A      2.0064 eV  617.94 nm  f=0.3518  <S**2>=0.000
     240 -> 242       -0.11468
     240 -> 243        0.21537
     241 -> 242        0.65813
 This state for optimization and/or second-order correction.
 Total Energy, E(TD-HF/TD-KS) =  -2932.55756268
 Copying the excited state density for this state as the 1-particle RhoCI density.

 The electronic state is 1-A.
 Alpha  occ. eigenvalues --  -46.84956 -19.26471 -19.25117 -19.21741 -19.20488
 Alpha  occ. eigenvalues --  -19.18832 -14.42233 -14.40295 -14.39503 -14.38708
 Alpha  occ. eigenvalues --  -10.40424 -10.38576 -10.34240 -10.32282 -10.31865
 Alpha  occ. eigenvalues --  -10.31693 -10.30879 -10.30444 -10.29915 -10.29226
 Alpha  occ. eigenvalues --  -10.28735 -10.28704 -10.28468 -10.28434 -10.28380
 Alpha  occ. eigenvalues --  -10.28328 -10.27962 -10.27862 -10.27789 -10.27779
 Alpha  occ. eigenvalues --  -10.27683 -10.27587 -10.27297 -10.27171 -10.27137
 Alpha  occ. eigenvalues --  -10.27035 -10.27009 -10.26856 -10.26851 -10.26837
 Alpha  occ. eigenvalues --  -10.26710 -10.26661 -10.26600 -10.26598 -10.26480
 Alpha  occ. eigenvalues --  -10.26351 -10.26259 -10.26052 -10.25765 -10.25748
 Alpha  occ. eigenvalues --  -10.25541 -10.25510 -10.25417 -10.25196 -10.25090
 Alpha  occ. eigenvalues --  -10.25022 -10.24857 -10.24447 -10.24164 -10.24145
 Alpha  occ. eigenvalues --  -10.24050 -10.23980 -10.23821 -10.23821 -10.23631
 Alpha  occ. eigenvalues --   -3.14012  -1.88715  -1.88248  -1.88198  -1.17719
 Alpha  occ. eigenvalues --   -1.16568  -1.08955  -1.08194  -1.07089  -1.05822
 Alpha  occ. eigenvalues --   -1.05020  -1.04219  -1.03557  -0.92755  -0.92330
 Alpha  occ. eigenvalues --   -0.91946  -0.91612  -0.90466  -0.89960  -0.89754
 Alpha  occ. eigenvalues --   -0.89409  -0.88917  -0.88062  -0.87410  -0.86820
 Alpha  occ. eigenvalues --   -0.85221  -0.84507  -0.83593  -0.83003  -0.82704
 Alpha  occ. eigenvalues --   -0.81941  -0.81365  -0.80530  -0.79727  -0.78886
 Alpha  occ. eigenvalues --   -0.78293  -0.77504  -0.77449  -0.76888  -0.76643
 Alpha  occ. eigenvalues --   -0.75860  -0.75740  -0.75094  -0.74356  -0.73021
 Alpha  occ. eigenvalues --   -0.72297  -0.70756  -0.69782  -0.69556  -0.68762
 Alpha  occ. eigenvalues --   -0.67889  -0.67086  -0.66302  -0.64927  -0.64783
 Alpha  occ. eigenvalues --   -0.64077  -0.63717  -0.62851  -0.62421  -0.62248
 Alpha  occ. eigenvalues --   -0.61818  -0.61616  -0.60526  -0.59906  -0.59758
 Alpha  occ. eigenvalues --   -0.59373  -0.58982  -0.58557  -0.58333  -0.57453
 Alpha  occ. eigenvalues --   -0.56264  -0.55933  -0.55449  -0.55184  -0.55082
 Alpha  occ. eigenvalues --   -0.54655  -0.54515  -0.53899  -0.53621  -0.53243
 Alpha  occ. eigenvalues --   -0.53000  -0.52823  -0.52666  -0.52322  -0.52019
 Alpha  occ. eigenvalues --   -0.51867  -0.51602  -0.51240  -0.51051  -0.50949
 Alpha  occ. eigenvalues --   -0.50630  -0.50329  -0.50269  -0.50061  -0.49712
 Alpha  occ. eigenvalues --   -0.49517  -0.49082  -0.48875  -0.48727  -0.48404
 Alpha  occ. eigenvalues --   -0.48271  -0.48111  -0.48064  -0.47663  -0.47536
 Alpha  occ. eigenvalues --   -0.47415  -0.47138  -0.46931  -0.46181  -0.46081
 Alpha  occ. eigenvalues --   -0.45955  -0.45878  -0.45507  -0.45462  -0.45165
 Alpha  occ. eigenvalues --   -0.45101  -0.44999  -0.44663  -0.44214  -0.44043
 Alpha  occ. eigenvalues --   -0.43984  -0.43663  -0.43550  -0.43459  -0.43298
 Alpha  occ. eigenvalues --   -0.43188  -0.42908  -0.42560  -0.42501  -0.42358
 Alpha  occ. eigenvalues --   -0.42055  -0.41800  -0.41738  -0.41436  -0.41322
 Alpha  occ. eigenvalues --   -0.41262  -0.40955  -0.40800  -0.40640  -0.40393
 Alpha  occ. eigenvalues --   -0.40191  -0.39901  -0.39726  -0.39539  -0.39387
 Alpha  occ. eigenvalues --   -0.39357  -0.38693  -0.38257  -0.38055  -0.38028
 Alpha  occ. eigenvalues --   -0.37509  -0.37450  -0.36810  -0.36401  -0.36284
 Alpha  occ. eigenvalues --   -0.36117  -0.36098  -0.36047  -0.35990  -0.35713
 Alpha  occ. eigenvalues --   -0.35303  -0.35173  -0.34813  -0.34116  -0.33949
 Alpha  occ. eigenvalues --   -0.33643  -0.33381  -0.32343  -0.31063  -0.30888
 Alpha  occ. eigenvalues --   -0.29779  -0.29346  -0.28803  -0.28117  -0.23155
 Alpha  occ. eigenvalues --   -0.20921
 Alpha virt. eigenvalues --   -0.06957  -0.02239   0.01045   0.03058   0.04905
 Alpha virt. eigenvalues --    0.05467   0.06333   0.06920   0.07220   0.08222
 Alpha virt. eigenvalues --    0.08558   0.10611   0.11210   0.11542   0.11645

 Mulliken charges:
               1
     1  Mg   0.824881
     2  C    0.012489
     3  C   -0.215467
     4  C   -0.204667
     5  C   -0.204698
     6  N   -0.615335
     7  C    0.332721
     8  C   -0.096863
     9  C   -0.131995
    10  C    0.286445
    11  C   -0.308858
    12  C   -0.193767
    13  C   -0.277487
    14  C    0.615380
    15  O   -0.457747
    16  O   -0.509746
    17  N   -0.714812
    18  C    0.311692
    19  C    0.052184
    20  C    0.004481
    21  C    0.314518
    22  C   -0.373639
    23  C   -0.072049
    24  C   -0.260227
    25  N   -0.686246
    26  C    0.320433
    27  C    0.024973
    28  C    0.026537
    29  C    0.327625
    30  C   -0.382192
    31  C   -0.233383
    32  C   -0.304828
    33  N   -0.715410
    34  C    0.231616
    35  C    0.016314
    36  C    0.056711
    37  C    0.315963
    38  C   -0.384759
    39  C    0.325269
    40  O   -0.503701
    41  C   -0.293293
    42  C    0.638972
    43  O   -0.482942
    44  O   -0.460075
    45  C   -0.086304
    46  C    0.022717
    47  C   -0.162670
    48  C    0.140881
    49  C   -0.348796
    50  C   -0.230965
    51  C   -0.163655
    52  C   -0.184803
    53  C   -0.042232
    54  C   -0.306393
    55  C   -0.172566
    56  C   -0.192804
    57  C   -0.172838
    58  C   -0.048367
    59  C   -0.305939
    60  C   -0.161667
    61  C   -0.185702
    62  C   -0.137889
    63  C   -0.017468
    64  C   -0.324845
    65  C   -0.297043
    66  H    0.091928
    67  H    0.081382
    68  H    0.086854
    69  H    0.104719
    70  H    0.100161
    71  H    0.103226
    72  H    0.116217
    73  H    0.122420
    74  H    0.122434
    75  H    0.111534
    76  H    0.121241
    77  H    0.131012
    78  H    0.132112
    79  H    0.132707
    80  H    0.088511
    81  H    0.097991
    82  H    0.104646
    83  H    0.110095
    84  H    0.133474
    85  H    0.110864
    86  H    0.128500
    87  H    0.117168
    88  H    0.084712
    89  H    0.099460
    90  H    0.106345
    91  H    0.103294
    92  H    0.138034
    93  H    0.141226
    94  H    0.104532
    95  H    0.186454
    96  H    0.120364
    97  H    0.131073
    98  H    0.137018
    99  H    0.135939
   100  H    0.127966
   101  H    0.094408
   102  H    0.117360
   103  H    0.118080
   104  H    0.097410
   105  H    0.097577
   106  H    0.077218
   107  H    0.088578
   108  H    0.079183
   109  H    0.102106
   110  H    0.080503
   111  H    0.107164
   112  H    0.119696
   113  H    0.092963
   114  H    0.074228
   115  H    0.091341
   116  H    0.110276
   117  H    0.111612
   118  H    0.047703
   119  H    0.091918
   120  H    0.070453
   121  H    0.068085
   122  H    0.092390
   123  H    0.095444
   124  H    0.111918
   125  H    0.093748
   126  H    0.085348
   127  H    0.087880
   128  H    0.046969
   129  H    0.105982
   130  H    0.085701
   131  H    0.048879
   132  H    0.115576
   133  H    0.102504
   134  H    0.100956
   135  H    0.084292
   136  H    0.074946
   137  H    0.088321
 Sum of Mulliken charges =   0.00000

 Dipole moment (field-independent basis, Debye):
    X=              0.9811    Y=              6.4897    Z=              0.2576  Tot=              6.5685
 Quadrupole moment (field-independent basis, Debye-Ang):
   XX=           -357.0346   YY=           -394.1659   ZZ=           -398.5511
   XY=            -21.0300   XZ=              9.0132   YZ=             -5.5694

 Normal termination of Gaussian 09 at Sat Jun 29 04:02:01 2019.
