 Gaussian 09, Revision D.01,
 Gaussian 09:  ES64L-G09RevD.01 24-Apr-2013

 -------------------------------------
 # td=(NStates=1) CAM-B3LYP/6-31G(d,p)
 -------------------------------------

 --
 TD
 --
 Symbolic Z-matrix:
 Charge =  0 Multiplicity = 1

                         Standard orientation:
 ---------------------------------------------------------------------
 Center     Atomic      Atomic             Coordinates (Angstroms)
 Number     Number       Type             X           Y           Z
 ---------------------------------------------------------------------
      1         12           0       -7.045881    0.564207    0.117834
      2          6           0       -4.813928   -1.961078    0.476474
      3          6           0       -4.764567    2.811180    1.184793
      4          6           0       -9.366550    3.057522   -0.279962
      5          6           0       -9.521327   -1.708130   -0.912868
      6          7           0       -5.061348    0.414559    0.666617
      7          6           0       -4.284695   -0.768200    0.782540
      8          6           0       -2.887667   -0.573387    1.357658
      9          6           0       -3.012923    0.933791    1.765891
     10          6           0       -4.276026    1.448009    1.149714
     11          6           0       -2.945186    1.084728    3.311872
     12          6           0       -1.823013   -0.748973    0.188580
     13          6           0       -0.463401   -0.501325    0.593818
     14          6           0        0.460061   -0.739841   -0.585181
     15          8           0        0.186798   -1.105422   -1.651062
     16          8           0        1.782428   -0.343807   -0.271118
     17          7           0       -7.024180    2.684128    0.349911
     18          6           0       -6.019300    3.425245    0.893597
     19          6           0       -6.427560    4.764862    0.937953
     20          6           0       -7.732867    4.878149    0.519526
     21          6           0       -8.137015    3.475888    0.224580
     22          6           0       -5.594023    5.830901    1.536637
     23          6           0       -8.583677    6.060160    0.460557
     24          6           0       -8.077032    7.343828    0.158928
     25          7           0       -9.107951    0.708916   -0.449825
     26          6           0       -9.816731    1.827059   -0.612074
     27          6           0      -11.152313    1.484847   -1.190043
     28          6           0      -11.165523    0.183133   -1.409550
     29          6           0       -9.853743   -0.334435   -0.887125
     30          6           0      -12.169900    2.496149   -1.440299
     31          6           0      -12.299924   -0.609508   -1.779820
     32          6           0      -12.209077   -0.985616   -3.268450
     33          7           0       -7.190043   -1.405119   -0.178629
     34          6           0       -8.169806   -2.311453   -0.587537
     35          6           0       -7.738751   -3.635386   -0.575116
     36          6           0       -6.420793   -3.566020   -0.147415
     37          6           0       -6.168111   -2.241197    0.108892
     38          6           0       -8.527822   -4.939541   -0.965721
     39          6           0       -5.328971   -4.411350    0.161842
     40          8           0       -5.168937   -5.608317    0.051278
     41          6           0       -4.098615   -3.411985    0.469486
     42          6           0       -3.598241   -3.823698    1.873045
     43          8           0       -3.923856   -3.343818    2.972326
     44          8           0       -2.665128   -4.746690    1.808973
     45          6           0       -2.110196   -5.267191    3.023929
     46          6           0        2.794373   -0.601091   -1.320118
     47          6           0        4.031784   -0.326878   -0.543800
     48          6           0        5.072915    0.522046   -1.029440
     49          6           0        5.007621    1.395940   -2.318751
     50          6           0        6.365501    0.611111   -0.268670
     51          6           0        7.527775    0.070163   -1.080557
     52          6           0        8.797282    0.014354   -0.231126
     53          6           0       10.036831   -0.434895   -0.948868
     54          6           0       10.011778   -1.944975   -1.186268
     55          6           0       11.255145   -0.165430   -0.048518
     56          6           0       12.587055   -0.463289   -0.761771
     57          6           0       13.806137   -0.136560    0.214262
     58          6           0       15.274028   -0.111701   -0.553893
     59          6           0       15.596084   -1.608600   -1.041665
     60          6           0       16.370849    0.368307    0.486132
     61          6           0       17.796429    0.556930   -0.207213
     62          6           0       18.776971    1.090218    0.829969
     63          6           0       20.251155    1.258470    0.198196
     64          6           0       20.347965    2.107639   -0.978417
     65          6           0       21.235690    1.666448    1.341607
     66          1           0       -4.162466    3.620471    1.612375
     67          1           0      -10.325169    3.868556   -0.506488
     68          1           0      -10.259011   -2.440439   -1.453228
     69          1           0       -2.847400   -1.138766    2.260168
     70          1           0       -2.071741    1.720451    1.381612
     71          1           0       -1.958578    0.964359    3.703663
     72          1           0       -3.003075    2.105662    3.449664
     73          1           0       -3.682578    0.456285    3.701932
     74          1           0       -2.089692   -1.713898   -0.268767
     75          1           0       -2.366943    0.171691   -0.538380
     76          1           0       -0.156392    0.535746    1.154921
     77          1           0       -0.290892   -1.500615    1.110169
     78          1           0       -5.004148    6.336499    0.896347
     79          1           0       -6.135614    6.650105    1.853629
     80          1           0       -4.921202    5.439842    2.246449
     81          1           0       -9.613526    5.934414    0.449410
     82          1           0       -8.655288    8.121693    0.242846
     83          1           0       -7.012166    7.555094    0.068832
     84          1           0      -11.993789    3.248610   -2.248056
     85          1           0      -13.220815    2.007308   -1.969372
     86          1           0      -12.400341    3.079862   -0.434183
     87          1           0      -12.528759   -1.587023   -1.353626
     88          1           0      -13.310438   -0.222966   -1.547297
     89          1           0      -13.101446   -1.388981   -3.626524
     90          1           0      -12.011917   -0.093269   -3.840684
     91          1           0      -11.353520   -1.615716   -3.664111
     92          1           0       -9.034984   -4.746972   -2.051063
     93          1           0       -8.111328   -5.832510   -0.809483
     94          1           0       -9.380062   -4.979545   -0.293080
     95          1           0       -3.295776   -3.520284   -0.241965
     96          1           0       -1.763353   -4.504491    3.739018
     97          1           0       -3.035605   -5.857871    3.580980
     98          1           0       -1.300811   -5.926887    2.595120
     99          1           0        2.765966   -1.536943   -1.692783
    100          1           0        2.470865    0.065550   -2.093611
    101          1           0        3.973343   -0.705275    0.427970
    102          1           0        4.033423    1.309120   -2.697296
    103          1           0        5.428385    2.476291   -2.096034
    104          1           0        5.804899    1.027289   -3.101884
    105          1           0        6.501231    1.698878   -0.203985
    106          1           0        6.286930    0.135776    0.642651
    107          1           0        7.417049   -0.893543   -1.366288
    108          1           0        7.706426    0.611237   -1.854912
    109          1           0        8.890638    0.913131    0.323640
    110          1           0        8.484795   -0.551572    0.608265
    111          1           0       10.127973    0.044068   -2.006224
    112          1           0        9.092059   -2.078304   -1.664153
    113          1           0       10.726379   -2.258578   -1.826817
    114          1           0       10.023872   -2.567742   -0.211895
    115          1           0       11.459905    0.848627    0.326129
    116          1           0       11.082047   -0.678373    0.978280
    117          1           0       12.638294   -1.492497   -1.104676
    118          1           0       12.732373    0.095300   -1.695905
    119          1           0       13.683218    0.976087    0.532408
    120          1           0       13.756638   -0.848628    0.941422
    121          1           0       15.361480    0.449812   -1.596139
    122          1           0       15.750185   -2.252303   -0.043310
    123          1           0       14.788946   -1.928160   -1.811407
    124          1           0       16.446247   -1.455377   -1.520288
    125          1           0       15.993723    1.421879    0.916831
    126          1           0       16.412897   -0.289647    1.336340
    127          1           0       18.197438   -0.442709   -0.591531
    128          1           0       17.752308    1.004400   -0.977787
    129          1           0       18.277942    2.114309    1.260788
    130          1           0       18.839125    0.513504    1.798859
    131          1           0       20.464791    0.218565   -0.069251
    132          1           0       19.910728    3.015653   -0.662780
    133          1           0       21.345784    1.999330   -1.318023
    134          1           0       19.688072    1.764247   -1.864469
    135          1           0       21.468236    0.842642    2.228369
    136          1           0       22.090772    1.871464    0.814551
    137          1           0       21.003293    2.800577    1.778975
 ---------------------------------------------------------------------

 SCF Done:  E(RCAM-B3LYP) =  -2932.63418993     A.U. after   18 cycles

 Excitation energies and oscillator strengths:

 Excited State   1:      Singlet-A      1.9988 eV  620.30 nm  f=0.2880  <S**2>=0.000
     240 -> 243        0.20491
     241 -> 242        0.66564
 This state for optimization and/or second-order correction.
 Total Energy, E(TD-HF/TD-KS) =  -2932.56073635
 Copying the excited state density for this state as the 1-particle RhoCI density.

 The electronic state is 1-A.
 Alpha  occ. eigenvalues --  -46.85308 -19.26241 -19.23721 -19.21477 -19.19696
 Alpha  occ. eigenvalues --  -19.19535 -14.42511 -14.40015 -14.39347 -14.39305
 Alpha  occ. eigenvalues --  -10.38727 -10.38493 -10.34304 -10.32798 -10.32635
 Alpha  occ. eigenvalues --  -10.30456 -10.30092 -10.29790 -10.29667 -10.29614
 Alpha  occ. eigenvalues --  -10.29505 -10.29401 -10.29312 -10.29239 -10.28997
 Alpha  occ. eigenvalues --  -10.28678 -10.28622 -10.28562 -10.28123 -10.28024
 Alpha  occ. eigenvalues --  -10.27901 -10.27866 -10.27557 -10.27431 -10.27370
 Alpha  occ. eigenvalues --  -10.27273 -10.27221 -10.26972 -10.26954 -10.26757
 Alpha  occ. eigenvalues --  -10.26307 -10.26305 -10.26265 -10.26254 -10.26220
 Alpha  occ. eigenvalues --  -10.26190 -10.26099 -10.25998 -10.25935 -10.25894
 Alpha  occ. eigenvalues --  -10.25590 -10.25383 -10.25102 -10.24707 -10.24678
 Alpha  occ. eigenvalues --  -10.24651 -10.24607 -10.24576 -10.24290 -10.24033
 Alpha  occ. eigenvalues --  -10.23666 -10.23650 -10.23326 -10.23324 -10.22521
 Alpha  occ. eigenvalues --   -3.14179  -1.88895  -1.88416  -1.88353  -1.18558
 Alpha  occ. eigenvalues --   -1.17919  -1.10574  -1.08624  -1.06910  -1.04840
 Alpha  occ. eigenvalues --   -1.03896  -1.03797  -1.02474  -0.91451  -0.91331
 Alpha  occ. eigenvalues --   -0.90561  -0.90392  -0.89460  -0.89408  -0.88980
 Alpha  occ. eigenvalues --   -0.88589  -0.87462  -0.86925  -0.86379  -0.86172
 Alpha  occ. eigenvalues --   -0.85087  -0.84215  -0.83541  -0.83095  -0.83031
 Alpha  occ. eigenvalues --   -0.81395  -0.80782  -0.80556  -0.79746  -0.78625
 Alpha  occ. eigenvalues --   -0.78330  -0.77133  -0.76194  -0.76113  -0.75489
 Alpha  occ. eigenvalues --   -0.75256  -0.74457  -0.73492  -0.73329  -0.72340
 Alpha  occ. eigenvalues --   -0.71430  -0.70793  -0.69830  -0.69375  -0.68693
 Alpha  occ. eigenvalues --   -0.67830  -0.67585  -0.65592  -0.65152  -0.64756
 Alpha  occ. eigenvalues --   -0.63469  -0.63052  -0.62585  -0.62403  -0.61795
 Alpha  occ. eigenvalues --   -0.61378  -0.60874  -0.60768  -0.59711  -0.59090
 Alpha  occ. eigenvalues --   -0.58621  -0.58541  -0.57387  -0.57016  -0.56761
 Alpha  occ. eigenvalues --   -0.56566  -0.56042  -0.55819  -0.54764  -0.54560
 Alpha  occ. eigenvalues --   -0.54279  -0.53949  -0.53881  -0.53540  -0.53141
 Alpha  occ. eigenvalues --   -0.52757  -0.52500  -0.52249  -0.51918  -0.51572
 Alpha  occ. eigenvalues --   -0.51351  -0.51082  -0.50940  -0.50405  -0.50289
 Alpha  occ. eigenvalues --   -0.50034  -0.49877  -0.49732  -0.49660  -0.49635
 Alpha  occ. eigenvalues --   -0.49475  -0.48984  -0.48738  -0.48642  -0.48194
 Alpha  occ. eigenvalues --   -0.48121  -0.47891  -0.47666  -0.47356  -0.47162
 Alpha  occ. eigenvalues --   -0.46731  -0.46572  -0.46432  -0.46119  -0.45935
 Alpha  occ. eigenvalues --   -0.45696  -0.45538  -0.45279  -0.45175  -0.45013
 Alpha  occ. eigenvalues --   -0.44662  -0.44498  -0.44254  -0.44114  -0.44046
 Alpha  occ. eigenvalues --   -0.43976  -0.43642  -0.43613  -0.43456  -0.43416
 Alpha  occ. eigenvalues --   -0.43207  -0.42901  -0.42780  -0.42727  -0.42725
 Alpha  occ. eigenvalues --   -0.42356  -0.42221  -0.42017  -0.41844  -0.41535
 Alpha  occ. eigenvalues --   -0.41172  -0.40856  -0.40775  -0.40656  -0.40551
 Alpha  occ. eigenvalues --   -0.40457  -0.39936  -0.39683  -0.39329  -0.39296
 Alpha  occ. eigenvalues --   -0.38873  -0.38597  -0.38018  -0.37985  -0.37801
 Alpha  occ. eigenvalues --   -0.37693  -0.37544  -0.37419  -0.37366  -0.36895
 Alpha  occ. eigenvalues --   -0.36398  -0.36028  -0.35987  -0.35361  -0.35295
 Alpha  occ. eigenvalues --   -0.35086  -0.35067  -0.34298  -0.34170  -0.33497
 Alpha  occ. eigenvalues --   -0.32690  -0.32026  -0.31979  -0.30956  -0.29660
 Alpha  occ. eigenvalues --   -0.29513  -0.29066  -0.27665  -0.27400  -0.23045
 Alpha  occ. eigenvalues --   -0.21589
 Alpha virt. eigenvalues --   -0.07404  -0.02146   0.01454   0.03184   0.05614
 Alpha virt. eigenvalues --    0.05728   0.06302   0.06353   0.06778   0.07551
 Alpha virt. eigenvalues --    0.08440   0.09867   0.10395   0.11331   0.11538

 Mulliken charges:
               1
     1  Mg   0.829291
     2  C    0.045936
     3  C   -0.219308
     4  C   -0.199693
     5  C   -0.180632
     6  N   -0.640369
     7  C    0.251397
     8  C   -0.142387
     9  C   -0.172665
    10  C    0.384283
    11  C   -0.298774
    12  C   -0.142740
    13  C   -0.253662
    14  C    0.600064
    15  O   -0.423747
    16  O   -0.540056
    17  N   -0.699927
    18  C    0.326393
    19  C    0.011195
    20  C    0.028993
    21  C    0.292463
    22  C   -0.380253
    23  C   -0.091056
    24  C   -0.229397
    25  N   -0.683456
    26  C    0.335350
    27  C    0.069978
    28  C    0.065272
    29  C    0.292150
    30  C   -0.392764
    31  C   -0.271895
    32  C   -0.326838
    33  N   -0.718177
    34  C    0.217347
    35  C    0.015456
    36  C    0.025952
    37  C    0.303513
    38  C   -0.348664
    39  C    0.353822
    40  O   -0.465674
    41  C   -0.319062
    42  C    0.606674
    43  O   -0.509152
    44  O   -0.425251
    45  C   -0.078602
    46  C    0.023386
    47  C   -0.142848
    48  C    0.086658
    49  C   -0.346960
    50  C   -0.218653
    51  C   -0.162889
    52  C   -0.189797
    53  C   -0.065446
    54  C   -0.296675
    55  C   -0.159745
    56  C   -0.200821
    57  C   -0.169841
    58  C   -0.085972
    59  C   -0.293422
    60  C   -0.169770
    61  C   -0.147307
    62  C   -0.167560
    63  C   -0.065328
    64  C   -0.300999
    65  C   -0.294252
    66  H    0.063259
    67  H    0.076078
    68  H    0.101219
    69  H    0.140527
    70  H    0.064753
    71  H    0.114418
    72  H    0.112910
    73  H    0.135288
    74  H    0.128531
    75  H    0.076835
    76  H    0.142100
    77  H    0.143843
    78  H    0.131918
    79  H    0.123294
    80  H    0.117274
    81  H    0.098720
    82  H    0.106342
    83  H    0.102216
    84  H    0.132152
    85  H    0.086022
    86  H    0.112110
    87  H    0.117080
    88  H    0.111967
    89  H    0.106680
    90  H    0.108831
    91  H    0.106065
    92  H    0.100235
    93  H    0.148526
    94  H    0.123666
    95  H    0.157773
    96  H    0.137208
    97  H    0.118701
    98  H    0.127557
    99  H    0.133547
   100  H    0.121991
   101  H    0.105229
   102  H    0.118632
   103  H    0.107301
   104  H    0.109207
   105  H    0.094736
   106  H    0.098406
   107  H    0.107113
   108  H    0.097788
   109  H    0.087589
   110  H    0.089431
   111  H    0.073731
   112  H    0.097798
   113  H    0.111449
   114  H    0.091326
   115  H    0.084999
   116  H    0.076368
   117  H    0.095365
   118  H    0.091259
   119  H    0.079084
   120  H    0.106826
   121  H    0.066721
   122  H    0.081322
   123  H    0.092021
   124  H    0.112482
   125  H    0.070275
   126  H    0.098912
   127  H    0.076018
   128  H    0.096797
   129  H    0.054631
   130  H    0.088380
   131  H    0.088534
   132  H    0.117082
   133  H    0.110998
   134  H    0.090072
   135  H    0.088675
   136  H    0.107576
   137  H    0.073142
 Sum of Mulliken charges =   0.00000

 Dipole moment (field-independent basis, Debye):
    X=              1.0912    Y=              5.1577    Z=              0.1905  Tot=              5.2753
 Quadrupole moment (field-independent basis, Debye-Ang):
   XX=           -329.1560   YY=           -393.5537   ZZ=           -395.3353
   XY=            -30.9093   XZ=              2.5975   YZ=             -1.5343

 Normal termination of Gaussian 09 at Fri Jun 28 23:08:21 2019.
