 Gaussian 09, Revision D.01,
 Gaussian 09:  ES64L-G09RevD.01 24-Apr-2013

 -------------------------------------
 # td=(NStates=1) CAM-B3LYP/6-31G(d,p)
 -------------------------------------

 --
 TD
 --
 Symbolic Z-matrix:
 Charge =  0 Multiplicity = 1

                         Standard orientation:
 ---------------------------------------------------------------------
 Center     Atomic      Atomic             Coordinates (Angstroms)
 Number     Number       Type             X           Y           Z
 ---------------------------------------------------------------------
      1         12           0       -7.141035    0.567181    0.031858
      2          6           0       -4.846882   -1.925043    0.607326
      3          6           0       -4.749339    2.829855    1.194997
      4          6           0       -9.406874    3.150268   -0.252992
      5          6           0       -9.459324   -1.722987   -0.990199
      6          7           0       -5.062585    0.460735    0.728333
      7          6           0       -4.335784   -0.694176    0.761019
      8          6           0       -2.905178   -0.364669    1.224630
      9          6           0       -3.005312    1.107426    1.744920
     10          6           0       -4.325174    1.586812    1.189165
     11          6           0       -3.051525    1.108781    3.291816
     12          6           0       -1.863717   -0.543959    0.102273
     13          6           0       -0.448091   -0.469530    0.594695
     14          6           0        0.483994   -0.687200   -0.542365
     15          8           0        0.079051   -1.163233   -1.597780
     16          8           0        1.729610   -0.378342   -0.200492
     17          7           0       -7.149348    2.619861    0.367922
     18          6           0       -6.086531    3.431590    0.802372
     19          6           0       -6.483538    4.734592    0.887835
     20          6           0       -7.730704    4.833093    0.468259
     21          6           0       -8.111041    3.488269    0.067584
     22          6           0       -5.576808    5.784137    1.427354
     23          6           0       -8.530623    6.049782    0.461847
     24          6           0       -8.126131    7.345874    0.246382
     25          7           0       -9.096627    0.680632   -0.463537
     26          6           0       -9.822118    1.802810   -0.710556
     27          6           0      -11.194903    1.512040   -1.193436
     28          6           0      -11.216213    0.123083   -1.271126
     29          6           0       -9.893266   -0.373122   -0.897693
     30          6           0      -12.129491    2.528056   -1.617205
     31          6           0      -12.328330   -0.677567   -1.751508
     32          6           0      -12.453167   -1.053382   -3.291139
     33          7           0       -7.212415   -1.403731   -0.178983
     34          6           0       -8.282791   -2.256912   -0.514777
     35          6           0       -7.784320   -3.690554   -0.474279
     36          6           0       -6.551143   -3.493531   -0.075267
     37          6           0       -6.152247   -2.110488    0.059006
     38          6           0       -8.567060   -4.857260   -0.690085
     39          6           0       -5.349944   -4.337304    0.232155
     40          8           0       -5.257486   -5.512693    0.197221
     41          6           0       -4.102788   -3.369585    0.567133
     42          6           0       -3.475616   -3.720741    1.929334
     43          8           0       -3.641449   -3.193357    3.014339
     44          8           0       -2.656391   -4.716194    1.714828
     45          6           0       -2.002765   -5.237376    2.955456
     46          6           0        2.617641   -0.646779   -1.157055
     47          6           0        4.013585   -0.523544   -0.613257
     48          6           0        5.096097    0.137169   -1.116955
     49          6           0        5.047545    1.028688   -2.307685
     50          6           0        6.399193    0.288819   -0.284348
     51          6           0        7.577328   -0.164437   -1.087889
     52          6           0        8.946180   -0.172963   -0.247384
     53          6           0       10.257697   -0.644629   -0.987503
     54          6           0       10.153947   -2.094862   -1.348029
     55          6           0       11.408775   -0.392416   -0.112387
     56          6           0       12.829301   -0.469853   -0.751825
     57          6           0       13.961666   -0.086383    0.203336
     58          6           0       15.266241   -0.161380   -0.495087
     59          6           0       15.646047   -1.613799   -0.769941
     60          6           0       16.352685    0.504988    0.436049
     61          6           0       17.759148    0.670001   -0.256097
     62          6           0       18.731437    1.306470    0.814849
     63          6           0       20.187610    1.431108    0.276868
     64          6           0       20.420872    2.183793   -1.035624
     65          6           0       21.112119    2.001280    1.318813
     66          1           0       -4.158818    3.424234    1.614256
     67          1           0      -10.278092    3.833932   -0.676256
     68          1           0      -10.177638   -2.393007   -1.345278
     69          1           0       -2.808436   -1.130222    1.862115
     70          1           0       -2.142930    1.645035    1.417507
     71          1           0       -1.937512    0.700205    3.493089
     72          1           0       -3.234774    1.928894    3.800265
     73          1           0       -3.656223    0.375910    3.880365
     74          1           0       -2.071733   -1.677377   -0.313148
     75          1           0       -1.755782    0.172892   -0.771964
     76          1           0       -0.231219    0.416430    0.961117
     77          1           0       -0.325241   -1.233938    1.290198
     78          1           0       -4.738441    6.247113    0.730112
     79          1           0       -6.061108    6.720191    1.799878
     80          1           0       -4.887588    5.643218    2.155239
     81          1           0       -9.613339    5.852857    0.863624
     82          1           0       -8.853456    8.176235    0.374582
     83          1           0       -7.149804    7.720991    0.042382
     84          1           0      -11.795387    2.923228   -2.542611
     85          1           0      -13.316081    2.288263   -1.644362
     86          1           0      -12.236422    3.408324   -0.941401
     87          1           0      -12.689886   -1.734143   -1.274657
     88          1           0      -13.372114   -0.025822   -1.719975
     89          1           0      -13.356515   -1.648178   -3.617679
     90          1           0      -12.668717   -0.110849   -3.821516
     91          1           0      -11.424293   -1.506657   -3.501045
     92          1           0       -9.054182   -4.911348   -1.781134
     93          1           0       -7.995992   -5.767605   -0.924938
     94          1           0       -9.309259   -4.903850    0.134049
     95          1           0       -3.412357   -3.407843   -0.141013
     96          1           0       -1.831197   -4.203673    3.543445
     97          1           0       -2.649925   -5.871631    3.593080
     98          1           0       -1.338505   -5.955400    2.485550
     99          1           0        2.646214   -1.609067   -1.714773
    100          1           0        2.439049    0.163645   -1.923016
    101          1           0        4.167006   -1.143566    0.364904
    102          1           0        3.923163    1.504459   -2.720170
    103          1           0        5.724343    1.863404   -2.220237
    104          1           0        5.436415    0.490019   -3.179619
    105          1           0        6.346988    1.231910   -0.046364
    106          1           0        6.280818   -0.205490    0.614590
    107          1           0        7.261799   -1.081935   -1.285014
    108          1           0        7.766791    0.545837   -1.941296
    109          1           0        9.050473    0.837579    0.075389
    110          1           0        8.653474   -0.599885    0.602747
    111          1           0       10.204833   -0.051423   -1.885241
    112          1           0        9.231125   -2.303837   -1.680169
    113          1           0       11.039397   -2.190907   -1.993731
    114          1           0       10.519602   -2.856925   -0.507710
    115          1           0       11.215920    0.704984    0.308620
    116          1           0       11.489335   -1.192835    0.807996
    117          1           0       12.883421   -1.543179   -1.162489
    118          1           0       12.766562    0.341644   -1.595664
    119          1           0       13.926601    0.824368    0.828045
    120          1           0       13.685741   -0.919454    0.949832
    121          1           0       15.219832    0.288686   -1.437564
    122          1           0       15.741201   -2.171798   -0.084507
    123          1           0       14.945498   -2.101330   -1.387253
    124          1           0       16.412962   -1.610005   -1.586713
    125          1           0       15.948495    1.674202    0.670075
    126          1           0       16.306223   -0.000976    1.358890
    127          1           0       18.223266   -0.451764   -0.392086
    128          1           0       17.534564    0.901440   -1.345551
    129          1           0       18.199646    2.380962    1.000929
    130          1           0       18.805434    0.769316    1.760290
    131          1           0       20.588600    0.411850    0.251820
    132          1           0       20.113883    3.329791   -0.990285
    133          1           0       21.508062    2.321387   -1.329162
    134          1           0       19.875886    1.798441   -1.891733
    135          1           0       21.264772    1.205996    2.006410
    136          1           0       22.212636    2.366486    1.020975
    137          1           0       20.763289    3.009362    1.940911
 ---------------------------------------------------------------------

 SCF Done:  E(RCAM-B3LYP) =  -2932.56939928     A.U. after   15 cycles

 Excitation energies and oscillator strengths:

 Excited State   1:      Singlet-A      2.0924 eV  592.55 nm  f=0.2651  <S**2>=0.000
     240 -> 243       -0.23527
     241 -> 242        0.65519
 This state for optimization and/or second-order correction.
 Total Energy, E(TD-HF/TD-KS) =  -2932.49250602
 Copying the excited state density for this state as the 1-particle RhoCI density.

 The electronic state is 1-A.
 Alpha  occ. eigenvalues --  -46.83889 -19.28162 -19.26799 -19.21304 -19.21232
 Alpha  occ. eigenvalues --  -19.20924 -14.39845 -14.39516 -14.39388 -14.39302
 Alpha  occ. eigenvalues --  -10.39262 -10.39134 -10.35458 -10.32573 -10.31749
 Alpha  occ. eigenvalues --  -10.29818 -10.29734 -10.29475 -10.29317 -10.29216
 Alpha  occ. eigenvalues --  -10.28722 -10.28673 -10.28451 -10.28386 -10.28227
 Alpha  occ. eigenvalues --  -10.28203 -10.28202 -10.27824 -10.27488 -10.27398
 Alpha  occ. eigenvalues --  -10.27233 -10.27215 -10.27177 -10.27172 -10.27119
 Alpha  occ. eigenvalues --  -10.26974 -10.26736 -10.26548 -10.26506 -10.26425
 Alpha  occ. eigenvalues --  -10.26419 -10.26364 -10.26249 -10.26165 -10.26155
 Alpha  occ. eigenvalues --  -10.26075 -10.26064 -10.25914 -10.25792 -10.25664
 Alpha  occ. eigenvalues --  -10.25514 -10.25489 -10.25402 -10.25261 -10.25245
 Alpha  occ. eigenvalues --  -10.25085 -10.25032 -10.25008 -10.24950 -10.24732
 Alpha  occ. eigenvalues --  -10.24166 -10.24071 -10.23693 -10.23640 -10.21837
 Alpha  occ. eigenvalues --   -3.12938  -1.87649  -1.87174  -1.87116  -1.22185
 Alpha  occ. eigenvalues --   -1.19146  -1.13749  -1.10526  -1.08934  -1.04883
 Alpha  occ. eigenvalues --   -1.04339  -1.01989  -1.01266  -0.91690  -0.91148
 Alpha  occ. eigenvalues --   -0.90936  -0.90447  -0.89500  -0.89411  -0.89257
 Alpha  occ. eigenvalues --   -0.88454  -0.88105  -0.87659  -0.87316  -0.86741
 Alpha  occ. eigenvalues --   -0.85179  -0.84247  -0.83426  -0.83051  -0.81775
 Alpha  occ. eigenvalues --   -0.81698  -0.81278  -0.80591  -0.80154  -0.78615
 Alpha  occ. eigenvalues --   -0.78115  -0.77293  -0.76468  -0.76449  -0.76370
 Alpha  occ. eigenvalues --   -0.75287  -0.74814  -0.74360  -0.73606  -0.72721
 Alpha  occ. eigenvalues --   -0.71407  -0.70272  -0.69291  -0.68282  -0.67927
 Alpha  occ. eigenvalues --   -0.67135  -0.66964  -0.65764  -0.64734  -0.64704
 Alpha  occ. eigenvalues --   -0.64393  -0.64138  -0.63683  -0.62235  -0.62132
 Alpha  occ. eigenvalues --   -0.61929  -0.60846  -0.60546  -0.59859  -0.59610
 Alpha  occ. eigenvalues --   -0.59215  -0.58851  -0.58494  -0.57988  -0.57554
 Alpha  occ. eigenvalues --   -0.56347  -0.55935  -0.55424  -0.55244  -0.55018
 Alpha  occ. eigenvalues --   -0.54667  -0.54485  -0.54377  -0.54108  -0.53255
 Alpha  occ. eigenvalues --   -0.53195  -0.52796  -0.52455  -0.52335  -0.52023
 Alpha  occ. eigenvalues --   -0.51557  -0.51289  -0.51059  -0.50813  -0.50668
 Alpha  occ. eigenvalues --   -0.50469  -0.50151  -0.50123  -0.49824  -0.49594
 Alpha  occ. eigenvalues --   -0.49458  -0.49229  -0.49154  -0.48935  -0.48327
 Alpha  occ. eigenvalues --   -0.48113  -0.48059  -0.48045  -0.47642  -0.47304
 Alpha  occ. eigenvalues --   -0.47294  -0.46773  -0.46619  -0.46394  -0.45909
 Alpha  occ. eigenvalues --   -0.45669  -0.45522  -0.45329  -0.45310  -0.45022
 Alpha  occ. eigenvalues --   -0.44768  -0.44667  -0.44588  -0.44261  -0.44185
 Alpha  occ. eigenvalues --   -0.44016  -0.43787  -0.43635  -0.43409  -0.43184
 Alpha  occ. eigenvalues --   -0.42822  -0.42637  -0.42502  -0.42204  -0.42148
 Alpha  occ. eigenvalues --   -0.42049  -0.41674  -0.41289  -0.41175  -0.40892
 Alpha  occ. eigenvalues --   -0.40695  -0.40512  -0.40492  -0.40419  -0.40183
 Alpha  occ. eigenvalues --   -0.40001  -0.39671  -0.39424  -0.39402  -0.38869
 Alpha  occ. eigenvalues --   -0.38384  -0.38152  -0.37954  -0.37628  -0.37582
 Alpha  occ. eigenvalues --   -0.37288  -0.37229  -0.36654  -0.36564  -0.36488
 Alpha  occ. eigenvalues --   -0.36211  -0.36113  -0.35828  -0.35531  -0.34881
 Alpha  occ. eigenvalues --   -0.34712  -0.34597  -0.34238  -0.33922  -0.33842
 Alpha  occ. eigenvalues --   -0.33100  -0.32597  -0.31874  -0.31374  -0.30486
 Alpha  occ. eigenvalues --   -0.29916  -0.29207  -0.27993  -0.27663  -0.23077
 Alpha  occ. eigenvalues --   -0.21040
 Alpha virt. eigenvalues --   -0.06018  -0.02962   0.03124   0.04511   0.05899
 Alpha virt. eigenvalues --    0.06209   0.06471   0.06686   0.07101   0.08081
 Alpha virt. eigenvalues --    0.08651   0.10827   0.10982   0.11712   0.11813

 Mulliken charges:
               1
     1  Mg   0.826821
     2  C    0.028550
     3  C   -0.144942
     4  C   -0.149225
     5  C   -0.156954
     6  N   -0.658804
     7  C    0.308035
     8  C   -0.135591
     9  C   -0.146784
    10  C    0.342038
    11  C   -0.299640
    12  C   -0.179381
    13  C   -0.248781
    14  C    0.599080
    15  O   -0.475340
    16  O   -0.418493
    17  N   -0.668981
    18  C    0.245392
    19  C    0.096925
    20  C    0.002229
    21  C    0.301556
    22  C   -0.394446
    23  C   -0.100882
    24  C   -0.240820
    25  N   -0.659704
    26  C    0.214514
    27  C    0.065044
    28  C    0.068387
    29  C    0.267320
    30  C   -0.408951
    31  C   -0.283748
    32  C   -0.299043
    33  N   -0.737797
    34  C    0.230141
    35  C    0.072245
    36  C   -0.021959
    37  C    0.345974
    38  C   -0.403088
    39  C    0.377204
    40  O   -0.421955
    41  C   -0.290598
    42  C    0.625314
    43  O   -0.493236
    44  O   -0.442560
    45  C   -0.108245
    46  C    0.016093
    47  C   -0.170242
    48  C    0.104082
    49  C   -0.361291
    50  C   -0.219289
    51  C   -0.190632
    52  C   -0.194068
    53  C   -0.040732
    54  C   -0.296907
    55  C   -0.158035
    56  C   -0.185930
    57  C   -0.156773
    58  C   -0.056414
    59  C   -0.292692
    60  C   -0.163283
    61  C   -0.180247
    62  C   -0.151086
    63  C   -0.048424
    64  C   -0.306539
    65  C   -0.297425
    66  H    0.033965
    67  H    0.093452
    68  H    0.090155
    69  H    0.116791
    70  H    0.106371
    71  H    0.074762
    72  H    0.117651
    73  H    0.129674
    74  H    0.092433
    75  H    0.109302
    76  H    0.130343
    77  H    0.141003
    78  H    0.092880
    79  H    0.114141
    80  H    0.128347
    81  H    0.096813
    82  H    0.100802
    83  H    0.114399
    84  H    0.144917
    85  H    0.103265
    86  H    0.119812
    87  H    0.092378
    88  H    0.074630
    89  H    0.102478
    90  H    0.105986
    91  H    0.099004
    92  H    0.107174
    93  H    0.150684
    94  H    0.144180
    95  H    0.160410
    96  H    0.151077
    97  H    0.138051
    98  H    0.138625
    99  H    0.137108
   100  H    0.097007
   101  H    0.076865
   102  H    0.083278
   103  H    0.117255
   104  H    0.129037
   105  H    0.117784
   106  H    0.100267
   107  H    0.112086
   108  H    0.086862
   109  H    0.084086
   110  H    0.096160
   111  H    0.092294
   112  H    0.110314
   113  H    0.100731
   114  H    0.079992
   115  H    0.068857
   116  H    0.064304
   117  H    0.096968
   118  H    0.071538
   119  H    0.093120
   120  H    0.074712
   121  H    0.088600
   122  H    0.103331
   123  H    0.095482
   124  H    0.086937
   125  H    0.047123
   126  H    0.102892
   127  H    0.066463
   128  H    0.106306
   129  H    0.075661
   130  H    0.106696
   131  H    0.096372
   132  H    0.082932
   133  H    0.099528
   134  H    0.101463
   135  H    0.101149
   136  H    0.083585
   137  H    0.071915
 Sum of Mulliken charges =   0.00000

 Dipole moment (field-independent basis, Debye):
    X=              2.3437    Y=              2.1702    Z=              0.1003  Tot=              3.1957
 Quadrupole moment (field-independent basis, Debye-Ang):
   XX=           -361.8615   YY=           -383.2000   ZZ=           -397.6433
   XY=            -20.8691   XZ=              9.5631   YZ=             -3.1929

 Normal termination of Gaussian 09 at Mon Jul  1 09:32:43 2019.
