 Gaussian 09, Revision D.01,
 Gaussian 09:  ES64L-G09RevD.01 24-Apr-2013

 -------------------------------------
 # td=(NStates=1) CAM-B3LYP/6-31G(d,p)
 -------------------------------------

 --
 TD
 --
 Symbolic Z-matrix:
 Charge =  0 Multiplicity = 1

                         Standard orientation:
 ---------------------------------------------------------------------
 Center     Atomic      Atomic             Coordinates (Angstroms)
 Number     Number       Type             X           Y           Z
 ---------------------------------------------------------------------
      1         12           0       -7.207918    0.528813    0.108305
      2          6           0       -4.782534   -1.901046    0.587548
      3          6           0       -4.878914    2.888955    1.250046
      4          6           0       -9.516766    3.000720   -0.254912
      5          6           0       -9.580918   -1.841112   -0.786944
      6          7           0       -5.129235    0.462143    0.824831
      7          6           0       -4.346853   -0.692480    0.772736
      8          6           0       -2.859559   -0.295209    1.144234
      9          6           0       -3.013583    1.234234    1.574381
     10          6           0       -4.435877    1.600991    1.231508
     11          6           0       -2.703180    1.416779    3.066904
     12          6           0       -1.907581   -0.605528    0.094422
     13          6           0       -0.419810   -0.485685    0.436671
     14          6           0        0.621125   -0.508997   -0.683972
     15          8           0        0.269701   -0.872060   -1.861917
     16          8           0        1.841436   -0.481051   -0.259571
     17          7           0       -7.189836    2.584973    0.296176
     18          6           0       -6.141061    3.371638    0.797715
     19          6           0       -6.547301    4.814553    1.033965
     20          6           0       -7.821600    4.854254    0.544277
     21          6           0       -8.279983    3.486423    0.214132
     22          6           0       -5.704978    5.874875    1.459901
     23          6           0       -8.697719    6.057980    0.411703
     24          6           0       -8.193549    7.246959    0.105183
     25          7           0       -9.174222    0.637600   -0.496842
     26          6           0       -9.940334    1.780694   -0.544736
     27          6           0      -11.196094    1.390504   -1.225405
     28          6           0      -11.208296   -0.019506   -1.275377
     29          6           0       -9.959744   -0.504574   -0.922998
     30          6           0      -12.331285    2.319242   -1.518500
     31          6           0      -12.234641   -0.829032   -1.837906
     32          6           0      -12.174126   -1.046933   -3.362698
     33          7           0       -7.254876   -1.490672   -0.037515
     34          6           0       -8.200181   -2.336394   -0.523050
     35          6           0       -7.760545   -3.720913   -0.584549
     36          6           0       -6.450759   -3.601523   -0.087103
     37          6           0       -6.179205   -2.203006    0.165395
     38          6           0       -8.628730   -4.933802   -0.883364
     39          6           0       -5.252023   -4.418798    0.253285
     40          8           0       -5.070068   -5.586442    0.346594
     41          6           0       -4.127005   -3.339222    0.674379
     42          6           0       -3.433788   -3.612009    2.011136
     43          8           0       -3.524896   -2.958306    3.037758
     44          8           0       -2.626528   -4.772169    1.831764
     45          6           0       -2.091913   -5.254839    3.122924
     46          6           0        2.858509   -0.564942   -1.364594
     47          6           0        4.072813   -0.230493   -0.647683
     48          6           0        5.044869    0.491747   -1.108450
     49          6           0        5.020424    1.293782   -2.464847
     50          6           0        6.388587    0.472680   -0.340438
     51          6           0        7.581109   -0.101586   -1.049442
     52          6           0        8.861671   -0.105541   -0.222671
     53          6           0       10.153141   -0.673891   -1.018208
     54          6           0        9.969405   -2.159755   -1.242561
     55          6           0       11.310408   -0.292777   -0.083059
     56          6           0       12.712315   -0.558250   -0.681784
     57          6           0       13.926861   -0.132680    0.150461
     58          6           0       15.370931   -0.259753   -0.425817
     59          6           0       15.791622   -1.725029   -0.736740
     60          6           0       16.377330    0.289463    0.560515
     61          6           0       17.694183    0.548728   -0.098008
     62          6           0       18.814969    1.299491    0.758274
     63          6           0       20.247785    1.391722    0.236451
     64          6           0       20.470347    2.050637   -1.057854
     65          6           0       21.157437    2.015166    1.257831
     66          1           0       -3.996039    3.728959    1.544041
     67          1           0      -10.374640    3.721198   -0.404478
     68          1           0      -10.149127   -2.609937   -1.136431
     69          1           0       -2.601297   -0.839656    1.998401
     70          1           0       -2.247046    1.794535    0.984378
     71          1           0       -1.687285    1.107813    3.296681
     72          1           0       -2.778784    2.541429    3.564037
     73          1           0       -3.424641    0.832148    3.703300
     74          1           0       -1.971903   -1.593889   -0.533754
     75          1           0       -1.920941    0.236661   -0.615253
     76          1           0       -0.252796    0.461549    0.777263
     77          1           0       -0.123400   -1.166989    1.151787
     78          1           0       -5.140352    6.353559    0.618576
     79          1           0       -6.432835    6.784448    1.789914
     80          1           0       -4.916626    5.713695    2.288189
     81          1           0       -9.835284    5.927812    0.427676
     82          1           0       -9.001005    8.004959    0.098097
     83          1           0       -7.087152    7.454778   -0.009911
     84          1           0      -12.254306    2.977770   -2.443411
     85          1           0      -13.133821    1.565705   -1.719978
     86          1           0      -12.658884    3.057715   -0.704691
     87          1           0      -12.140958   -1.655188   -1.324517
     88          1           0      -13.241775   -0.288804   -1.526538
     89          1           0      -12.793956   -1.943612   -3.745990
     90          1           0      -12.412123   -0.305972   -3.933625
     91          1           0      -11.201949   -1.378711   -3.645677
     92          1           0       -9.385502   -4.915087   -1.830462
     93          1           0       -8.103725   -5.927640   -0.832137
     94          1           0       -9.444837   -5.130657   -0.223909
     95          1           0       -3.376997   -3.493902   -0.154258
     96          1           0       -1.644506   -4.408292    3.693960
     97          1           0       -3.078883   -5.455093    3.638986
     98          1           0       -1.500273   -6.172486    2.629838
     99          1           0        2.701016   -1.562830   -1.659850
    100          1           0        2.507674    0.107277   -2.027699
    101          1           0        4.055813   -0.718216    0.388550
    102          1           0        3.929676    1.429713   -2.606402
    103          1           0        5.548681    2.325884   -2.276882
    104          1           0        5.323608    0.662499   -3.339529
    105          1           0        6.260456    1.440001   -0.175118
    106          1           0        6.360669    0.153230    0.816097
    107          1           0        7.290490   -1.131430   -1.266426
    108          1           0        7.734929    0.555318   -2.014665
    109          1           0        9.015061    0.849157    0.003928
    110          1           0        8.752159   -0.618510    0.816912
    111          1           0       10.104630   -0.069218   -1.855081
    112          1           0        9.054869   -2.516464   -1.874355
    113          1           0       10.957752   -2.339546   -1.805598
    114          1           0       10.162277   -2.729674   -0.357865
    115          1           0       11.334588    0.673707    0.360342
    116          1           0       11.265374   -1.017047    0.857513
    117          1           0       12.793632   -1.653334   -0.686169
    118          1           0       12.720376    0.007144   -1.767260
    119          1           0       13.838911    0.955821    0.424217
    120          1           0       13.760477   -0.738590    0.995659
    121          1           0       15.441230    0.203132   -1.261769
    122          1           0       16.148083   -2.182405    0.243873
    123          1           0       15.074229   -2.271583   -1.251986
    124          1           0       16.749728   -1.688240   -1.335269
    125          1           0       15.965458    1.352407    0.899065
    126          1           0       16.567498   -0.442920    1.390179
    127          1           0       18.094456   -0.420008   -0.278059
    128          1           0       17.483479    1.133119   -1.045927
    129          1           0       18.666155    2.474867    0.830924
    130          1           0       18.753149    0.933246    1.806041
    131          1           0       20.641994    0.580908   -0.033365
    132          1           0       20.010653    3.057420   -1.247185
    133          1           0       21.511441    2.108442   -1.240280
    134          1           0       19.813160    1.746160   -1.974774
    135          1           0       20.921408    1.591076    2.242064
    136          1           0       22.217341    2.103015    0.988980
    137          1           0       20.723652    2.912357    1.439975
 ---------------------------------------------------------------------

 SCF Done:  E(RCAM-B3LYP) =  -2932.66197350     A.U. after   18 cycles

 Excitation energies and oscillator strengths:

 Excited State   1:      Singlet-A      2.0154 eV  615.18 nm  f=0.2797  <S**2>=0.000
     240 -> 243       -0.21716
     241 -> 242        0.65721
 This state for optimization and/or second-order correction.
 Total Energy, E(TD-HF/TD-KS) =  -2932.58790862
 Copying the excited state density for this state as the 1-particle RhoCI density.

 The electronic state is 1-A.
 Alpha  occ. eigenvalues --  -46.84500 -19.26600 -19.24699 -19.21795 -19.20347
 Alpha  occ. eigenvalues --  -19.18830 -14.41283 -14.40499 -14.39540 -14.38737
 Alpha  occ. eigenvalues --  -10.39369 -10.38390 -10.35044 -10.31794 -10.31590
 Alpha  occ. eigenvalues --  -10.31133 -10.30931 -10.30782 -10.29460 -10.29063
 Alpha  occ. eigenvalues --  -10.28814 -10.28696 -10.28684 -10.28601 -10.28460
 Alpha  occ. eigenvalues --  -10.28294 -10.28200 -10.28124 -10.28114 -10.28098
 Alpha  occ. eigenvalues --  -10.27954 -10.27897 -10.27597 -10.27300 -10.27284
 Alpha  occ. eigenvalues --  -10.27081 -10.26850 -10.26826 -10.26816 -10.26694
 Alpha  occ. eigenvalues --  -10.26374 -10.26330 -10.26261 -10.26173 -10.26165
 Alpha  occ. eigenvalues --  -10.26158 -10.25996 -10.25815 -10.25777 -10.25623
 Alpha  occ. eigenvalues --  -10.25508 -10.25462 -10.25409 -10.25355 -10.25338
 Alpha  occ. eigenvalues --  -10.25260 -10.25211 -10.24792 -10.24551 -10.24532
 Alpha  occ. eigenvalues --  -10.24449 -10.24272 -10.24187 -10.23455 -10.23129
 Alpha  occ. eigenvalues --   -3.13390  -1.88111  -1.87621  -1.87559  -1.18577
 Alpha  occ. eigenvalues --   -1.15212  -1.12419  -1.07939  -1.05072  -1.04812
 Alpha  occ. eigenvalues --   -1.02397  -1.01470  -1.00737  -0.91918  -0.91245
 Alpha  occ. eigenvalues --   -0.91004  -0.90433  -0.90345  -0.89859  -0.89783
 Alpha  occ. eigenvalues --   -0.89449  -0.87785  -0.87121  -0.86616  -0.86497
 Alpha  occ. eigenvalues --   -0.85110  -0.84531  -0.83717  -0.82906  -0.82608
 Alpha  occ. eigenvalues --   -0.81750  -0.80685  -0.80281  -0.79794  -0.78207
 Alpha  occ. eigenvalues --   -0.77880  -0.77308  -0.76613  -0.76471  -0.75372
 Alpha  occ. eigenvalues --   -0.75187  -0.74554  -0.74155  -0.73615  -0.73040
 Alpha  occ. eigenvalues --   -0.71796  -0.70617  -0.70046  -0.69106  -0.67606
 Alpha  occ. eigenvalues --   -0.67153  -0.66388  -0.65099  -0.64906  -0.64874
 Alpha  occ. eigenvalues --   -0.64168  -0.63906  -0.63882  -0.63293  -0.62930
 Alpha  occ. eigenvalues --   -0.60927  -0.60393  -0.59804  -0.59199  -0.58994
 Alpha  occ. eigenvalues --   -0.58420  -0.58032  -0.57802  -0.57499  -0.56306
 Alpha  occ. eigenvalues --   -0.56178  -0.55370  -0.55180  -0.55041  -0.54418
 Alpha  occ. eigenvalues --   -0.54205  -0.54006  -0.53717  -0.53509  -0.52746
 Alpha  occ. eigenvalues --   -0.52520  -0.52232  -0.51939  -0.51652  -0.51498
 Alpha  occ. eigenvalues --   -0.51280  -0.51003  -0.50728  -0.50417  -0.50340
 Alpha  occ. eigenvalues --   -0.50282  -0.49984  -0.49948  -0.49637  -0.49430
 Alpha  occ. eigenvalues --   -0.49175  -0.48911  -0.48748  -0.48489  -0.48345
 Alpha  occ. eigenvalues --   -0.48280  -0.48068  -0.47490  -0.47433  -0.47216
 Alpha  occ. eigenvalues --   -0.47110  -0.46935  -0.46734  -0.46386  -0.45961
 Alpha  occ. eigenvalues --   -0.45529  -0.45419  -0.45285  -0.45221  -0.44944
 Alpha  occ. eigenvalues --   -0.44865  -0.44736  -0.44644  -0.44290  -0.44220
 Alpha  occ. eigenvalues --   -0.44075  -0.43752  -0.43491  -0.43377  -0.43201
 Alpha  occ. eigenvalues --   -0.43153  -0.42991  -0.42843  -0.42680  -0.42507
 Alpha  occ. eigenvalues --   -0.42203  -0.42105  -0.41920  -0.41626  -0.41586
 Alpha  occ. eigenvalues --   -0.41256  -0.40770  -0.40640  -0.40407  -0.40339
 Alpha  occ. eigenvalues --   -0.40084  -0.39798  -0.39753  -0.39349  -0.39331
 Alpha  occ. eigenvalues --   -0.38687  -0.38553  -0.38305  -0.37937  -0.37690
 Alpha  occ. eigenvalues --   -0.37462  -0.37453  -0.37036  -0.36833  -0.36596
 Alpha  occ. eigenvalues --   -0.36347  -0.36056  -0.35897  -0.35689  -0.35022
 Alpha  occ. eigenvalues --   -0.34800  -0.34634  -0.34411  -0.33842  -0.33147
 Alpha  occ. eigenvalues --   -0.32824  -0.31948  -0.31561  -0.31080  -0.30223
 Alpha  occ. eigenvalues --   -0.29588  -0.29490  -0.28565  -0.27120  -0.23273
 Alpha  occ. eigenvalues --   -0.21491
 Alpha virt. eigenvalues --   -0.07054  -0.02706   0.02515   0.04366   0.05519
 Alpha virt. eigenvalues --    0.06321   0.06360   0.06430   0.07004   0.07119
 Alpha virt. eigenvalues --    0.08871   0.10796   0.11475   0.11704   0.11921

 Mulliken charges:
               1
     1  Mg   0.818974
     2  C    0.110647
     3  C   -0.203723
     4  C   -0.187678
     5  C   -0.128978
     6  N   -0.662633
     7  C    0.257198
     8  C   -0.135652
     9  C   -0.161113
    10  C    0.373184
    11  C   -0.308737
    12  C   -0.173308
    13  C   -0.260413
    14  C    0.568085
    15  O   -0.525629
    16  O   -0.463687
    17  N   -0.682395
    18  C    0.296314
    19  C    0.085368
    20  C    0.017693
    21  C    0.292650
    22  C   -0.420973
    23  C   -0.075447
    24  C   -0.237416
    25  N   -0.718947
    26  C    0.330902
    27  C    0.016983
    28  C    0.017111
    29  C    0.302259
    30  C   -0.379679
    31  C   -0.229041
    32  C   -0.304828
    33  N   -0.693172
    34  C    0.185223
    35  C    0.069095
    36  C   -0.055717
    37  C    0.294703
    38  C   -0.396139
    39  C    0.371946
    40  O   -0.425230
    41  C   -0.322653
    42  C    0.629438
    43  O   -0.467862
    44  O   -0.488718
    45  C   -0.086925
    46  C    0.013002
    47  C   -0.098286
    48  C    0.036298
    49  C   -0.356548
    50  C   -0.202386
    51  C   -0.171130
    52  C   -0.175839
    53  C   -0.049123
    54  C   -0.310618
    55  C   -0.175699
    56  C   -0.182592
    57  C   -0.169515
    58  C   -0.031850
    59  C   -0.327672
    60  C   -0.170847
    61  C   -0.177567
    62  C   -0.179898
    63  C   -0.033751
    64  C   -0.315087
    65  C   -0.316894
    66  H    0.082817
    67  H    0.080879
    68  H    0.087542
    69  H    0.130446
    70  H    0.103430
    71  H    0.115295
    72  H    0.079001
    73  H    0.128068
    74  H    0.119572
    75  H    0.105822
    76  H    0.121927
    77  H    0.135086
    78  H    0.132334
    79  H    0.111988
    80  H    0.119377
    81  H    0.102356
    82  H    0.102962
    83  H    0.113430
    84  H    0.116610
    85  H    0.103956
    86  H    0.112818
    87  H    0.109455
    88  H    0.084661
    89  H    0.087204
    90  H    0.124558
    91  H    0.115274
    92  H    0.098338
    93  H    0.143211
    94  H    0.138801
    95  H    0.165290
    96  H    0.139598
    97  H    0.134301
    98  H    0.132209
    99  H    0.152217
   100  H    0.137207
   101  H    0.105250
   102  H    0.115634
   103  H    0.113590
   104  H    0.135675
   105  H    0.113079
   106  H    0.072422
   107  H    0.102794
   108  H    0.079308
   109  H    0.099949
   110  H    0.073599
   111  H    0.096009
   112  H    0.106899
   113  H    0.094892
   114  H    0.114154
   115  H    0.102178
   116  H    0.067364
   117  H    0.097679
   118  H    0.056861
   119  H    0.075901
   120  H    0.092896
   121  H    0.093418
   122  H    0.090141
   123  H    0.110586
   124  H    0.098929
   125  H    0.071138
   126  H    0.087772
   127  H    0.104025
   128  H    0.086270
   129  H    0.068990
   130  H    0.087096
   131  H    0.101584
   132  H    0.080034
   133  H    0.105116
   134  H    0.081601
   135  H    0.092367
   136  H    0.101128
   137  H    0.110553
 Sum of Mulliken charges =   0.00000

 Dipole moment (field-independent basis, Debye):
    X=              1.9937    Y=              5.3743    Z=             -0.1077  Tot=              5.7332
 Quadrupole moment (field-independent basis, Debye-Ang):
   XX=           -339.2433   YY=           -386.0968   ZZ=           -400.3155
   XY=            -25.1683   XZ=              8.2147   YZ=             -1.1315

 Normal termination of Gaussian 09 at Sat Jun 29 21:33:42 2019.
