 Gaussian 09, Revision D.01,
 Gaussian 09:  ES64L-G09RevD.01 24-Apr-2013

 -------------------------------------
 # td=(NStates=1) CAM-B3LYP/6-31G(d,p)
 -------------------------------------

 --
 TD
 --
 Symbolic Z-matrix:
 Charge =  0 Multiplicity = 1

                         Standard orientation:
 ---------------------------------------------------------------------
 Center     Atomic      Atomic             Coordinates (Angstroms)
 Number     Number       Type             X           Y           Z
 ---------------------------------------------------------------------
      1         12           0       -7.081776    0.586167    0.113597
      2          6           0       -4.823889   -1.925908    0.560395
      3          6           0       -4.759107    2.803160    1.142157
      4          6           0       -9.350999    3.115324   -0.295374
      5          6           0       -9.498316   -1.712575   -0.867979
      6          7           0       -5.092324    0.482343    0.655086
      7          6           0       -4.361839   -0.729251    0.838765
      8          6           0       -2.915954   -0.442413    1.166178
      9          6           0       -3.015345    1.046248    1.611069
     10          6           0       -4.390920    1.455472    1.137674
     11          6           0       -2.902276    1.144071    3.119944
     12          6           0       -1.967292   -0.476623   -0.048886
     13          6           0       -0.469370   -0.358442    0.351699
     14          6           0        0.566338   -0.650784   -0.797891
     15          8           0        0.331076   -1.088271   -1.897202
     16          8           0        1.757371   -0.370866   -0.321312
     17          7           0       -7.079474    2.682547    0.380126
     18          6           0       -6.022039    3.423605    0.793924
     19          6           0       -6.333679    4.793438    0.838895
     20          6           0       -7.708693    4.879760    0.536260
     21          6           0       -8.117619    3.491114    0.189900
     22          6           0       -5.382836    5.883034    1.380152
     23          6           0       -8.621790    5.990205    0.466504
     24          6           0       -8.250011    7.222139    0.210098
     25          7           0       -9.023865    0.686855   -0.606991
     26          6           0       -9.735807    1.849375   -0.692209
     27          6           0      -11.205153    1.491093   -1.085791
     28          6           0      -11.262165    0.087523   -1.214151
     29          6           0       -9.913830   -0.353160   -0.901634
     30          6           0      -12.351096    2.330460   -1.270857
     31          6           0      -12.465019   -0.689812   -1.690568
     32          6           0      -12.408478   -0.889432   -3.153134
     33          7           0       -7.217128   -1.367781   -0.087990
     34          6           0       -8.229420   -2.167702   -0.443099
     35          6           0       -7.903058   -3.577704   -0.427357
     36          6           0       -6.438581   -3.469402   -0.213241
     37          6           0       -6.090586   -2.197847    0.142621
     38          6           0       -8.641811   -4.841099   -0.684836
     39          6           0       -5.307000   -4.384405    0.090625
     40          8           0       -5.257863   -5.585658    0.053996
     41          6           0       -4.170343   -3.319139    0.578792
     42          6           0       -3.557360   -3.679972    1.944139
     43          8           0       -3.739843   -3.168007    3.012227
     44          8           0       -2.846392   -4.776686    1.800499
     45          6           0       -2.276557   -5.391311    2.958562
     46          6           0        2.765501   -0.611107   -1.354230
     47          6           0        4.121731   -0.504418   -0.642468
     48          6           0        5.098985    0.293155   -1.018439
     49          6           0        5.072795    1.140289   -2.260335
     50          6           0        6.425616    0.371917   -0.265806
     51          6           0        7.711873   -0.229541   -0.908901
     52          6           0        8.825219   -0.154928   -0.019279
     53          6           0       10.111641   -0.553647   -0.823933
     54          6           0       10.071565   -1.957865   -1.212807
     55          6           0       11.406690   -0.317681   -0.062206
     56          6           0       12.804606   -0.516162   -0.633803
     57          6           0       13.995726    0.003334    0.204602
     58          6           0       15.376317   -0.310534   -0.528172
     59          6           0       15.708866   -1.711628   -0.899099
     60          6           0       16.430393    0.307680    0.325477
     61          6           0       17.773091    0.596289   -0.198258
     62          6           0       18.686151    1.231382    0.820073
     63          6           0       20.212528    1.385542    0.361875
     64          6           0       20.293293    2.279161   -0.958272
     65          6           0       21.057125    1.993968    1.422791
     66          1           0       -4.008961    3.547700    1.488877
     67          1           0      -10.127075    3.834736   -0.190910
     68          1           0      -10.341406   -2.432871   -1.175785
     69          1           0       -2.541783   -1.078790    1.925416
     70          1           0       -2.179976    1.666316    1.344630
     71          1           0       -1.799042    1.006117    3.388098
     72          1           0       -3.325139    2.209012    3.535185
     73          1           0       -3.763708    0.390215    3.532031
     74          1           0       -1.989685   -1.586166   -0.623241
     75          1           0       -2.284976    0.123270   -0.777084
     76          1           0       -0.344181    0.834459    0.568082
     77          1           0       -0.007718   -1.000843    1.150569
     78          1           0       -4.809635    6.013277    0.494510
     79          1           0       -6.111795    6.796038    1.299586
     80          1           0       -4.830828    5.618163    2.241219
     81          1           0       -9.676113    5.745505    0.409372
     82          1           0       -8.916875    8.042697    0.270873
     83          1           0       -7.298742    7.610987    0.036989
     84          1           0      -12.510019    2.831431   -2.432385
     85          1           0      -13.410472    1.699847   -1.166694
     86          1           0      -12.334405    3.129735   -0.470526
     87          1           0      -12.446974   -1.523447   -1.261703
     88          1           0      -13.311726   -0.219715   -1.269944
     89          1           0      -13.445889   -1.255017   -3.368905
     90          1           0      -12.232602    0.140718   -3.644006
     91          1           0      -11.575406   -1.589132   -3.328882
     92          1           0       -9.000103   -4.725758   -1.753626
     93          1           0       -7.942368   -5.877316   -0.969149
     94          1           0       -9.451472   -5.262000   -0.142812
     95          1           0       -3.416561   -3.660374   -0.195698
     96          1           0       -1.719747   -4.761627    3.526909
     97          1           0       -2.987179   -5.826577    3.501671
     98          1           0       -1.732348   -6.073059    2.353273
     99          1           0        2.768114   -1.772515   -1.428579
    100          1           0        2.548713    0.009359   -2.152686
    101          1           0        4.356985   -1.263873   -0.011402
    102          1           0        4.031904    1.119338   -2.819041
    103          1           0        5.280972    2.343690   -2.049906
    104          1           0        5.919887    0.998045   -2.813377
    105          1           0        6.585002    1.420452    0.099266
    106          1           0        6.353218   -0.272469    0.644375
    107          1           0        7.704633   -1.409383   -1.061556
    108          1           0        7.819862    0.224729   -2.072205
    109          1           0        9.152748    1.070450    0.114995
    110          1           0        8.626816   -0.659732    0.797843
    111          1           0       10.270002   -0.021131   -2.040558
    112          1           0        9.253364   -2.167687   -1.845875
    113          1           0       10.951028   -2.303427   -1.933223
    114          1           0       10.156461   -2.695449   -0.492033
    115          1           0       11.465646    0.654163    0.455178
    116          1           0       11.546525   -1.186833    0.737466
    117          1           0       12.757866   -1.602847   -0.792127
    118          1           0       12.948789   -0.174751   -1.592175
    119          1           0       13.930124    1.194129    0.236440
    120          1           0       14.433317   -0.252486    1.295987
    121          1           0       15.144444    0.266718   -1.386173
    122          1           0       15.814205   -2.238342    0.050327
    123          1           0       14.746589   -2.062294   -1.844218
    124          1           0       16.569618   -1.952718   -1.324084
    125          1           0       15.989154    1.406231    0.663229
    126          1           0       16.433088   -0.201835    1.434322
    127          1           0       17.995046   -0.391787   -0.767676
    128          1           0       17.613610    1.319476   -1.023608
    129          1           0       18.529106    2.406051    0.939356
    130          1           0       18.735906    0.507090    1.727786
    131          1           0       20.576775    0.292967    0.159856
    132          1           0       19.622044    3.210715   -0.891372
    133          1           0       21.378959    2.620621   -1.140781
    134          1           0       20.021116    1.766580   -1.735378
    135          1           0       21.098929    1.031438    2.172307
    136          1           0       22.081150    2.080730    0.958024
    137          1           0       20.572362    2.907714    1.783958
 ---------------------------------------------------------------------

 SCF Done:  E(RCAM-B3LYP) =  -2932.52879147     A.U. after   17 cycles

 Excitation energies and oscillator strengths:

 Excited State   1:      Singlet-A      1.9867 eV  624.08 nm  f=0.2825  <S**2>=0.000
     240 -> 243        0.21286
     241 -> 242        0.66931
 This state for optimization and/or second-order correction.
 Total Energy, E(TD-HF/TD-KS) =  -2932.45578299
 Copying the excited state density for this state as the 1-particle RhoCI density.

 The electronic state is 1-A.
 Alpha  occ. eigenvalues --  -46.83881 -19.26467 -19.25179 -19.20486 -19.20370
 Alpha  occ. eigenvalues --  -19.19869 -14.41697 -14.39924 -14.38845 -14.38527
 Alpha  occ. eigenvalues --  -10.38642 -10.38132 -10.34888 -10.32265 -10.30695
 Alpha  occ. eigenvalues --  -10.30209 -10.29735 -10.29711 -10.29175 -10.29106
 Alpha  occ. eigenvalues --  -10.29016 -10.28796 -10.28788 -10.28639 -10.28559
 Alpha  occ. eigenvalues --  -10.28456 -10.28279 -10.28274 -10.27802 -10.27768
 Alpha  occ. eigenvalues --  -10.27602 -10.27406 -10.27396 -10.27316 -10.27244
 Alpha  occ. eigenvalues --  -10.27226 -10.27180 -10.27115 -10.27112 -10.26887
 Alpha  occ. eigenvalues --  -10.26837 -10.26672 -10.26650 -10.26637 -10.26600
 Alpha  occ. eigenvalues --  -10.26446 -10.26438 -10.26387 -10.26272 -10.26255
 Alpha  occ. eigenvalues --  -10.26117 -10.26037 -10.25947 -10.25808 -10.25694
 Alpha  occ. eigenvalues --  -10.25601 -10.25511 -10.25407 -10.25212 -10.25194
 Alpha  occ. eigenvalues --  -10.24848 -10.24441 -10.24358 -10.24245 -10.24055
 Alpha  occ. eigenvalues --   -3.13003  -1.87704  -1.87260  -1.87172  -1.19468
 Alpha  occ. eigenvalues --   -1.18832  -1.11289  -1.09327  -1.08967  -1.05191
 Alpha  occ. eigenvalues --   -1.04232  -1.02861  -1.01467  -0.92949  -0.92430
 Alpha  occ. eigenvalues --   -0.91223  -0.90506  -0.90190  -0.89924  -0.89574
 Alpha  occ. eigenvalues --   -0.88424  -0.88418  -0.86934  -0.86553  -0.85766
 Alpha  occ. eigenvalues --   -0.85045  -0.84497  -0.84102  -0.83704  -0.83556
 Alpha  occ. eigenvalues --   -0.82210  -0.81572  -0.80992  -0.80698  -0.77968
 Alpha  occ. eigenvalues --   -0.77494  -0.77218  -0.76494  -0.75992  -0.75788
 Alpha  occ. eigenvalues --   -0.75712  -0.74617  -0.74019  -0.73420  -0.72317
 Alpha  occ. eigenvalues --   -0.70494  -0.70310  -0.70084  -0.69162  -0.68457
 Alpha  occ. eigenvalues --   -0.66938  -0.65532  -0.65342  -0.64941  -0.64007
 Alpha  occ. eigenvalues --   -0.63748  -0.63100  -0.63055  -0.62449  -0.62078
 Alpha  occ. eigenvalues --   -0.61155  -0.60870  -0.60696  -0.60276  -0.59319
 Alpha  occ. eigenvalues --   -0.58552  -0.58225  -0.57915  -0.56978  -0.56692
 Alpha  occ. eigenvalues --   -0.56356  -0.55771  -0.55383  -0.55347  -0.55048
 Alpha  occ. eigenvalues --   -0.54733  -0.54310  -0.54011  -0.53574  -0.53521
 Alpha  occ. eigenvalues --   -0.53206  -0.52872  -0.52654  -0.52182  -0.51959
 Alpha  occ. eigenvalues --   -0.51636  -0.51474  -0.51296  -0.51157  -0.51047
 Alpha  occ. eigenvalues --   -0.50601  -0.50561  -0.50127  -0.49567  -0.49409
 Alpha  occ. eigenvalues --   -0.49216  -0.48855  -0.48727  -0.48451  -0.48299
 Alpha  occ. eigenvalues --   -0.48081  -0.47938  -0.47651  -0.47473  -0.47251
 Alpha  occ. eigenvalues --   -0.47059  -0.46782  -0.46671  -0.46374  -0.46036
 Alpha  occ. eigenvalues --   -0.45813  -0.45732  -0.45631  -0.45197  -0.45002
 Alpha  occ. eigenvalues --   -0.44988  -0.44793  -0.44639  -0.44464  -0.44340
 Alpha  occ. eigenvalues --   -0.44278  -0.43920  -0.43685  -0.43609  -0.43158
 Alpha  occ. eigenvalues --   -0.42983  -0.42719  -0.42515  -0.42354  -0.42123
 Alpha  occ. eigenvalues --   -0.41918  -0.41847  -0.41714  -0.41603  -0.41114
 Alpha  occ. eigenvalues --   -0.40958  -0.40772  -0.40533  -0.40370  -0.40267
 Alpha  occ. eigenvalues --   -0.40118  -0.39921  -0.39332  -0.39295  -0.39078
 Alpha  occ. eigenvalues --   -0.38904  -0.38777  -0.38228  -0.37934  -0.37423
 Alpha  occ. eigenvalues --   -0.36942  -0.36901  -0.36812  -0.36544  -0.36208
 Alpha  occ. eigenvalues --   -0.35858  -0.35850  -0.35590  -0.35164  -0.35116
 Alpha  occ. eigenvalues --   -0.34893  -0.34782  -0.34551  -0.33671  -0.33257
 Alpha  occ. eigenvalues --   -0.32988  -0.32800  -0.32309  -0.30901  -0.29752
 Alpha  occ. eigenvalues --   -0.29181  -0.28288  -0.27523  -0.27255  -0.23145
 Alpha  occ. eigenvalues --   -0.20999
 Alpha virt. eigenvalues --   -0.06813  -0.02481   0.01868   0.04352   0.06135
 Alpha virt. eigenvalues --    0.06420   0.06444   0.06853   0.07562   0.08091
 Alpha virt. eigenvalues --    0.09171   0.09752   0.10259   0.10513   0.10975

 Mulliken charges:
               1
     1  Mg   0.817418
     2  C    0.129069
     3  C   -0.236904
     4  C   -0.166661
     5  C   -0.175577
     6  N   -0.657905
     7  C    0.247625
     8  C   -0.133964
     9  C   -0.158018
    10  C    0.419205
    11  C   -0.293922
    12  C   -0.148059
    13  C   -0.253864
    14  C    0.585840
    15  O   -0.478551
    16  O   -0.452831
    17  N   -0.707994
    18  C    0.326776
    19  C   -0.025284
    20  C    0.002536
    21  C    0.322517
    22  C   -0.346849
    23  C   -0.068537
    24  C   -0.247076
    25  N   -0.679698
    26  C    0.315638
    27  C    0.027251
    28  C    0.017864
    29  C    0.266220
    30  C   -0.381970
    31  C   -0.199573
    32  C   -0.291395
    33  N   -0.748883
    34  C    0.307504
    35  C    0.051980
    36  C   -0.071242
    37  C    0.274633
    38  C   -0.401690
    39  C    0.379409
    40  O   -0.445307
    41  C   -0.346333
    42  C    0.613108
    43  O   -0.483903
    44  O   -0.446923
    45  C   -0.078101
    46  C    0.021528
    47  C   -0.141134
    48  C    0.150602
    49  C   -0.351738
    50  C   -0.236257
    51  C   -0.161063
    52  C   -0.132024
    53  C   -0.026335
    54  C   -0.325976
    55  C   -0.172734
    56  C   -0.183287
    57  C   -0.173630
    58  C   -0.053917
    59  C   -0.267066
    60  C   -0.178099
    61  C   -0.158768
    62  C   -0.154634
    63  C   -0.078522
    64  C   -0.309440
    65  C   -0.269341
    66  H    0.070780
    67  H    0.082708
    68  H    0.096374
    69  H    0.124214
    70  H    0.105649
    71  H    0.108742
    72  H    0.084858
    73  H    0.111153
    74  H    0.083927
    75  H    0.124710
    76  H    0.105645
    77  H    0.136772
    78  H    0.138549
    79  H    0.105124
    80  H    0.134425
    81  H    0.098054
    82  H    0.100872
    83  H    0.108237
    84  H    0.091597
    85  H    0.095321
    86  H    0.111889
    87  H    0.110525
    88  H    0.103051
    89  H    0.102384
    90  H    0.107086
    91  H    0.114354
    92  H    0.119544
    93  H    0.121631
    94  H    0.139510
    95  H    0.161736
    96  H    0.130689
    97  H    0.138337
    98  H    0.132164
    99  H    0.122875
   100  H    0.131490
   101  H    0.090664
   102  H    0.098648
   103  H    0.078840
   104  H    0.137094
   105  H    0.111427
   106  H    0.090634
   107  H    0.085258
   108  H    0.067587
   109  H    0.062857
   110  H    0.114048
   111  H    0.042310
   112  H    0.112179
   113  H    0.081209
   114  H    0.111617
   115  H    0.080680
   116  H    0.074814
   117  H    0.100893
   118  H    0.096068
   119  H    0.082904
   120  H    0.079639
   121  H    0.093472
   122  H    0.097995
   123  H    0.042097
   124  H    0.122220
   125  H    0.057072
   126  H    0.062494
   127  H    0.077563
   128  H    0.099347
   129  H    0.085463
   130  H    0.086182
   131  H    0.070764
   132  H    0.084632
   133  H    0.084898
   134  H    0.122468
   135  H    0.076074
   136  H    0.102613
   137  H    0.104554
 Sum of Mulliken charges =   0.00000

 Dipole moment (field-independent basis, Debye):
    X=              2.0186    Y=              3.7843    Z=             -0.0387  Tot=              4.2893
 Quadrupole moment (field-independent basis, Debye-Ang):
   XX=           -330.1763   YY=           -389.1222   ZZ=           -406.0788
   XY=            -24.7725   XZ=             -0.1523   YZ=             -4.2661

 Normal termination of Gaussian 09 at Sun Jun 30 06:24:39 2019.
