 Gaussian 09, Revision D.01,
 Gaussian 09:  ES64L-G09RevD.01 24-Apr-2013

 -------------------------------------
 # td=(NStates=1) CAM-B3LYP/6-31G(d,p)
 -------------------------------------

 --
 TD
 --
 Symbolic Z-matrix:
 Charge =  0 Multiplicity = 1

                         Standard orientation:
 ---------------------------------------------------------------------
 Center     Atomic      Atomic             Coordinates (Angstroms)
 Number     Number       Type             X           Y           Z
 ---------------------------------------------------------------------
      1         12           0       -7.115662    0.600726    0.111830
      2          6           0       -4.776740   -2.022925    0.443397
      3          6           0       -4.788495    2.849676    1.110764
      4          6           0       -9.495286    3.096957   -0.291755
      5          6           0       -9.569315   -1.849167   -0.853806
      6          7           0       -5.061017    0.447926    0.699011
      7          6           0       -4.294686   -0.764985    0.766009
      8          6           0       -2.904885   -0.288537    1.172433
      9          6           0       -3.060931    1.172307    1.660432
     10          6           0       -4.385817    1.541655    1.068262
     11          6           0       -2.895176    1.262273    3.191136
     12          6           0       -1.800216   -0.566646    0.086848
     13          6           0       -0.370525   -0.322138    0.571505
     14          6           0        0.586184   -0.482629   -0.629011
     15          8           0        0.213260   -0.869073   -1.742850
     16          8           0        1.795257   -0.237572   -0.232134
     17          7           0       -7.116885    2.626322    0.409787
     18          6           0       -6.069006    3.387306    0.742329
     19          6           0       -6.548926    4.777183    0.890105
     20          6           0       -7.785276    4.811803    0.423778
     21          6           0       -8.316751    3.445534    0.215323
     22          6           0       -5.587619    5.853208    1.313223
     23          6           0       -8.691047    5.944235    0.280959
     24          6           0       -8.339002    7.266413    0.110435
     25          7           0       -9.094748    0.588729   -0.519643
     26          6           0       -9.925864    1.703222   -0.553997
     27          6           0      -11.178137    1.364951   -1.044501
     28          6           0      -11.217297    0.022966   -1.184352
     29          6           0       -9.988707   -0.470216   -0.850684
     30          6           0      -12.272057    2.325947   -1.368028
     31          6           0      -12.348775   -0.788670   -1.668258
     32          6           0      -12.338025   -1.170486   -3.155900
     33          7           0       -7.178056   -1.492813   -0.191782
     34          6           0       -8.266284   -2.334787   -0.530526
     35          6           0       -7.831431   -3.712554   -0.522838
     36          6           0       -6.519928   -3.576828   -0.100879
     37          6           0       -6.165970   -2.210385    0.116861
     38          6           0       -8.588647   -4.868866   -0.991744
     39          6           0       -5.262176   -4.333258    0.233491
     40          8           0       -5.213951   -5.533828    0.199005
     41          6           0       -4.152155   -3.398279    0.514433
     42          6           0       -3.533904   -3.654104    1.953723
     43          8           0       -3.808154   -3.054861    2.969410
     44          8           0       -2.763277   -4.689587    1.817940
     45          6           0       -2.213543   -5.181481    3.035326
     46          6           0        2.788871   -0.620868   -1.155681
     47          6           0        4.190387   -0.316521   -0.547769
     48          6           0        5.081650    0.507356   -0.977970
     49          6           0        4.914624    1.507694   -2.093125
     50          6           0        6.454947    0.447672   -0.240298
     51          6           0        7.703895   -0.046848   -0.950102
     52          6           0        8.954349    0.132940   -0.179854
     53          6           0       10.171173   -0.437285   -0.935467
     54          6           0       10.087458   -1.924239   -1.328856
     55          6           0       11.519656   -0.203258   -0.203764
     56          6           0       12.759922   -0.576603   -0.804749
     57          6           0       13.988777   -0.201180    0.119347
     58          6           0       15.362570   -0.246705   -0.612064
     59          6           0       15.584824   -1.608675   -1.082488
     60          6           0       16.412310    0.253511    0.424064
     61          6           0       17.767010    0.461600   -0.170315
     62          6           0       18.753589    1.105330    0.817686
     63          6           0       20.249663    1.219892    0.355613
     64          6           0       20.495721    2.057574   -0.921813
     65          6           0       21.273178    1.661977    1.469182
     66          1           0       -3.914755    3.524836    1.488574
     67          1           0      -10.282863    3.793261   -0.520927
     68          1           0      -10.204815   -2.657352   -1.281248
     69          1           0       -2.541150   -0.959939    1.875403
     70          1           0       -2.097688    1.756224    1.336747
     71          1           0       -1.882808    0.924593    3.423350
     72          1           0       -2.942378    2.175418    3.641495
     73          1           0       -3.938116    0.562340    3.605051
     74          1           0       -1.992927   -1.572999   -0.380382
     75          1           0       -1.992153    0.113328   -0.715710
     76          1           0       -0.119739    0.535077    0.956600
     77          1           0       -0.021589   -1.022857    1.320266
     78          1           0       -4.724211    6.189684    0.546970
     79          1           0       -6.130026    6.700216    1.840838
     80          1           0       -5.033423    5.410615    2.125314
     81          1           0       -9.690289    5.593195    0.182492
     82          1           0       -9.129227    8.047414   -0.011830
     83          1           0       -7.424315    7.358211   -0.008195
     84          1           0      -12.194429    2.904418   -2.216247
     85          1           0      -13.178154    1.864570   -1.654685
     86          1           0      -12.452733    3.076675   -0.559051
     87          1           0      -12.562008   -1.708715   -1.278750
     88          1           0      -13.343131   -0.365052   -1.601069
     89          1           0      -13.191567   -1.716724   -3.537862
     90          1           0      -12.077219   -0.200774   -3.868226
     91          1           0      -11.475146   -1.904382   -3.476083
     92          1           0       -8.945315   -4.685195   -2.132269
     93          1           0       -8.004843   -5.705636   -0.887713
     94          1           0       -9.609582   -5.124035   -0.417265
     95          1           0       -3.378959   -3.624636   -0.153354
     96          1           0       -1.889237   -4.331622    3.634158
     97          1           0       -3.056025   -5.769936    3.663872
     98          1           0       -1.254889   -5.882116    2.680710
     99          1           0        2.618379   -1.570231   -1.362189
    100          1           0        2.806083   -0.008406   -2.276019
    101          1           0        4.407023   -0.856453    0.389379
    102          1           0        3.815128    1.503983   -2.422536
    103          1           0        5.283101    2.483097   -1.604571
    104          1           0        5.671093    1.191752   -2.944160
    105          1           0        6.460999    1.490158    0.258919
    106          1           0        6.117573   -0.109610    0.794063
    107          1           0        7.309250   -1.040328   -1.253060
    108          1           0        7.666496    0.482927   -1.923029
    109          1           0        9.146634    1.090989    0.186236
    110          1           0        8.897225   -0.521724    0.752625
    111          1           0       10.067779    0.003569   -2.029282
    112          1           0        9.230521   -2.201234   -2.116512
    113          1           0       11.026824   -2.260710   -2.017438
    114          1           0        9.946728   -2.545745   -0.383382
    115          1           0       11.707085    0.944839    0.108640
    116          1           0       11.402259   -0.795893    0.639261
    117          1           0       12.853806   -1.692766   -0.876330
    118          1           0       12.942717    0.034578   -1.687342
    119          1           0       13.886685    0.933809    0.560751
    120          1           0       13.839293   -0.888750    1.034392
    121          1           0       15.432965    0.616379   -1.483492
    122          1           0       15.270357   -2.405105   -0.236292
    123          1           0       15.018144   -1.812542   -2.121641
    124          1           0       16.601226   -1.677548   -1.341893
    125          1           0       15.972183    1.179679    0.766948
    126          1           0       16.372753   -0.283585    1.260009
    127          1           0       18.403639   -0.286220   -0.617013
    128          1           0       17.682099    1.149797   -1.148281
    129          1           0       18.436472    2.158304    1.096763
    130          1           0       18.957148    0.474446    1.883322
    131          1           0       20.510866    0.211966    0.068549
    132          1           0       20.288775    3.079180   -0.782638
    133          1           0       21.603027    2.217690   -1.273383
    134          1           0       19.936513    1.577798   -1.840351
    135          1           0       21.119523    1.056069    2.303038
    136          1           0       22.081730    1.706348    1.233976
    137          1           0       20.934464    2.738542    1.752038
 ---------------------------------------------------------------------

 SCF Done:  E(RCAM-B3LYP) =  -2932.62593258     A.U. after   15 cycles

 Excitation energies and oscillator strengths:

 Excited State   1:      Singlet-A      2.2748 eV  545.05 nm  f=0.1893  <S**2>=0.000
     240 -> 242       -0.13190
     240 -> 243       -0.27191
     241 -> 242        0.62009
     241 -> 243       -0.10595
 This state for optimization and/or second-order correction.
 Total Energy, E(TD-HF/TD-KS) =  -2932.54233704
 Copying the excited state density for this state as the 1-particle RhoCI density.

 The electronic state is 1-A.
 Alpha  occ. eigenvalues --  -46.84236 -19.28116 -19.27937 -19.21475 -19.20604
 Alpha  occ. eigenvalues --  -19.19301 -14.40732 -14.39655 -14.38805 -14.38708
 Alpha  occ. eigenvalues --  -10.39768 -10.39180 -10.33931 -10.33855 -10.32825
 Alpha  occ. eigenvalues --  -10.31064 -10.30958 -10.30572 -10.29571 -10.28991
 Alpha  occ. eigenvalues --  -10.28494 -10.28165 -10.28066 -10.28038 -10.27988
 Alpha  occ. eigenvalues --  -10.27911 -10.27719 -10.27575 -10.27547 -10.27488
 Alpha  occ. eigenvalues --  -10.27199 -10.27185 -10.27167 -10.27115 -10.27013
 Alpha  occ. eigenvalues --  -10.26962 -10.26943 -10.26898 -10.26880 -10.26816
 Alpha  occ. eigenvalues --  -10.26761 -10.26718 -10.26621 -10.26538 -10.26341
 Alpha  occ. eigenvalues --  -10.26283 -10.26261 -10.26231 -10.26090 -10.26041
 Alpha  occ. eigenvalues --  -10.25871 -10.25749 -10.25696 -10.25581 -10.25282
 Alpha  occ. eigenvalues --  -10.25279 -10.25093 -10.24959 -10.24733 -10.24479
 Alpha  occ. eigenvalues --  -10.24343 -10.24311 -10.24070 -10.23997 -10.22403
 Alpha  occ. eigenvalues --   -3.13045  -1.87783  -1.87273  -1.87202  -1.21229
 Alpha  occ. eigenvalues --   -1.21038  -1.11189  -1.10448  -1.08922  -1.04240
 Alpha  occ. eigenvalues --   -1.02948  -1.02124  -1.01385  -0.92433  -0.91888
 Alpha  occ. eigenvalues --   -0.91155  -0.90100  -0.89704  -0.89332  -0.88710
 Alpha  occ. eigenvalues --   -0.88109  -0.87843  -0.87357  -0.86732  -0.86499
 Alpha  occ. eigenvalues --   -0.85643  -0.84733  -0.83390  -0.83243  -0.82882
 Alpha  occ. eigenvalues --   -0.82064  -0.81420  -0.80655  -0.80045  -0.78186
 Alpha  occ. eigenvalues --   -0.77908  -0.77284  -0.76997  -0.76297  -0.76152
 Alpha  occ. eigenvalues --   -0.75252  -0.75050  -0.74224  -0.73640  -0.72232
 Alpha  occ. eigenvalues --   -0.71672  -0.70531  -0.69257  -0.69021  -0.68428
 Alpha  occ. eigenvalues --   -0.67410  -0.66616  -0.65336  -0.64973  -0.64701
 Alpha  occ. eigenvalues --   -0.64224  -0.64026  -0.62708  -0.62508  -0.62134
 Alpha  occ. eigenvalues --   -0.61318  -0.60868  -0.59988  -0.59395  -0.59057
 Alpha  occ. eigenvalues --   -0.58278  -0.58146  -0.58011  -0.57828  -0.57458
 Alpha  occ. eigenvalues --   -0.56463  -0.55972  -0.55668  -0.55576  -0.55025
 Alpha  occ. eigenvalues --   -0.54620  -0.54362  -0.54185  -0.53877  -0.53346
 Alpha  occ. eigenvalues --   -0.53128  -0.52683  -0.52395  -0.52037  -0.51658
 Alpha  occ. eigenvalues --   -0.51486  -0.51128  -0.50920  -0.50774  -0.50441
 Alpha  occ. eigenvalues --   -0.50171  -0.50013  -0.49986  -0.49743  -0.49478
 Alpha  occ. eigenvalues --   -0.49302  -0.49207  -0.48896  -0.48586  -0.48330
 Alpha  occ. eigenvalues --   -0.47921  -0.47801  -0.47707  -0.47543  -0.47284
 Alpha  occ. eigenvalues --   -0.47089  -0.46915  -0.46480  -0.46215  -0.45823
 Alpha  occ. eigenvalues --   -0.45708  -0.45587  -0.45168  -0.45084  -0.44748
 Alpha  occ. eigenvalues --   -0.44581  -0.44509  -0.44266  -0.44126  -0.43976
 Alpha  occ. eigenvalues --   -0.43821  -0.43722  -0.43483  -0.43470  -0.43340
 Alpha  occ. eigenvalues --   -0.43290  -0.43212  -0.42986  -0.42567  -0.42373
 Alpha  occ. eigenvalues --   -0.42183  -0.42129  -0.42072  -0.41808  -0.41563
 Alpha  occ. eigenvalues --   -0.41228  -0.40850  -0.40575  -0.40543  -0.40134
 Alpha  occ. eigenvalues --   -0.39940  -0.39795  -0.39320  -0.39076  -0.38818
 Alpha  occ. eigenvalues --   -0.38726  -0.38073  -0.37790  -0.37491  -0.37464
 Alpha  occ. eigenvalues --   -0.37324  -0.37128  -0.36786  -0.36633  -0.36498
 Alpha  occ. eigenvalues --   -0.36328  -0.36129  -0.35812  -0.35809  -0.35781
 Alpha  occ. eigenvalues --   -0.35727  -0.35503  -0.35150  -0.34144  -0.33586
 Alpha  occ. eigenvalues --   -0.33370  -0.32570  -0.32052  -0.31007  -0.30315
 Alpha  occ. eigenvalues --   -0.28965  -0.28833  -0.27660  -0.27287  -0.23336
 Alpha  occ. eigenvalues --   -0.21653
 Alpha virt. eigenvalues --   -0.05440  -0.03251   0.02477   0.04128   0.06433
 Alpha virt. eigenvalues --    0.06568   0.06788   0.06915   0.07200   0.07896
 Alpha virt. eigenvalues --    0.08266   0.10718   0.11342   0.11578   0.11740

 Mulliken charges:
               1
     1  Mg   0.809415
     2  C    0.046704
     3  C   -0.220788
     4  C   -0.147892
     5  C   -0.146559
     6  N   -0.699201
     7  C    0.307855
     8  C   -0.159674
     9  C   -0.162716
    10  C    0.413370
    11  C   -0.273013
    12  C   -0.180080
    13  C   -0.260074
    14  C    0.596354
    15  O   -0.493773
    16  O   -0.425485
    17  N   -0.720125
    18  C    0.352461
    19  C    0.009130
    20  C    0.015018
    21  C    0.288654
    22  C   -0.375158
    23  C   -0.079149
    24  C   -0.215794
    25  N   -0.686377
    26  C    0.253846
    27  C    0.025299
    28  C    0.078693
    29  C    0.241226
    30  C   -0.385734
    31  C   -0.252764
    32  C   -0.306217
    33  N   -0.719459
    34  C    0.214938
    35  C    0.068902
    36  C   -0.066573
    37  C    0.362750
    38  C   -0.380995
    39  C    0.381101
    40  O   -0.458873
    41  C   -0.296613
    42  C    0.605584
    43  O   -0.471295
    44  O   -0.400103
    45  C   -0.093450
    46  C    0.017808
    47  C   -0.147359
    48  C    0.123965
    49  C   -0.342245
    50  C   -0.228874
    51  C   -0.167588
    52  C   -0.152794
    53  C   -0.061944
    54  C   -0.308068
    55  C   -0.145645
    56  C   -0.174421
    57  C   -0.183011
    58  C   -0.049696
    59  C   -0.285674
    60  C   -0.156947
    61  C   -0.180293
    62  C   -0.153925
    63  C   -0.081817
    64  C   -0.308058
    65  C   -0.261210
    66  H    0.079464
    67  H    0.105221
    68  H    0.106296
    69  H    0.114094
    70  H    0.089166
    71  H    0.106134
    72  H    0.117667
    73  H    0.086151
    74  H    0.116136
    75  H    0.121767
    76  H    0.132943
    77  H    0.128938
    78  H    0.114170
    79  H    0.117475
    80  H    0.123725
    81  H    0.079104
    82  H    0.109944
    83  H    0.091983
    84  H    0.127204
    85  H    0.112858
    86  H    0.106752
    87  H    0.114360
    88  H    0.109888
    89  H    0.108163
    90  H    0.079361
    91  H    0.083410
    92  H    0.110841
    93  H    0.155791
    94  H    0.108727
    95  H    0.168425
    96  H    0.144121
    97  H    0.129592
    98  H    0.112806
    99  H    0.134497
   100  H    0.083253
   101  H    0.086080
   102  H    0.113283
   103  H    0.116810
   104  H    0.110997
   105  H    0.080219
   106  H    0.069778
   107  H    0.115295
   108  H    0.095795
   109  H    0.112718
   110  H    0.084365
   111  H    0.062434
   112  H    0.088090
   113  H    0.096359
   114  H    0.092058
   115  H    0.066457
   116  H    0.092156
   117  H    0.100867
   118  H    0.095849
   119  H    0.054537
   120  H    0.081291
   121  H    0.064785
   122  H    0.087210
   123  H    0.089798
   124  H    0.107346
   125  H    0.098777
   126  H    0.103529
   127  H    0.103964
   128  H    0.076014
   129  H    0.084269
   130  H    0.058364
   131  H    0.087470
   132  H    0.108521
   133  H    0.082175
   134  H    0.084445
   135  H    0.099436
   136  H    0.096163
   137  H    0.076302
 Sum of Mulliken charges =   0.00000

 Dipole moment (field-independent basis, Debye):
    X=              3.9941    Y=              3.3122    Z=              0.9595  Tot=              5.2768
 Quadrupole moment (field-independent basis, Debye-Ang):
   XX=           -346.1518   YY=           -389.9898   ZZ=           -400.4442
   XY=            -19.5746   XZ=             11.2397   YZ=             -3.1727

 Normal termination of Gaussian 09 at Sat Jun 29 07:18:19 2019.
