 Gaussian 09, Revision D.01,
 Gaussian 09:  ES64L-G09RevD.01 24-Apr-2013

 -------------------------------------
 # td=(NStates=1) CAM-B3LYP/6-31G(d,p)
 -------------------------------------

 --
 TD
 --
 Symbolic Z-matrix:
 Charge =  0 Multiplicity = 1

                         Standard orientation:
 ---------------------------------------------------------------------
 Center     Atomic      Atomic             Coordinates (Angstroms)
 Number     Number       Type             X           Y           Z
 ---------------------------------------------------------------------
      1         12           0       -7.119292    0.592725    0.000579
      2          6           0       -4.827176   -1.940584    0.418359
      3          6           0       -4.916475    2.979822    1.176054
      4          6           0       -9.483256    2.997468   -0.286014
      5          6           0       -9.493625   -1.871674   -1.050868
      6          7           0       -5.131138    0.485399    0.785994
      7          6           0       -4.390715   -0.644145    0.810084
      8          6           0       -2.936669   -0.284761    1.172763
      9          6           0       -3.027910    1.084321    1.688915
     10          6           0       -4.445868    1.584698    1.217141
     11          6           0       -2.878920    1.309446    3.285904
     12          6           0       -1.905512   -0.555391    0.065690
     13          6           0       -0.511778   -0.250432    0.488974
     14          6           0        0.467470   -0.663981   -0.588513
     15          8           0        0.197566   -1.111386   -1.729189
     16          8           0        1.755876   -0.330069   -0.168042
     17          7           0       -7.267536    2.657267    0.393297
     18          6           0       -6.200208    3.403847    0.849417
     19          6           0       -6.608847    4.790345    0.831956
     20          6           0       -7.946185    4.772633    0.398940
     21          6           0       -8.313168    3.516096    0.084177
     22          6           0       -5.872687    5.908080    1.248853
     23          6           0       -8.753895    5.990581    0.262600
     24          6           0       -8.281770    7.191247    0.100577
     25          7           0       -9.115840    0.554426   -0.542831
     26          6           0       -9.843892    1.689994   -0.636185
     27          6           0      -11.220439    1.364842   -1.099849
     28          6           0      -11.260146   -0.029884   -1.238427
     29          6           0       -9.937907   -0.485635   -0.927867
     30          6           0      -12.349147    2.303107   -1.355116
     31          6           0      -12.387305   -0.908901   -1.721940
     32          6           0      -12.385200   -1.105913   -3.297062
     33          7           0       -7.227104   -1.429727   -0.272025
     34          6           0       -8.224587   -2.328925   -0.620629
     35          6           0       -7.832621   -3.634566   -0.566232
     36          6           0       -6.487308   -3.531267   -0.099928
     37          6           0       -6.178956   -2.204666    0.046351
     38          6           0       -8.485488   -4.881356   -0.895044
     39          6           0       -5.235091   -4.352672    0.246501
     40          8           0       -5.024949   -5.561193    0.084344
     41          6           0       -4.113249   -3.276602    0.676873
     42          6           0       -3.601960   -3.621837    2.086476
     43          8           0       -3.962321   -3.084201    3.079915
     44          8           0       -2.607838   -4.592613    1.896747
     45          6           0       -2.169245   -5.038194    3.187690
     46          6           0        2.777899   -0.515132   -1.134532
     47          6           0        4.135591   -0.297988   -0.442862
     48          6           0        5.188844    0.324997   -0.935019
     49          6           0        5.195916    1.167490   -2.283346
     50          6           0        6.459988    0.277682   -0.158338
     51          6           0        7.767285   -0.185419   -0.988513
     52          6           0        8.993456   -0.205352   -0.236912
     53          6           0       10.197766   -0.653711   -0.916985
     54          6           0       10.256257   -2.092120   -1.366559
     55          6           0       11.445039   -0.210310   -0.069712
     56          6           0       12.850244   -0.440888   -0.789685
     57          6           0       13.980213   -0.161708    0.145534
     58          6           0       15.472461   -0.178705   -0.440476
     59          6           0       15.844799   -1.531543   -0.805440
     60          6           0       16.535278    0.394527    0.600954
     61          6           0       17.818063    0.559397   -0.172202
     62          6           0       18.836319    1.416657    0.737622
     63          6           0       20.269238    1.318529    0.192878
     64          6           0       20.420096    2.042470   -1.133895
     65          6           0       21.187275    1.899488    1.293768
     66          1           0       -4.420105    3.610540    1.720332
     67          1           0      -10.157857    3.722897   -0.536400
     68          1           0      -10.112711   -2.605008   -1.452294
     69          1           0       -2.616902   -1.057936    2.051658
     70          1           0       -2.374873    1.685447    1.194356
     71          1           0       -1.760984    1.150085    3.798299
     72          1           0       -3.078005    2.534851    3.486237
     73          1           0       -3.720476    0.649373    3.632077
     74          1           0       -2.048938   -1.681131   -0.026455
     75          1           0       -2.230915   -0.275334   -1.081547
     76          1           0       -0.273663    0.829768    0.849056
     77          1           0       -0.068752   -0.846283    1.454157
     78          1           0       -5.476763    6.420256    0.390619
     79          1           0       -6.467443    6.562331    1.790073
     80          1           0       -5.093238    5.779845    1.941037
     81          1           0       -9.792186    5.720527    0.120852
     82          1           0       -9.193630    8.066559   -0.030120
     83          1           0       -7.201508    7.559336    0.142859
     84          1           0      -12.247909    2.679557   -2.428099
     85          1           0      -13.228318    1.661967   -1.279877
     86          1           0      -12.324815    3.069210   -0.649312
     87          1           0      -12.503931   -1.786270   -1.019579
     88          1           0      -13.423473   -0.480124   -1.427921
     89          1           0      -13.180312   -2.009573   -3.465201
     90          1           0      -12.663937    0.030826   -3.637599
     91          1           0      -11.376299   -1.433311   -3.524070
     92          1           0       -8.709629   -4.893647   -1.977492
     93          1           0       -7.974073   -5.784897   -0.667352
     94          1           0       -9.575162   -4.785414   -0.367277
     95          1           0       -3.179535   -3.483537   -0.090422
     96          1           0       -1.513984   -4.304255    3.514223
     97          1           0       -2.956950   -5.274690    3.793428
     98          1           0       -1.658358   -6.103687    2.866693
     99          1           0        2.623363   -1.720285   -1.336634
    100          1           0        2.693597    0.182777   -1.995870
    101          1           0        4.211540   -0.891142    0.468457
    102          1           0        4.009696    1.263808   -2.624770
    103          1           0        5.588467    2.061073   -1.947669
    104          1           0        5.673237    0.537500   -3.107154
    105          1           0        6.635809    1.359640    0.051150
    106          1           0        6.298003   -0.180021    0.713929
    107          1           0        7.703547   -1.046392   -1.444901
    108          1           0        7.914472    0.524169   -1.822824
    109          1           0        9.185122    0.839972    0.254123
    110          1           0        8.897345   -0.993794    0.627374
    111          1           0       10.200883   -0.234881   -1.833426
    112          1           0        9.338374   -2.239526   -1.939133
    113          1           0       11.035616   -2.401144   -2.045069
    114          1           0       10.256569   -2.696815   -0.502281
    115          1           0       11.602243    0.817518    0.379988
    116          1           0       11.593292   -0.998110    0.869055
    117          1           0       12.801302   -1.539854   -1.271262
    118          1           0       12.815128    0.528996   -1.666715
    119          1           0       13.716414    0.908532    0.432542
    120          1           0       14.021336   -0.879061    0.982437
    121          1           0       15.466465    0.549330   -1.219311
    122          1           0       15.739067   -2.262016    0.143401
    123          1           0       15.296025   -2.168670   -1.489701
    124          1           0       16.788387   -1.566676   -1.203563
    125          1           0       16.402014    1.396362    0.814720
    126          1           0       16.619612   -0.232062    1.474475
    127          1           0       18.553137   -0.269193   -0.666990
    128          1           0       17.784191    1.142809   -1.194164
    129          1           0       18.559559    2.316006    1.042633
    130          1           0       18.694010    0.885007    1.760044
    131          1           0       20.436418    0.229513    0.046068
    132          1           0       20.236813    3.099517   -1.001644
    133          1           0       21.442979    1.966084   -1.624170
    134          1           0       19.594618    1.692515   -1.805795
    135          1           0       21.055622    1.737958    2.518066
    136          1           0       22.190866    1.499075    0.745943
    137          1           0       21.132907    3.083605    1.124129
 ---------------------------------------------------------------------

 SCF Done:  E(RCAM-B3LYP) =  -2932.61830345     A.U. after   18 cycles

 Excitation energies and oscillator strengths:

 Excited State   1:      Singlet-A      2.0671 eV  599.79 nm  f=0.1953  <S**2>=0.000
     240 -> 243        0.28612
     241 -> 242        0.64163
 This state for optimization and/or second-order correction.
 Total Energy, E(TD-HF/TD-KS) =  -2932.54233797
 Copying the excited state density for this state as the 1-particle RhoCI density.

 The electronic state is 1-A.
 Alpha  occ. eigenvalues --  -46.84813 -19.26162 -19.25859 -19.22586 -19.21598
 Alpha  occ. eigenvalues --  -19.20447 -14.42309 -14.39377 -14.38576 -14.38301
 Alpha  occ. eigenvalues --  -10.39983 -10.39883 -10.35746 -10.32627 -10.32436
 Alpha  occ. eigenvalues --  -10.31163 -10.30793 -10.29937 -10.29673 -10.29609
 Alpha  occ. eigenvalues --  -10.29486 -10.29119 -10.29108 -10.28257 -10.28227
 Alpha  occ. eigenvalues --  -10.28212 -10.28159 -10.28112 -10.27999 -10.27736
 Alpha  occ. eigenvalues --  -10.27700 -10.27676 -10.27591 -10.27560 -10.27433
 Alpha  occ. eigenvalues --  -10.27430 -10.27230 -10.27195 -10.27103 -10.26868
 Alpha  occ. eigenvalues --  -10.26695 -10.26673 -10.26567 -10.26206 -10.26168
 Alpha  occ. eigenvalues --  -10.26124 -10.25854 -10.25852 -10.25707 -10.25675
 Alpha  occ. eigenvalues --  -10.25658 -10.25492 -10.25451 -10.25381 -10.25274
 Alpha  occ. eigenvalues --  -10.25267 -10.25235 -10.24918 -10.24891 -10.24737
 Alpha  occ. eigenvalues --  -10.24529 -10.24358 -10.24164 -10.24021 -10.23815
 Alpha  occ. eigenvalues --   -3.13632  -1.88358  -1.87881  -1.87777  -1.18098
 Alpha  occ. eigenvalues --   -1.16527  -1.11024  -1.09513  -1.07986  -1.04681
 Alpha  occ. eigenvalues --   -1.03819  -1.03360  -1.02206  -0.92284  -0.91474
 Alpha  occ. eigenvalues --   -0.90551  -0.90388  -0.89964  -0.89878  -0.89519
 Alpha  occ. eigenvalues --   -0.88417  -0.88041  -0.87730  -0.86733  -0.85861
 Alpha  occ. eigenvalues --   -0.85060  -0.84442  -0.83492  -0.83142  -0.82752
 Alpha  occ. eigenvalues --   -0.81195  -0.80880  -0.80662  -0.79854  -0.78738
 Alpha  occ. eigenvalues --   -0.77366  -0.77116  -0.76907  -0.75570  -0.75241
 Alpha  occ. eigenvalues --   -0.75113  -0.74911  -0.73921  -0.72951  -0.72510
 Alpha  occ. eigenvalues --   -0.71354  -0.70442  -0.69032  -0.68679  -0.67281
 Alpha  occ. eigenvalues --   -0.66224  -0.66153  -0.65125  -0.64914  -0.64627
 Alpha  occ. eigenvalues --   -0.63931  -0.63590  -0.62665  -0.62159  -0.61813
 Alpha  occ. eigenvalues --   -0.61365  -0.61158  -0.60217  -0.59376  -0.58966
 Alpha  occ. eigenvalues --   -0.58752  -0.58235  -0.58202  -0.56747  -0.56327
 Alpha  occ. eigenvalues --   -0.56166  -0.55972  -0.55745  -0.55490  -0.55467
 Alpha  occ. eigenvalues --   -0.54501  -0.54037  -0.53791  -0.53488  -0.53059
 Alpha  occ. eigenvalues --   -0.52897  -0.52334  -0.52238  -0.51934  -0.51379
 Alpha  occ. eigenvalues --   -0.51324  -0.51147  -0.50860  -0.50647  -0.50583
 Alpha  occ. eigenvalues --   -0.50394  -0.50265  -0.50053  -0.49985  -0.49539
 Alpha  occ. eigenvalues --   -0.49185  -0.49082  -0.48983  -0.48844  -0.48258
 Alpha  occ. eigenvalues --   -0.48005  -0.47630  -0.47597  -0.47482  -0.47301
 Alpha  occ. eigenvalues --   -0.47177  -0.46932  -0.46835  -0.46265  -0.46212
 Alpha  occ. eigenvalues --   -0.46052  -0.45922  -0.45804  -0.45453  -0.45090
 Alpha  occ. eigenvalues --   -0.44906  -0.44724  -0.44503  -0.44277  -0.43948
 Alpha  occ. eigenvalues --   -0.43873  -0.43568  -0.43536  -0.43514  -0.43351
 Alpha  occ. eigenvalues --   -0.42929  -0.42880  -0.42594  -0.42537  -0.42375
 Alpha  occ. eigenvalues --   -0.42213  -0.42033  -0.41797  -0.41701  -0.41315
 Alpha  occ. eigenvalues --   -0.40768  -0.40591  -0.40463  -0.40348  -0.39796
 Alpha  occ. eigenvalues --   -0.39761  -0.39573  -0.39411  -0.39293  -0.39142
 Alpha  occ. eigenvalues --   -0.38589  -0.38158  -0.38127  -0.37870  -0.37810
 Alpha  occ. eigenvalues --   -0.37315  -0.37251  -0.37144  -0.36751  -0.36714
 Alpha  occ. eigenvalues --   -0.36347  -0.36139  -0.36089  -0.35797  -0.35595
 Alpha  occ. eigenvalues --   -0.35449  -0.35163  -0.34627  -0.34049  -0.33858
 Alpha  occ. eigenvalues --   -0.33161  -0.32564  -0.31573  -0.30442  -0.29730
 Alpha  occ. eigenvalues --   -0.29602  -0.28728  -0.27744  -0.26857  -0.22897
 Alpha  occ. eigenvalues --   -0.21640
 Alpha virt. eigenvalues --   -0.06648  -0.03295   0.01443   0.04220   0.04555
 Alpha virt. eigenvalues --    0.05271   0.06301   0.06886   0.07171   0.07498
 Alpha virt. eigenvalues --    0.08239   0.10143   0.10562   0.11642   0.11748

 Mulliken charges:
               1
     1  Mg   0.819960
     2  C    0.032970
     3  C   -0.164248
     4  C   -0.157607
     5  C   -0.156837
     6  N   -0.630110
     7  C    0.312742
     8  C   -0.163535
     9  C   -0.134108
    10  C    0.286644
    11  C   -0.283457
    12  C   -0.170780
    13  C   -0.259275
    14  C    0.623709
    15  O   -0.483674
    16  O   -0.493143
    17  N   -0.739528
    18  C    0.323992
    19  C    0.025967
    20  C    0.006657
    21  C    0.327084
    22  C   -0.420271
    23  C   -0.026135
    24  C   -0.256950
    25  N   -0.686179
    26  C    0.317208
    27  C   -0.018438
    28  C    0.040659
    29  C    0.264970
    30  C   -0.360878
    31  C   -0.269734
    32  C   -0.279409
    33  N   -0.738560
    34  C    0.259722
    35  C    0.066542
    36  C   -0.056568
    37  C    0.340167
    38  C   -0.377477
    39  C    0.369132
    40  O   -0.460717
    41  C   -0.304542
    42  C    0.624893
    43  O   -0.442078
    44  O   -0.468110
    45  C   -0.079219
    46  C    0.033928
    47  C   -0.137742
    48  C    0.105389
    49  C   -0.338983
    50  C   -0.216341
    51  C   -0.178346
    52  C   -0.146903
    53  C   -0.054991
    54  C   -0.325563
    55  C   -0.159612
    56  C   -0.158325
    57  C   -0.158479
    58  C   -0.065331
    59  C   -0.297060
    60  C   -0.168140
    61  C   -0.191329
    62  C   -0.172701
    63  C   -0.067301
    64  C   -0.305076
    65  C   -0.281909
    66  H    0.065337
    67  H    0.071131
    68  H    0.093666
    69  H    0.101658
    70  H    0.113354
    71  H    0.095320
    72  H    0.081299
    73  H    0.135761
    74  H    0.119200
    75  H    0.124269
    76  H    0.144138
    77  H    0.127388
    78  H    0.132146
    79  H    0.138355
    80  H    0.114870
    81  H    0.088466
    82  H    0.071478
    83  H    0.112576
    84  H    0.118175
    85  H    0.117954
    86  H    0.123025
    87  H    0.103607
    88  H    0.090847
    89  H    0.096020
    90  H    0.106008
    91  H    0.124611
    92  H    0.128463
    93  H    0.156512
    94  H    0.097785
    95  H    0.155055
    96  H    0.130831
    97  H    0.144841
    98  H    0.107928
    99  H    0.106883
   100  H    0.108519
   101  H    0.085406
   102  H    0.081881
   103  H    0.130606
   104  H    0.130451
   105  H    0.094741
   106  H    0.105809
   107  H    0.106399
   108  H    0.087604
   109  H    0.079582
   110  H    0.066587
   111  H    0.093204
   112  H    0.097971
   113  H    0.115081
   114  H    0.107637
   115  H    0.090112
   116  H    0.055692
   117  H    0.077071
   118  H    0.037750
   119  H    0.075571
   120  H    0.085506
   121  H    0.088733
   122  H    0.069832
   123  H    0.103775
   124  H    0.114288
   125  H    0.111705
   126  H    0.104220
   127  H    0.076283
   128  H    0.077979
   129  H    0.097930
   130  H    0.069740
   131  H    0.092437
   132  H    0.106954
   133  H    0.099144
   134  H    0.100880
   135  H    0.094824
   136  H    0.080899
   137  H    0.081609
 Sum of Mulliken charges =   0.00000

 Dipole moment (field-independent basis, Debye):
    X=              1.4704    Y=              4.5251    Z=              0.4926  Tot=              4.7835
 Quadrupole moment (field-independent basis, Debye-Ang):
   XX=           -357.3580   YY=           -394.2663   ZZ=           -398.3758
   XY=            -13.4864   XZ=              5.8630   YZ=             -2.1371

 Normal termination of Gaussian 09 at Thu Jun 27 07:09:31 2019.
