 Gaussian 09, Revision D.01,
 Gaussian 09:  ES64L-G09RevD.01 24-Apr-2013

 -------------------------------------
 # td=(NStates=1) CAM-B3LYP/6-31G(d,p)
 -------------------------------------

 --
 TD
 --
 Symbolic Z-matrix:
 Charge =  0 Multiplicity = 1

                         Standard orientation:
 ---------------------------------------------------------------------
 Center     Atomic      Atomic             Coordinates (Angstroms)
 Number     Number       Type             X           Y           Z
 ---------------------------------------------------------------------
      1         12           0       -7.189381    0.528962    0.168353
      2          6           0       -4.853464   -1.943198    0.511283
      3          6           0       -4.815102    2.822029    1.153558
      4          6           0       -9.342407    3.020088   -0.334533
      5          6           0       -9.570833   -1.752861   -0.852181
      6          7           0       -5.038468    0.489562    0.833689
      7          6           0       -4.371327   -0.666345    0.788056
      8          6           0       -2.892348   -0.412659    1.249585
      9          6           0       -3.014985    1.133882    1.775846
     10          6           0       -4.348895    1.511580    1.207128
     11          6           0       -2.670573    1.266928    3.195399
     12          6           0       -1.802045   -0.534839    0.091460
     13          6           0       -0.458170   -0.321812    0.537737
     14          6           0        0.422063   -0.685520   -0.538569
     15          8           0        0.244068   -1.126087   -1.679758
     16          8           0        1.735417   -0.460438   -0.103249
     17          7           0       -7.131471    2.613897    0.308123
     18          6           0       -6.077365    3.335936    0.664789
     19          6           0       -6.374361    4.738986    0.699298
     20          6           0       -7.759667    4.776393    0.374686
     21          6           0       -8.101157    3.439502    0.006056
     22          6           0       -5.638217    5.890217    1.258023
     23          6           0       -8.575304    6.015570    0.244287
     24          6           0       -8.238665    7.263215   -0.041088
     25          7           0       -9.161776    0.624859   -0.472805
     26          6           0       -9.801838    1.765294   -0.631819
     27          6           0      -11.292245    1.417198   -0.956074
     28          6           0      -11.340793    0.055670   -1.161014
     29          6           0       -9.923133   -0.501529   -0.778690
     30          6           0      -12.347234    2.390772   -1.262472
     31          6           0      -12.487966   -0.704928   -1.665718
     32          6           0      -12.371043   -1.079273   -3.102141
     33          7           0       -7.308851   -1.406531   -0.132412
     34          6           0       -8.212340   -2.294472   -0.639096
     35          6           0       -7.742801   -3.652151   -0.566702
     36          6           0       -6.504624   -3.548085   -0.185697
     37          6           0       -6.277347   -2.180550    0.188233
     38          6           0       -8.555376   -4.857869   -1.034255
     39          6           0       -5.277745   -4.378267    0.076008
     40          8           0       -5.176359   -5.534197   -0.012768
     41          6           0       -4.088757   -3.299981    0.483250
     42          6           0       -3.526630   -3.593042    1.826075
     43          8           0       -3.773130   -3.060217    2.903182
     44          8           0       -2.690420   -4.755921    1.703453
     45          6           0       -2.249987   -5.105948    3.042418
     46          6           0        2.758341   -0.598145   -1.097587
     47          6           0        4.157538   -0.342195   -0.415850
     48          6           0        5.062225    0.594338   -0.917951
     49          6           0        5.108765    1.409715   -2.166996
     50          6           0        6.435517    0.584456   -0.165415
     51          6           0        7.587666   -0.177139   -0.883775
     52          6           0        8.994720   -0.107272   -0.156912
     53          6           0       10.167860   -0.609395   -0.874845
     54          6           0       10.019688   -2.093198   -1.350583
     55          6           0       11.474386   -0.433273    0.084242
     56          6           0       12.767024   -0.566957   -0.716517
     57          6           0       13.969823   -0.208109    0.198597
     58          6           0       15.358317   -0.385015   -0.497665
     59          6           0       15.709741   -1.824132   -0.893100
     60          6           0       16.493600    0.220092    0.397043
     61          6           0       17.826268    0.483558   -0.265120
     62          6           0       18.752781    1.246501    0.735955
     63          6           0       20.205146    1.393071    0.263421
     64          6           0       20.367441    2.135254   -1.155386
     65          6           0       21.052044    2.263800    1.280519
     66          1           0       -4.112012    3.513277    1.486888
     67          1           0      -10.123664    3.804190   -0.300051
     68          1           0      -10.328058   -2.416379   -1.166275
     69          1           0       -2.563054   -0.904837    2.084063
     70          1           0       -2.154120    1.626886    1.026860
     71          1           0       -1.783412    0.843330    3.542945
     72          1           0       -2.619611    2.471603    3.364489
     73          1           0       -3.441149    0.839115    3.999795
     74          1           0       -2.013570   -1.657751   -0.429053
     75          1           0       -2.031873    0.268129   -0.712234
     76          1           0       -0.022695    0.551660    0.907258
     77          1           0       -0.187411   -1.055263    1.508126
     78          1           0       -4.944883    6.251327    0.386710
     79          1           0       -6.422913    6.686875    1.542042
     80          1           0       -5.247240    5.660732    2.187208
     81          1           0       -9.680702    5.893420    0.417762
     82          1           0       -8.847962    8.294090   -0.116228
     83          1           0       -7.198777    7.380797   -0.366763
     84          1           0      -12.144394    3.222499   -2.027694
     85          1           0      -13.132296    1.727333   -1.603911
     86          1           0      -12.794179    2.995324   -0.282101
     87          1           0      -12.796465   -1.490444   -0.992438
     88          1           0      -13.480958   -0.262134   -1.501172
     89          1           0      -13.088014   -1.832247   -3.348090
     90          1           0      -12.649069   -0.280198   -3.738408
     91          1           0      -11.400564   -1.411743   -3.314666
     92          1           0       -9.004868   -4.580992   -2.122215
     93          1           0       -8.056317   -5.866875   -1.046121
     94          1           0       -9.397745   -5.060156   -0.541000
     95          1           0       -3.409768   -3.582920   -0.361281
     96          1           0       -1.467279   -4.321615    3.428788
     97          1           0       -2.922596   -5.303805    3.815141
     98          1           0       -1.655980   -6.214705    2.988582
     99          1           0        2.932324   -1.665043   -1.514663
    100          1           0        2.619662    0.142176   -1.827646
    101          1           0        4.477743   -0.728973    0.469141
    102          1           0        4.131304    1.562878   -2.877875
    103          1           0        5.503297    2.252726   -1.792179
    104          1           0        6.093608    1.116199   -2.793634
    105          1           0        6.938763    1.616465   -0.117012
    106          1           0        6.397799    0.108575    0.919492
    107          1           0        7.318770   -1.197506   -1.289864
    108          1           0        7.863540    0.244601   -1.910097
    109          1           0        9.063766    0.851641    0.087468
    110          1           0        8.714961   -0.703318    0.683866
    111          1           0       10.382574   -0.046639   -1.881636
    112          1           0        9.349173   -2.059284   -2.156111
    113          1           0       10.950575   -2.373327   -1.668134
    114          1           0        9.805242   -2.662497   -0.562738
    115          1           0       11.471189    0.670072    0.277360
    116          1           0       11.133673   -1.159930    0.847417
    117          1           0       13.003155   -1.536046   -1.152469
    118          1           0       12.635587    0.231635   -1.673466
    119          1           0       14.051293    0.911962    0.250671
    120          1           0       13.819882   -0.811910    1.167101
    121          1           0       15.479909    0.292634   -1.345211
    122          1           0       15.754020   -2.378158   -0.004442
    123          1           0       14.896274   -2.434009   -1.345588
    124          1           0       16.664942   -1.941740   -1.396839
    125          1           0       16.011424    1.182244    0.888365
    126          1           0       16.722170   -0.259983    1.171583
    127          1           0       18.288254   -0.331449   -0.496103
    128          1           0       17.835694    0.957559   -1.294632
    129          1           0       18.112417    2.103532    1.047491
    130          1           0       18.838315    0.693678    1.662907
    131          1           0       20.675089    0.362046    0.282356
    132          1           0       19.890106    3.182937   -1.085272
    133          1           0       21.314947    2.288368   -1.430541
    134          1           0       19.862653    1.382956   -1.834950
    135          1           0       20.972060    1.733039    2.167627
    136          1           0       21.984298    2.385229    0.921985
    137          1           0       20.485807    3.227633    1.474828
 ---------------------------------------------------------------------

 SCF Done:  E(RCAM-B3LYP) =  -2932.62806680     A.U. after   18 cycles

 Excitation energies and oscillator strengths:

 Excited State   1:      Singlet-A      2.0655 eV  600.27 nm  f=0.3264  <S**2>=0.000
     240 -> 242       -0.10343
     240 -> 243        0.20665
     241 -> 242        0.66377
 This state for optimization and/or second-order correction.
 Total Energy, E(TD-HF/TD-KS) =  -2932.55216198
 Copying the excited state density for this state as the 1-particle RhoCI density.

 The electronic state is 1-A.
 Alpha  occ. eigenvalues --  -46.85884 -19.26149 -19.24890 -19.22124 -19.21961
 Alpha  occ. eigenvalues --  -19.21189 -14.41775 -14.40047 -14.39881 -14.39322
 Alpha  occ. eigenvalues --  -10.39936 -10.39082 -10.36172 -10.31944 -10.31657
 Alpha  occ. eigenvalues --  -10.30453 -10.30261 -10.30092 -10.29825 -10.29726
 Alpha  occ. eigenvalues --  -10.29091 -10.28871 -10.28858 -10.28688 -10.28620
 Alpha  occ. eigenvalues --  -10.28569 -10.28360 -10.28146 -10.27928 -10.27817
 Alpha  occ. eigenvalues --  -10.27744 -10.27500 -10.27199 -10.27191 -10.27164
 Alpha  occ. eigenvalues --  -10.27088 -10.27042 -10.27035 -10.26924 -10.26802
 Alpha  occ. eigenvalues --  -10.26674 -10.26624 -10.26558 -10.26446 -10.26440
 Alpha  occ. eigenvalues --  -10.26102 -10.25983 -10.25943 -10.25939 -10.25882
 Alpha  occ. eigenvalues --  -10.25763 -10.25730 -10.25658 -10.25557 -10.25451
 Alpha  occ. eigenvalues --  -10.24800 -10.24386 -10.24366 -10.24008 -10.23695
 Alpha  occ. eigenvalues --  -10.23674 -10.23599 -10.23464 -10.23016 -10.21952
 Alpha  occ. eigenvalues --   -3.14795  -1.89506  -1.89054  -1.88943  -1.16319
 Alpha  occ. eigenvalues --   -1.16083  -1.15008  -1.08390  -1.07671  -1.06587
 Alpha  occ. eigenvalues --   -1.05776  -1.05138  -1.02639  -0.91640  -0.91263
 Alpha  occ. eigenvalues --   -0.90517  -0.90018  -0.89958  -0.89265  -0.88867
 Alpha  occ. eigenvalues --   -0.88800  -0.88184  -0.87470  -0.87296  -0.86821
 Alpha  occ. eigenvalues --   -0.84699  -0.84440  -0.83955  -0.83406  -0.82566
 Alpha  occ. eigenvalues --   -0.81349  -0.80670  -0.80337  -0.80008  -0.78112
 Alpha  occ. eigenvalues --   -0.78069  -0.76610  -0.76429  -0.75841  -0.75550
 Alpha  occ. eigenvalues --   -0.75419  -0.74689  -0.74577  -0.73568  -0.72798
 Alpha  occ. eigenvalues --   -0.71283  -0.70730  -0.69874  -0.68962  -0.68184
 Alpha  occ. eigenvalues --   -0.67143  -0.66624  -0.65662  -0.65080  -0.64694
 Alpha  occ. eigenvalues --   -0.64131  -0.63025  -0.62302  -0.62225  -0.61963
 Alpha  occ. eigenvalues --   -0.61901  -0.61016  -0.60170  -0.59879  -0.59524
 Alpha  occ. eigenvalues --   -0.58975  -0.58446  -0.57736  -0.57269  -0.56752
 Alpha  occ. eigenvalues --   -0.56287  -0.55751  -0.55597  -0.54971  -0.54650
 Alpha  occ. eigenvalues --   -0.53858  -0.53722  -0.53626  -0.53332  -0.52924
 Alpha  occ. eigenvalues --   -0.52816  -0.52606  -0.52260  -0.51901  -0.51768
 Alpha  occ. eigenvalues --   -0.51250  -0.50985  -0.50701  -0.50685  -0.50629
 Alpha  occ. eigenvalues --   -0.50494  -0.50310  -0.50078  -0.49690  -0.49522
 Alpha  occ. eigenvalues --   -0.49467  -0.49184  -0.48928  -0.48875  -0.48673
 Alpha  occ. eigenvalues --   -0.48451  -0.48376  -0.47790  -0.47419  -0.47112
 Alpha  occ. eigenvalues --   -0.46952  -0.46820  -0.46657  -0.46554  -0.46269
 Alpha  occ. eigenvalues --   -0.45910  -0.45807  -0.45651  -0.45378  -0.45327
 Alpha  occ. eigenvalues --   -0.45209  -0.45115  -0.44820  -0.44745  -0.44576
 Alpha  occ. eigenvalues --   -0.44475  -0.43876  -0.43798  -0.43735  -0.43677
 Alpha  occ. eigenvalues --   -0.43587  -0.43500  -0.43170  -0.43088  -0.42806
 Alpha  occ. eigenvalues --   -0.42551  -0.42145  -0.42077  -0.41871  -0.41706
 Alpha  occ. eigenvalues --   -0.41471  -0.40991  -0.40330  -0.40274  -0.39984
 Alpha  occ. eigenvalues --   -0.39654  -0.39462  -0.39258  -0.39201  -0.38822
 Alpha  occ. eigenvalues --   -0.38676  -0.38025  -0.37887  -0.37714  -0.37677
 Alpha  occ. eigenvalues --   -0.37453  -0.37211  -0.36953  -0.36819  -0.36112
 Alpha  occ. eigenvalues --   -0.35940  -0.35802  -0.35653  -0.35489  -0.35290
 Alpha  occ. eigenvalues --   -0.35180  -0.34563  -0.34277  -0.34197  -0.33573
 Alpha  occ. eigenvalues --   -0.33018  -0.32481  -0.32068  -0.31420  -0.31035
 Alpha  occ. eigenvalues --   -0.30066  -0.28683  -0.28362  -0.27909  -0.23026
 Alpha  occ. eigenvalues --   -0.21137
 Alpha virt. eigenvalues --   -0.06815  -0.01581   0.02198   0.03782   0.04560
 Alpha virt. eigenvalues --    0.04939   0.05500   0.06107   0.06226   0.06988
 Alpha virt. eigenvalues --    0.08510   0.10423   0.10874   0.11523   0.11808

 Mulliken charges:
               1
     1  Mg   0.841292
     2  C    0.040141
     3  C   -0.199952
     4  C   -0.196853
     5  C   -0.182313
     6  N   -0.617536
     7  C    0.292510
     8  C   -0.163305
     9  C   -0.147077
    10  C    0.363906
    11  C   -0.301592
    12  C   -0.177408
    13  C   -0.245935
    14  C    0.633455
    15  O   -0.485533
    16  O   -0.512743
    17  N   -0.685751
    18  C    0.323500
    19  C   -0.005589
    20  C   -0.005986
    21  C    0.344428
    22  C   -0.369671
    23  C   -0.065459
    24  C   -0.259720
    25  N   -0.701628
    26  C    0.317416
    27  C    0.022455
    28  C    0.029227
    29  C    0.333786
    30  C   -0.369640
    31  C   -0.273830
    32  C   -0.308674
    33  N   -0.694671
    34  C    0.213230
    35  C    0.012477
    36  C   -0.002214
    37  C    0.280386
    38  C   -0.373977
    39  C    0.376656
    40  O   -0.392501
    41  C   -0.332613
    42  C    0.661861
    43  O   -0.470966
    44  O   -0.477251
    45  C   -0.071562
    46  C    0.050040
    47  C   -0.143684
    48  C    0.117929
    49  C   -0.358892
    50  C   -0.233648
    51  C   -0.204903
    52  C   -0.139359
    53  C   -0.104597
    54  C   -0.305301
    55  C   -0.161828
    56  C   -0.175409
    57  C   -0.170436
    58  C   -0.068000
    59  C   -0.324199
    60  C   -0.164825
    61  C   -0.187056
    62  C   -0.173443
    63  C   -0.086604
    64  C   -0.299407
    65  C   -0.301009
    66  H    0.070963
    67  H    0.088296
    68  H    0.089237
    69  H    0.117873
    70  H    0.078756
    71  H    0.128061
    72  H    0.084588
    73  H    0.112484
    74  H    0.111911
    75  H    0.109734
    76  H    0.163172
    77  H    0.127552
    78  H    0.116350
    79  H    0.122486
    80  H    0.129497
    81  H    0.085516
    82  H    0.112290
    83  H    0.101476
    84  H    0.120728
    85  H    0.114995
    86  H    0.088435
    87  H    0.111466
    88  H    0.104242
    89  H    0.104758
    90  H    0.117820
    91  H    0.119776
    92  H    0.097487
    93  H    0.135915
    94  H    0.135825
    95  H    0.175554
    96  H    0.104214
    97  H    0.146961
    98  H    0.085149
    99  H    0.119552
   100  H    0.115341
   101  H    0.086467
   102  H    0.107037
   103  H    0.135625
   104  H    0.111486
   105  H    0.087057
   106  H    0.090720
   107  H    0.093274
   108  H    0.072242
   109  H    0.096169
   110  H    0.092867
   111  H    0.058945
   112  H    0.110821
   113  H    0.104558
   114  H    0.104133
   115  H    0.097907
   116  H    0.096156
   117  H    0.098645
   118  H    0.064035
   119  H    0.096133
   120  H    0.091307
   121  H    0.090561
   122  H    0.105472
   123  H    0.092774
   124  H    0.104903
   125  H    0.057206
   126  H    0.100247
   127  H    0.104918
   128  H    0.083012
   129  H    0.089871
   130  H    0.089174
   131  H    0.081857
   132  H    0.094246
   133  H    0.110078
   134  H    0.091754
   135  H    0.100506
   136  H    0.107127
   137  H    0.092109
 Sum of Mulliken charges =   0.00000

 Dipole moment (field-independent basis, Debye):
    X=              0.0005    Y=              4.3151    Z=              1.0730  Tot=              4.4465
 Quadrupole moment (field-independent basis, Debye-Ang):
   XX=           -324.3800   YY=           -395.1270   ZZ=           -397.3874
   XY=            -22.4866   XZ=             11.8153   YZ=             -4.1238

 Normal termination of Gaussian 09 at Mon Jul  1 00:55:52 2019.
