 Gaussian 09, Revision D.01,
 Gaussian 09:  ES64L-G09RevD.01 24-Apr-2013

 -------------------------------------
 # td=(NStates=1) CAM-B3LYP/6-31G(d,p)
 -------------------------------------

 --
 TD
 --
 Symbolic Z-matrix:
 Charge =  0 Multiplicity = 1

                         Standard orientation:
 ---------------------------------------------------------------------
 Center     Atomic      Atomic             Coordinates (Angstroms)
 Number     Number       Type             X           Y           Z
 ---------------------------------------------------------------------
      1         12           0       -7.011929    0.592264    0.127658
      2          6           0       -4.804081   -1.951322    0.521841
      3          6           0       -4.884032    2.746178    1.403014
      4          6           0       -9.324453    3.058639   -0.335846
      5          6           0       -9.445867   -1.788541   -0.926748
      6          7           0       -5.074418    0.378037    0.928370
      7          6           0       -4.239167   -0.737152    0.924048
      8          6           0       -2.871429   -0.452921    1.322268
      9          6           0       -3.013051    1.031641    1.882823
     10          6           0       -4.329415    1.499519    1.352389
     11          6           0       -2.920168    1.151093    3.302203
     12          6           0       -1.957701   -0.523760    0.167109
     13          6           0       -0.498046   -0.504680    0.645495
     14          6           0        0.553597   -0.526884   -0.536565
     15          8           0        0.272985   -0.845677   -1.657608
     16          8           0        1.781546   -0.433195   -0.115761
     17          7           0       -7.148239    2.547861    0.383493
     18          6           0       -6.179250    3.282168    0.915308
     19          6           0       -6.474174    4.673250    0.982860
     20          6           0       -7.703730    4.736532    0.416025
     21          6           0       -8.162098    3.480553    0.117970
     22          6           0       -5.657972    5.859066    1.481034
     23          6           0       -8.579651    5.939821    0.243279
     24          6           0       -8.148212    7.214324    0.067480
     25          7           0       -9.086116    0.608523   -0.473023
     26          6           0       -9.829673    1.735703   -0.613684
     27          6           0      -11.125717    1.412791   -1.190202
     28          6           0      -11.150415    0.116245   -1.349165
     29          6           0       -9.932942   -0.428227   -0.876299
     30          6           0      -12.240093    2.435439   -1.519766
     31          6           0      -12.223905   -0.642140   -1.902059
     32          6           0      -12.352014   -0.927565   -3.367925
     33          7           0       -7.182523   -1.377118   -0.174887
     34          6           0       -8.287155   -2.267463   -0.566912
     35          6           0       -7.732152   -3.702420   -0.568904
     36          6           0       -6.410327   -3.611424   -0.144256
     37          6           0       -6.151651   -2.190098    0.144272
     38          6           0       -8.490746   -4.810465   -0.958896
     39          6           0       -5.289365   -4.369601    0.093989
     40          8           0       -5.199296   -5.560201    0.053837
     41          6           0       -4.132553   -3.265780    0.548843
     42          6           0       -3.488446   -3.650300    1.887793
     43          8           0       -3.651560   -3.054397    2.946485
     44          8           0       -2.772538   -4.787643    1.783921
     45          6           0       -2.106439   -5.221354    2.944650
     46          6           0        2.736031   -0.540922   -1.235621
     47          6           0        4.088976   -0.345668   -0.646569
     48          6           0        5.081071    0.485505   -1.034048
     49          6           0        4.962527    1.213465   -2.336173
     50          6           0        6.313215    0.547887   -0.328995
     51          6           0        7.642742   -0.091061   -1.032762
     52          6           0        8.819139   -0.120803   -0.170666
     53          6           0       10.056189   -0.590783   -0.891843
     54          6           0       10.055044   -2.050360   -1.297894
     55          6           0       11.333988   -0.405955   -0.038147
     56          6           0       12.630930   -0.476207   -0.708106
     57          6           0       13.901689   -0.002841    0.093724
     58          6           0       15.330509   -0.002627   -0.582536
     59          6           0       15.730761   -1.458982   -1.045407
     60          6           0       16.315201    0.425540    0.435577
     61          6           0       17.747064    0.479888   -0.255186
     62          6           0       18.662022    1.085478    0.764295
     63          6           0       20.127918    1.354102    0.220237
     64          6           0       20.317131    2.280187   -0.952651
     65          6           0       21.077346    1.672684    1.331448
     66          1           0       -4.071258    3.608267    1.594476
     67          1           0      -10.073883    3.776470   -0.542973
     68          1           0      -10.290770   -2.467361   -1.334351
     69          1           0       -2.404653   -1.082109    2.076478
     70          1           0       -2.259015    1.753002    1.413594
     71          1           0       -1.876150    0.906880    3.815767
     72          1           0       -2.998095    2.058121    3.678316
     73          1           0       -3.846597    0.659591    3.819074
     74          1           0       -1.838182   -1.355940   -0.444493
     75          1           0       -1.985483    0.356469   -0.639759
     76          1           0       -0.239969    0.491095    1.118345
     77          1           0       -0.487797   -1.284707    1.305551
     78          1           0       -4.947893    6.172143    0.841317
     79          1           0       -6.236132    6.585514    1.969788
     80          1           0       -4.994182    5.534144    2.274176
     81          1           0       -9.685208    5.747313    0.417879
     82          1           0       -9.023791    7.900441    0.209124
     83          1           0       -7.256894    7.330324   -0.462246
     84          1           0      -11.892068    3.262354   -2.156337
     85          1           0      -13.135799    1.973881   -1.814097
     86          1           0      -12.565080    3.008882   -0.597739
     87          1           0      -12.275353   -1.561878   -1.329803
     88          1           0      -13.229463   -0.192687   -1.643250
     89          1           0      -13.299612   -1.288269   -3.791261
     90          1           0      -12.188156   -0.129298   -4.133309
     91          1           0      -11.406303   -1.548501   -3.601458
     92          1           0       -8.913427   -4.766855   -1.864992
     93          1           0       -7.998739   -5.749504   -0.934510
     94          1           0       -9.393303   -4.966273   -0.255732
     95          1           0       -3.391447   -3.582354   -0.180231
     96          1           0       -1.293845   -4.651528    3.222306
     97          1           0       -2.775135   -5.428679    3.666907
     98          1           0       -1.600460   -6.255625    2.772420
     99          1           0        2.537958   -1.470973   -1.537666
    100          1           0        2.647666    0.213908   -1.998748
    101          1           0        4.347013   -0.808841    0.272570
    102          1           0        3.887521    1.315686   -2.883893
    103          1           0        5.416529    2.175074   -2.167113
    104          1           0        5.700480    0.775766   -2.936779
    105          1           0        6.228235    1.655420   -0.202062
    106          1           0        6.316479    0.185723    0.760587
    107          1           0        7.207243   -1.083882   -1.371521
    108          1           0        7.869028    0.499831   -1.780170
    109          1           0        8.873143    0.958645    0.165916
    110          1           0        8.616427   -0.831482    0.614587
    111          1           0       10.136530    0.038309   -1.773707
    112          1           0        9.137282   -2.003304   -1.782279
    113          1           0       11.107892   -2.423815   -1.775109
    114          1           0        9.656774   -2.718182   -0.472121
    115          1           0       11.289522    0.672212    0.309960
    116          1           0       11.299134   -1.133870    0.951332
    117          1           0       12.744773   -1.507302   -0.971110
    118          1           0       12.674781    0.178245   -1.671673
    119          1           0       13.584214    0.944144    0.596585
    120          1           0       14.208817   -0.775160    0.986452
    121          1           0       15.415237    0.599327   -1.538218
    122          1           0       15.888391   -2.178143   -0.254463
    123          1           0       15.040203   -2.014702   -1.741492
    124          1           0       16.588610   -1.544543   -1.662205
    125          1           0       16.078564    1.561496    0.654174
    126          1           0       16.542202   -0.365219    1.244445
    127          1           0       18.179842   -0.524518   -0.536932
    128          1           0       17.599361    1.193043   -1.047670
    129          1           0       18.286385    1.909618    1.197343
    130          1           0       18.776041    0.369872    1.608047
    131          1           0       20.549376    0.478053    0.056594
    132          1           0       20.185359    3.202103   -0.631011
    133          1           0       21.344375    2.177151   -1.471044
    134          1           0       19.654307    1.929292   -1.846101
    135          1           0       21.140789    0.973168    2.123525
    136          1           0       22.075985    1.588782    1.019100
    137          1           0       21.092831    2.660003    1.979473
 ---------------------------------------------------------------------

 SCF Done:  E(RCAM-B3LYP) =  -2932.69807423     A.U. after   15 cycles

 Excitation energies and oscillator strengths:

 Excited State   1:      Singlet-A      2.1935 eV  565.24 nm  f=0.1967  <S**2>=0.000
     240 -> 243       -0.28007
     241 -> 242        0.63755
 This state for optimization and/or second-order correction.
 Total Energy, E(TD-HF/TD-KS) =  -2932.61746604
 Copying the excited state density for this state as the 1-particle RhoCI density.

 The electronic state is 1-A.
 Alpha  occ. eigenvalues --  -46.83834 -19.26418 -19.26083 -19.20554 -19.20199
 Alpha  occ. eigenvalues --  -19.20192 -14.40690 -14.39664 -14.39302 -14.38539
 Alpha  occ. eigenvalues --  -10.38857 -10.38604 -10.34594 -10.30982 -10.30764
 Alpha  occ. eigenvalues --  -10.30294 -10.30233 -10.30144 -10.29964 -10.29929
 Alpha  occ. eigenvalues --  -10.29407 -10.27747 -10.27700 -10.27676 -10.27638
 Alpha  occ. eigenvalues --  -10.27619 -10.27501 -10.27273 -10.27212 -10.27074
 Alpha  occ. eigenvalues --  -10.26973 -10.26894 -10.26712 -10.26680 -10.26619
 Alpha  occ. eigenvalues --  -10.26526 -10.26301 -10.26280 -10.26264 -10.26062
 Alpha  occ. eigenvalues --  -10.25956 -10.25943 -10.25923 -10.25900 -10.25762
 Alpha  occ. eigenvalues --  -10.25757 -10.25630 -10.25519 -10.25376 -10.25344
 Alpha  occ. eigenvalues --  -10.25338 -10.25260 -10.25251 -10.25149 -10.25077
 Alpha  occ. eigenvalues --  -10.24763 -10.24616 -10.24602 -10.24594 -10.24319
 Alpha  occ. eigenvalues --  -10.24277 -10.24146 -10.23669 -10.23603 -10.23432
 Alpha  occ. eigenvalues --   -3.12912  -1.87609  -1.87145  -1.87109  -1.19832
 Alpha  occ. eigenvalues --   -1.18048  -1.12364  -1.09337  -1.08353  -1.04925
 Alpha  occ. eigenvalues --   -1.02781  -1.02207  -1.01142  -0.93016  -0.92087
 Alpha  occ. eigenvalues --   -0.91349  -0.90731  -0.90522  -0.89519  -0.89234
 Alpha  occ. eigenvalues --   -0.89088  -0.88624  -0.87993  -0.87689  -0.86484
 Alpha  occ. eigenvalues --   -0.85910  -0.84736  -0.83463  -0.83384  -0.82762
 Alpha  occ. eigenvalues --   -0.82472  -0.81954  -0.80820  -0.80571  -0.79495
 Alpha  occ. eigenvalues --   -0.78679  -0.77664  -0.77507  -0.76246  -0.75890
 Alpha  occ. eigenvalues --   -0.75307  -0.75138  -0.74322  -0.73492  -0.72526
 Alpha  occ. eigenvalues --   -0.71727  -0.70666  -0.70040  -0.69262  -0.68515
 Alpha  occ. eigenvalues --   -0.67270  -0.66896  -0.65318  -0.65098  -0.64716
 Alpha  occ. eigenvalues --   -0.64180  -0.64094  -0.63598  -0.62408  -0.62143
 Alpha  occ. eigenvalues --   -0.61343  -0.60914  -0.60743  -0.59431  -0.59090
 Alpha  occ. eigenvalues --   -0.58629  -0.58385  -0.57982  -0.57852  -0.56733
 Alpha  occ. eigenvalues --   -0.56522  -0.56204  -0.56094  -0.55806  -0.55730
 Alpha  occ. eigenvalues --   -0.55344  -0.55077  -0.54295  -0.54013  -0.53741
 Alpha  occ. eigenvalues --   -0.53096  -0.52820  -0.52739  -0.52641  -0.52169
 Alpha  occ. eigenvalues --   -0.51979  -0.51389  -0.51360  -0.51122  -0.50674
 Alpha  occ. eigenvalues --   -0.50455  -0.50378  -0.50090  -0.49604  -0.49493
 Alpha  occ. eigenvalues --   -0.49184  -0.49124  -0.48988  -0.48615  -0.48564
 Alpha  occ. eigenvalues --   -0.48278  -0.47990  -0.47733  -0.47530  -0.47481
 Alpha  occ. eigenvalues --   -0.47234  -0.47106  -0.46585  -0.46358  -0.46197
 Alpha  occ. eigenvalues --   -0.45784  -0.45655  -0.45501  -0.45375  -0.44915
 Alpha  occ. eigenvalues --   -0.44816  -0.44655  -0.44504  -0.44308  -0.44279
 Alpha  occ. eigenvalues --   -0.44262  -0.44009  -0.43614  -0.43508  -0.43305
 Alpha  occ. eigenvalues --   -0.43202  -0.42958  -0.42503  -0.42360  -0.42074
 Alpha  occ. eigenvalues --   -0.42028  -0.41743  -0.41408  -0.41170  -0.40903
 Alpha  occ. eigenvalues --   -0.40599  -0.40519  -0.40391  -0.40301  -0.40091
 Alpha  occ. eigenvalues --   -0.40033  -0.39916  -0.39825  -0.39509  -0.39249
 Alpha  occ. eigenvalues --   -0.39026  -0.38927  -0.38777  -0.37931  -0.37780
 Alpha  occ. eigenvalues --   -0.37470  -0.37332  -0.37270  -0.37087  -0.36858
 Alpha  occ. eigenvalues --   -0.36839  -0.36747  -0.36608  -0.35848  -0.35762
 Alpha  occ. eigenvalues --   -0.35641  -0.34993  -0.34477  -0.33511  -0.33195
 Alpha  occ. eigenvalues --   -0.33074  -0.32966  -0.32286  -0.30654  -0.30017
 Alpha  occ. eigenvalues --   -0.29508  -0.29133  -0.28157  -0.27713  -0.22939
 Alpha  occ. eigenvalues --   -0.21340
 Alpha virt. eigenvalues --   -0.05565  -0.03079   0.01651   0.04435   0.05930
 Alpha virt. eigenvalues --    0.06141   0.06254   0.06929   0.07508   0.07864
 Alpha virt. eigenvalues --    0.08898   0.11194   0.11699   0.11740   0.12208

 Mulliken charges:
               1
     1  Mg   0.819088
     2  C    0.032904
     3  C   -0.223043
     4  C   -0.192230
     5  C   -0.209431
     6  N   -0.662173
     7  C    0.370827
     8  C   -0.164285
     9  C   -0.137660
    10  C    0.343837
    11  C   -0.293576
    12  C   -0.168988
    13  C   -0.270832
    14  C    0.581037
    15  O   -0.473881
    16  O   -0.457550
    17  N   -0.724097
    18  C    0.319516
    19  C    0.005765
    20  C    0.030207
    21  C    0.331771
    22  C   -0.368335
    23  C   -0.095550
    24  C   -0.241823
    25  N   -0.661854
    26  C    0.259360
    27  C    0.037355
    28  C    0.068518
    29  C    0.238490
    30  C   -0.370117
    31  C   -0.268585
    32  C   -0.304723
    33  N   -0.721224
    34  C    0.283472
    35  C    0.083505
    36  C    0.051972
    37  C    0.332464
    38  C   -0.410413
    39  C    0.315296
    40  O   -0.439488
    41  C   -0.351088
    42  C    0.616163
    43  O   -0.487901
    44  O   -0.443263
    45  C   -0.076796
    46  C    0.042097
    47  C   -0.147342
    48  C    0.115975
    49  C   -0.365401
    50  C   -0.250252
    51  C   -0.175436
    52  C   -0.171916
    53  C   -0.063894
    54  C   -0.306450
    55  C   -0.148269
    56  C   -0.168691
    57  C   -0.154280
    58  C   -0.059726
    59  C   -0.333285
    60  C   -0.162500
    61  C   -0.185188
    62  C   -0.171649
    63  C   -0.043874
    64  C   -0.303182
    65  C   -0.335139
    66  H    0.061792
    67  H    0.076758
    68  H    0.093166
    69  H    0.138622
    70  H    0.098184
    71  H    0.088126
    72  H    0.126289
    73  H    0.114045
    74  H    0.137837
    75  H    0.095706
    76  H    0.112788
    77  H    0.134143
    78  H    0.132965
    79  H    0.135628
    80  H    0.108499
    81  H    0.096903
    82  H    0.102330
    83  H    0.118760
    84  H    0.120974
    85  H    0.118216
    86  H    0.107156
    87  H    0.104204
    88  H    0.090364
    89  H    0.109017
    90  H    0.104648
    91  H    0.088330
    92  H    0.144851
    93  H    0.153478
    94  H    0.126447
    95  H    0.154841
    96  H    0.124133
    97  H    0.138988
    98  H    0.104135
    99  H    0.138487
   100  H    0.114691
   101  H    0.076594
   102  H    0.110327
   103  H    0.107027
   104  H    0.136024
   105  H    0.097002
   106  H    0.099281
   107  H    0.103504
   108  H    0.108529
   109  H    0.098545
   110  H    0.096589
   111  H    0.083002
   112  H    0.104413
   113  H    0.107241
   114  H    0.092279
   115  H    0.064617
   116  H    0.066157
   117  H    0.095980
   118  H    0.076322
   119  H    0.084884
   120  H    0.060828
   121  H    0.081418
   122  H    0.100658
   123  H    0.088093
   124  H    0.111208
   125  H    0.086854
   126  H    0.096627
   127  H    0.095766
   128  H    0.097368
   129  H    0.096701
   130  H    0.079453
   131  H    0.100105
   132  H    0.118973
   133  H    0.089658
   134  H    0.087076
   135  H    0.099836
   136  H    0.100616
   137  H    0.070705
 Sum of Mulliken charges =   0.00000

 Dipole moment (field-independent basis, Debye):
    X=              3.1309    Y=              3.5417    Z=             -0.6837  Tot=              4.7763
 Quadrupole moment (field-independent basis, Debye-Ang):
   XX=           -341.3841   YY=           -387.5972   ZZ=           -398.5496
   XY=            -19.7301   XZ=              6.8173   YZ=             -2.4362

 Normal termination of Gaussian 09 at Sat Jun 29 21:52:18 2019.
