 Gaussian 09, Revision D.01,
 Gaussian 09:  ES64L-G09RevD.01 24-Apr-2013

 -------------------------------------
 # td=(NStates=1) CAM-B3LYP/6-31G(d,p)
 -------------------------------------

 --
 TD
 --
 Symbolic Z-matrix:
 Charge =  0 Multiplicity = 1

                         Standard orientation:
 ---------------------------------------------------------------------
 Center     Atomic      Atomic             Coordinates (Angstroms)
 Number     Number       Type             X           Y           Z
 ---------------------------------------------------------------------
      1         12           0       -7.059790    0.591972    0.035727
      2          6           0       -4.897378   -1.982796    0.494446
      3          6           0       -4.744745    2.786065    1.179771
      4          6           0       -9.361657    3.117861   -0.397932
      5          6           0       -9.591601   -1.680878   -0.851215
      6          7           0       -5.077187    0.468987    0.587618
      7          6           0       -4.382347   -0.712275    0.749250
      8          6           0       -2.967890   -0.400143    1.120202
      9          6           0       -3.101087    1.046914    1.633995
     10          6           0       -4.396607    1.452279    1.249978
     11          6           0       -2.942291    1.335298    3.259544
     12          6           0       -1.854762   -0.537911    0.050420
     13          6           0       -0.450969   -0.396661    0.481138
     14          6           0        0.564957   -0.585749   -0.662401
     15          8           0        0.322736   -0.939943   -1.781117
     16          8           0        1.780113   -0.397814   -0.250860
     17          7           0       -7.051431    2.560343    0.374187
     18          6           0       -6.020629    3.320536    0.849665
     19          6           0       -6.409157    4.709208    0.892374
     20          6           0       -7.713309    4.786744    0.443485
     21          6           0       -8.089509    3.401670    0.056724
     22          6           0       -5.592530    5.823673    1.276490
     23          6           0       -8.526027    6.000336    0.259918
     24          6           0       -8.053919    7.292646    0.094219
     25          7           0       -9.059524    0.703600   -0.491550
     26          6           0       -9.783677    1.864453   -0.594296
     27          6           0      -11.215234    1.482795   -1.095500
     28          6           0      -11.191232    0.093611   -1.162374
     29          6           0       -9.922242   -0.373897   -0.823292
     30          6           0      -12.296851    2.524649   -1.289380
     31          6           0      -12.445876   -0.834339   -1.620678
     32          6           0      -12.350274   -1.201205   -3.018941
     33          7           0       -7.205609   -1.385409   -0.131396
     34          6           0       -8.313889   -2.235745   -0.416210
     35          6           0       -7.862840   -3.552606   -0.463741
     36          6           0       -6.536702   -3.549336   -0.031817
     37          6           0       -6.180272   -2.172239    0.078381
     38          6           0       -8.649101   -4.757525   -0.850596
     39          6           0       -5.247628   -4.345442    0.186872
     40          8           0       -5.138346   -5.518183   -0.015695
     41          6           0       -4.209049   -3.297120    0.533471
     42          6           0       -3.542279   -3.545611    1.843464
     43          8           0       -3.673366   -3.044132    2.887647
     44          8           0       -2.685551   -4.659031    1.725819
     45          6           0       -2.177523   -5.211980    2.802407
     46          6           0        2.848911   -0.736690   -1.121782
     47          6           0        4.146568   -0.549438   -0.539788
     48          6           0        5.093977    0.293589   -1.006580
     49          6           0        4.978793    1.143651   -2.159372
     50          6           0        6.404058    0.352617   -0.254961
     51          6           0        7.655520   -0.204198   -0.957208
     52          6           0        9.030135   -0.078570   -0.174352
     53          6           0       10.216845   -0.603884   -0.911349
     54          6           0        9.946649   -2.053918   -1.301021
     55          6           0       11.426484   -0.295726    0.070021
     56          6           0       12.744951   -0.567943   -0.633328
     57          6           0       13.946738   -0.130506    0.273263
     58          6           0       15.294254   -0.287298   -0.316457
     59          6           0       15.701322   -1.758096   -0.740307
     60          6           0       16.318855    0.442333    0.546970
     61          6           0       17.760588    0.551067   -0.257557
     62          6           0       18.675254    1.364689    0.784598
     63          6           0       20.122198    1.448697    0.162684
     64          6           0       20.279793    2.082769   -1.251328
     65          6           0       21.030948    2.032306    1.233925
     66          1           0       -4.142465    3.635543    1.364131
     67          1           0       -9.967683    4.132130   -0.559851
     68          1           0      -10.130184   -2.352150   -1.154040
     69          1           0       -2.357960   -1.118304    1.912013
     70          1           0       -2.314050    1.656235    1.104882
     71          1           0       -2.027331    1.027202    3.798231
     72          1           0       -3.275766    2.341061    3.361829
     73          1           0       -3.672368    0.674939    3.818486
     74          1           0       -1.887675   -1.576855   -0.561960
     75          1           0       -2.143114    0.206095   -0.805327
     76          1           0       -0.202692    0.498494    0.919605
     77          1           0       -0.297579   -1.370258    1.280827
     78          1           0       -5.057396    6.176039    0.457390
     79          1           0       -6.227331    6.619130    1.536625
     80          1           0       -4.715646    5.721351    1.936939
     81          1           0       -9.599926    5.790985    0.198945
     82          1           0       -8.525915    8.220291   -0.330721
     83          1           0       -6.854029    7.341247   -0.184863
     84          1           0      -12.118665    3.008526   -2.203580
     85          1           0      -13.155507    1.972199   -1.569070
     86          1           0      -12.404306    2.931432   -0.243569
     87          1           0      -12.231763   -1.710477   -0.889170
     88          1           0      -13.360947   -0.365125   -1.534720
     89          1           0      -13.171876   -1.736712   -3.183597
     90          1           0      -12.673616   -0.280261   -3.667980
     91          1           0      -11.432583   -1.734575   -3.353068
     92          1           0       -8.954434   -5.036110   -1.789861
     93          1           0       -8.162526   -5.919635   -0.763247
     94          1           0       -9.722908   -4.645462   -0.284502
     95          1           0       -3.204364   -3.587006   -0.117112
     96          1           0       -1.688352   -4.391300    3.354649
     97          1           0       -3.074994   -5.285106    3.408293
     98          1           0       -1.571440   -6.187620    2.580092
     99          1           0        2.788791   -1.677387   -1.612444
    100          1           0        2.456604    0.024795   -1.806746
    101          1           0        4.321772   -1.006590    0.484797
    102          1           0        4.093417    1.085350   -2.883756
    103          1           0        5.236544    2.036365   -1.989435
    104          1           0        5.784355    0.807395   -2.936962
    105          1           0        6.596023    1.447161    0.222040
    106          1           0        6.222456   -0.316580    0.730317
    107          1           0        7.614534   -1.251163   -1.290435
    108          1           0        7.914296    0.355153   -1.879890
    109          1           0        9.070265    0.797792    0.298155
    110          1           0        8.780166   -0.724948    0.792181
    111          1           0       10.456653   -0.231647   -1.906524
    112          1           0        9.054046   -2.161816   -1.890668
    113          1           0       10.754943   -2.284025   -1.740596
    114          1           0        9.780948   -2.526647   -0.278794
    115          1           0       11.297706    0.749246    0.322541
    116          1           0       11.363589   -0.813379    1.088724
    117          1           0       12.828770   -1.784605   -0.791808
    118          1           0       12.964594   -0.014417   -1.617792
    119          1           0       13.935925    0.944089    0.704372
    120          1           0       14.007770   -0.779330    1.130879
    121          1           0       15.331719    0.287245   -1.223422
    122          1           0       15.772408   -2.349234    0.280913
    123          1           0       14.983362   -2.339593   -1.347846
    124          1           0       16.648173   -1.705166   -1.435641
    125          1           0       16.088332    1.363523    0.723463
    126          1           0       16.406677    0.038774    1.532836
    127          1           0       18.079236   -0.516140   -0.326265
    128          1           0       17.520530    1.031147   -1.171144
    129          1           0       18.131744    2.301835    0.843710
    130          1           0       18.548851    0.716872    1.923313
    131          1           0       20.470853    0.406537   -0.001694
    132          1           0       20.004898    3.243882   -1.303347
    133          1           0       21.387027    2.227509   -1.427731
    134          1           0       19.588151    1.702397   -2.157334
    135          1           0       20.991050    1.533647    2.111620
    136          1           0       22.131704    2.054345    1.006064
    137          1           0       20.547257    2.943792    1.437073
 ---------------------------------------------------------------------

 SCF Done:  E(RCAM-B3LYP) =  -2932.55525394     A.U. after   18 cycles

 Excitation energies and oscillator strengths:

 Excited State   1:      Singlet-A      1.9456 eV  637.27 nm  f=0.2910  <S**2>=0.000
     240 -> 243        0.21065
     241 -> 242        0.66424
 This state for optimization and/or second-order correction.
 Total Energy, E(TD-HF/TD-KS) =  -2932.48375576
 Copying the excited state density for this state as the 1-particle RhoCI density.

 The electronic state is 1-A.
 Alpha  occ. eigenvalues --  -46.82937 -19.25934 -19.23647 -19.22017 -19.20146
 Alpha  occ. eigenvalues --  -19.20066 -14.42160 -14.39555 -14.39379 -14.38477
 Alpha  occ. eigenvalues --  -10.39163 -10.38604 -10.35099 -10.30835 -10.30687
 Alpha  occ. eigenvalues --  -10.30627 -10.30107 -10.29927 -10.29712 -10.29580
 Alpha  occ. eigenvalues --  -10.29411 -10.29177 -10.28686 -10.28494 -10.28493
 Alpha  occ. eigenvalues --  -10.28393 -10.28325 -10.28318 -10.27891 -10.27771
 Alpha  occ. eigenvalues --  -10.27588 -10.27479 -10.27370 -10.27285 -10.27265
 Alpha  occ. eigenvalues --  -10.27146 -10.27128 -10.27073 -10.27033 -10.26951
 Alpha  occ. eigenvalues --  -10.26786 -10.26728 -10.26657 -10.26597 -10.26504
 Alpha  occ. eigenvalues --  -10.26247 -10.25995 -10.25898 -10.25883 -10.25874
 Alpha  occ. eigenvalues --  -10.25803 -10.25802 -10.25789 -10.25702 -10.25238
 Alpha  occ. eigenvalues --  -10.25169 -10.24814 -10.24781 -10.24764 -10.24687
 Alpha  occ. eigenvalues --  -10.24652 -10.24184 -10.23113 -10.23013 -10.23011
 Alpha  occ. eigenvalues --   -3.12269  -1.86963  -1.86526  -1.86449  -1.20607
 Alpha  occ. eigenvalues --   -1.19729  -1.11911  -1.11683  -1.09633  -1.05223
 Alpha  occ. eigenvalues --   -1.03658  -1.03389  -1.01281  -0.93534  -0.91938
 Alpha  occ. eigenvalues --   -0.90777  -0.90184  -0.89954  -0.89774  -0.89591
 Alpha  occ. eigenvalues --   -0.88505  -0.87798  -0.87624  -0.87196  -0.86113
 Alpha  occ. eigenvalues --   -0.85245  -0.84370  -0.84119  -0.83552  -0.83195
 Alpha  occ. eigenvalues --   -0.82073  -0.81747  -0.80561  -0.79907  -0.78458
 Alpha  occ. eigenvalues --   -0.78010  -0.77807  -0.77060  -0.75602  -0.75509
 Alpha  occ. eigenvalues --   -0.75344  -0.75070  -0.74419  -0.73414  -0.72823
 Alpha  occ. eigenvalues --   -0.72133  -0.70263  -0.68996  -0.68567  -0.67717
 Alpha  occ. eigenvalues --   -0.67044  -0.66546  -0.65344  -0.64762  -0.64639
 Alpha  occ. eigenvalues --   -0.64178  -0.63398  -0.63069  -0.63045  -0.62382
 Alpha  occ. eigenvalues --   -0.61801  -0.61316  -0.60888  -0.60593  -0.60135
 Alpha  occ. eigenvalues --   -0.59198  -0.58627  -0.58121  -0.57679  -0.57019
 Alpha  occ. eigenvalues --   -0.56684  -0.55846  -0.55702  -0.55224  -0.54940
 Alpha  occ. eigenvalues --   -0.54751  -0.54501  -0.54138  -0.53819  -0.53685
 Alpha  occ. eigenvalues --   -0.53001  -0.52962  -0.52603  -0.52142  -0.52081
 Alpha  occ. eigenvalues --   -0.51913  -0.51444  -0.51212  -0.50934  -0.50758
 Alpha  occ. eigenvalues --   -0.50605  -0.50429  -0.50088  -0.49964  -0.49912
 Alpha  occ. eigenvalues --   -0.49562  -0.49346  -0.49308  -0.49142  -0.48849
 Alpha  occ. eigenvalues --   -0.48598  -0.48390  -0.48103  -0.47982  -0.47065
 Alpha  occ. eigenvalues --   -0.46945  -0.46697  -0.46551  -0.46473  -0.46183
 Alpha  occ. eigenvalues --   -0.46075  -0.45662  -0.45562  -0.45439  -0.45201
 Alpha  occ. eigenvalues --   -0.44972  -0.44763  -0.44505  -0.44257  -0.44207
 Alpha  occ. eigenvalues --   -0.44131  -0.43856  -0.43725  -0.43299  -0.43021
 Alpha  occ. eigenvalues --   -0.42904  -0.42624  -0.42581  -0.42283  -0.41867
 Alpha  occ. eigenvalues --   -0.41746  -0.41690  -0.41548  -0.41392  -0.41202
 Alpha  occ. eigenvalues --   -0.40924  -0.40894  -0.40645  -0.40373  -0.40041
 Alpha  occ. eigenvalues --   -0.39958  -0.39923  -0.39679  -0.39599  -0.38998
 Alpha  occ. eigenvalues --   -0.38948  -0.38770  -0.38255  -0.37666  -0.37531
 Alpha  occ. eigenvalues --   -0.37313  -0.36902  -0.36679  -0.36657  -0.36334
 Alpha  occ. eigenvalues --   -0.36261  -0.35991  -0.35848  -0.35661  -0.35561
 Alpha  occ. eigenvalues --   -0.35128  -0.34589  -0.34235  -0.33337  -0.33163
 Alpha  occ. eigenvalues --   -0.33112  -0.31965  -0.31877  -0.31008  -0.29716
 Alpha  occ. eigenvalues --   -0.29637  -0.28731  -0.27867  -0.27642  -0.23488
 Alpha  occ. eigenvalues --   -0.20961
 Alpha virt. eigenvalues --   -0.06991  -0.02569   0.01488   0.02907   0.05292
 Alpha virt. eigenvalues --    0.05446   0.05736   0.06601   0.07100   0.07663
 Alpha virt. eigenvalues --    0.08033   0.10671   0.11138   0.11544   0.11821

 Mulliken charges:
               1
     1  Mg   0.804716
     2  C    0.118439
     3  C   -0.168872
     4  C   -0.181241
     5  C   -0.097833
     6  N   -0.642771
     7  C    0.317482
     8  C   -0.142307
     9  C   -0.170546
    10  C    0.363010
    11  C   -0.323356
    12  C   -0.173212
    13  C   -0.239059
    14  C    0.593555
    15  O   -0.478599
    16  O   -0.458596
    17  N   -0.733129
    18  C    0.298123
    19  C    0.039510
    20  C   -0.001387
    21  C    0.328202
    22  C   -0.415059
    23  C   -0.066075
    24  C   -0.270607
    25  N   -0.696584
    26  C    0.314409
    27  C   -0.047776
    28  C    0.010722
    29  C    0.327613
    30  C   -0.357875
    31  C   -0.202394
    32  C   -0.294256
    33  N   -0.746126
    34  C    0.218256
    35  C    0.023472
    36  C   -0.034669
    37  C    0.301437
    38  C   -0.384712
    39  C    0.404548
    40  O   -0.433554
    41  C   -0.342389
    42  C    0.610871
    43  O   -0.427373
    44  O   -0.453949
    45  C   -0.073068
    46  C    0.020433
    47  C   -0.162564
    48  C    0.163200
    49  C   -0.362479
    50  C   -0.232290
    51  C   -0.182526
    52  C   -0.166117
    53  C   -0.074856
    54  C   -0.286890
    55  C   -0.167364
    56  C   -0.178184
    57  C   -0.169620
    58  C   -0.055903
    59  C   -0.309607
    60  C   -0.190917
    61  C   -0.200936
    62  C   -0.165790
    63  C   -0.047613
    64  C   -0.310452
    65  C   -0.309301
    66  H    0.076323
    67  H    0.099405
    68  H    0.036793
    69  H    0.095289
    70  H    0.113508
    71  H    0.113911
    72  H    0.118724
    73  H    0.122405
    74  H    0.107719
    75  H    0.095444
    76  H    0.134828
    77  H    0.105474
    78  H    0.136684
    79  H    0.138451
    80  H    0.111518
    81  H    0.096385
    82  H    0.121618
    83  H    0.087534
    84  H    0.137429
    85  H    0.111719
    86  H    0.134726
    87  H    0.096457
    88  H    0.106621
    89  H    0.119153
    90  H    0.086204
    91  H    0.113671
    92  H    0.139960
    93  H    0.114886
    94  H    0.088689
    95  H    0.171955
    96  H    0.096135
    97  H    0.105873
    98  H    0.117243
    99  H    0.136429
   100  H    0.121220
   101  H    0.094104
   102  H    0.115256
   103  H    0.131159
   104  H    0.105151
   105  H    0.082885
   106  H    0.081178
   107  H    0.103078
   108  H    0.089799
   109  H    0.094450
   110  H    0.062981
   111  H    0.087840
   112  H    0.107057
   113  H    0.102222
   114  H    0.089923
   115  H    0.101262
   116  H    0.091782
   117  H    0.079408
   118  H    0.088812
   119  H    0.076490
   120  H    0.087767
   121  H    0.074662
   122  H    0.084546
   123  H    0.103944
   124  H    0.095705
   125  H    0.098628
   126  H    0.083984
   127  H    0.105799
   128  H    0.103392
   129  H    0.100853
   130  H    0.059215
   131  H    0.091319
   132  H    0.072988
   133  H    0.109014
   134  H    0.099845
   135  H    0.113399
   136  H    0.086829
   137  H    0.105675
 Sum of Mulliken charges =   0.00000

 Dipole moment (field-independent basis, Debye):
    X=              1.4332    Y=              6.0989    Z=             -0.7372  Tot=              6.3083
 Quadrupole moment (field-independent basis, Debye-Ang):
   XX=           -331.2453   YY=           -396.4481   ZZ=           -399.1260
   XY=            -22.9355   XZ=             16.4065   YZ=             -2.6744

 Normal termination of Gaussian 09 at Thu Jun 27 03:56:25 2019.
