 Gaussian 09, Revision D.01,
 Gaussian 09:  ES64L-G09RevD.01 24-Apr-2013

 -------------------------------------
 # td=(NStates=1) CAM-B3LYP/6-31G(d,p)
 -------------------------------------

 --
 TD
 --
 Symbolic Z-matrix:
 Charge =  0 Multiplicity = 1

                         Standard orientation:
 ---------------------------------------------------------------------
 Center     Atomic      Atomic             Coordinates (Angstroms)
 Number     Number       Type             X           Y           Z
 ---------------------------------------------------------------------
      1         12           0       -7.073001    0.605945    0.168782
      2          6           0       -4.839731   -1.989425    0.483199
      3          6           0       -4.828142    2.840324    1.276806
      4          6           0       -9.379435    3.065243   -0.257063
      5          6           0       -9.603176   -1.756756   -0.873547
      6          7           0       -5.123548    0.439608    0.768653
      7          6           0       -4.397941   -0.664202    0.785971
      8          6           0       -2.922916   -0.374376    1.248095
      9          6           0       -3.009108    1.066551    1.689490
     10          6           0       -4.389734    1.523370    1.213534
     11          6           0       -2.793882    1.329015    3.217386
     12          6           0       -1.976199   -0.627702    0.013562
     13          6           0       -0.576079   -0.340280    0.434156
     14          6           0        0.476537   -0.721521   -0.621924
     15          8           0        0.199193   -1.239387   -1.693945
     16          8           0        1.716593   -0.428689   -0.217764
     17          7           0       -7.053213    2.648903    0.325466
     18          6           0       -6.158999    3.394436    0.814016
     19          6           0       -6.462927    4.840638    0.862047
     20          6           0       -7.774963    4.852099    0.435745
     21          6           0       -8.229019    3.458543    0.071128
     22          6           0       -5.467588    5.821430    1.298335
     23          6           0       -8.621715    5.976435    0.244545
     24          6           0       -8.349671    7.256542    0.050690
     25          7           0       -9.109365    0.675370   -0.482297
     26          6           0       -9.940872    1.766984   -0.615244
     27          6           0      -11.184852    1.508949   -1.037989
     28          6           0      -11.293848    0.108540   -1.111469
     29          6           0       -9.975431   -0.354181   -0.782644
     30          6           0      -12.398489    2.371230   -1.485394
     31          6           0      -12.431864   -0.836650   -1.615877
     32          6           0      -12.304750   -1.223216   -3.032967
     33          7           0       -7.207738   -1.380161   -0.179403
     34          6           0       -8.305363   -2.290042   -0.512953
     35          6           0       -7.892076   -3.643814   -0.444479
     36          6           0       -6.572665   -3.597927   -0.092434
     37          6           0       -6.185410   -2.207167    0.116355
     38          6           0       -8.749523   -4.838703   -0.868194
     39          6           0       -5.336466   -4.295532    0.201818
     40          8           0       -5.163738   -5.483277    0.103125
     41          6           0       -4.173961   -3.313603    0.503566
     42          6           0       -3.425721   -3.808134    1.778538
     43          8           0       -3.607364   -3.200890    2.856024
     44          8           0       -2.559861   -4.763227    1.620056
     45          6           0       -1.934512   -5.164217    2.833978
     46          6           0        2.767434   -0.485521   -1.190339
     47          6           0        4.080485   -0.258410   -0.579962
     48          6           0        5.137311    0.430118   -1.058648
     49          6           0        5.030159    1.153287   -2.246554
     50          6           0        6.389723    0.495459   -0.180353
     51          6           0        7.694894   -0.060477   -0.836554
     52          6           0        9.029640   -0.052294   -0.095595
     53          6           0       10.279055   -0.431576   -0.888937
     54          6           0       10.067273   -1.824848   -1.304140
     55          6           0       11.412385   -0.174023    0.035632
     56          6           0       12.788096   -0.472431   -0.743288
     57          6           0       13.984867   -0.069373    0.178139
     58          6           0       15.318606   -0.258433   -0.554582
     59          6           0       15.658507   -1.759267   -0.647131
     60          6           0       16.390558    0.486805    0.282824
     61          6           0       17.810753    0.600709   -0.301601
     62          6           0       18.801733    1.130144    0.793262
     63          6           0       20.236189    1.252995    0.236792
     64          6           0       20.378740    2.086271   -1.055868
     65          6           0       21.265789    1.772759    1.308294
     66          1           0       -4.030357    3.551300    1.626982
     67          1           0       -9.922685    4.024432   -0.450003
     68          1           0      -10.558643   -2.571874   -0.848988
     69          1           0       -2.532405   -1.146089    2.030727
     70          1           0       -2.298050    1.779938    1.140777
     71          1           0       -1.713998    1.156241    3.506382
     72          1           0       -2.912725    2.213879    3.403461
     73          1           0       -3.442944    0.722270    3.805146
     74          1           0       -2.051255   -1.666981   -0.757031
     75          1           0       -2.245535    0.049529   -0.768402
     76          1           0       -0.447745    0.605564    0.822993
     77          1           0        0.030632   -0.946341    1.308067
     78          1           0       -4.737057    6.242327    0.507585
     79          1           0       -6.045484    6.699458    1.497307
     80          1           0       -4.853224    5.419840    2.016114
     81          1           0       -9.645298    5.683142    0.402325
     82          1           0       -8.873341    8.132804   -0.174933
     83          1           0       -7.170693    7.620822   -0.233353
     84          1           0      -12.220874    2.781842   -2.420210
     85          1           0      -13.395845    1.781506   -1.575647
     86          1           0      -12.749685    3.192136   -0.623502
     87          1           0      -12.227523   -1.724169   -0.993344
     88          1           0      -13.312391   -0.301412   -1.518608
     89          1           0      -13.066448   -1.910870   -3.326496
     90          1           0      -12.215067   -0.297067   -3.709283
     91          1           0      -11.284944   -1.719255   -3.169124
     92          1           0       -9.093990   -4.840631   -1.804637
     93          1           0       -8.342317   -5.834158   -0.831197
     94          1           0       -9.674885   -4.835552   -0.224443
     95          1           0       -3.459888   -3.708025   -0.239064
     96          1           0       -1.477196   -4.215987    3.185589
     97          1           0       -2.668580   -5.555509    3.490085
     98          1           0       -1.310563   -5.960973    2.521556
     99          1           0        2.856807   -1.627363   -1.434486
    100          1           0        2.495263    0.059340   -2.097228
    101          1           0        4.226692   -0.806453    0.357346
    102          1           0        4.112540    1.162764   -2.841338
    103          1           0        5.473426    2.168994   -2.025749
    104          1           0        5.782261    0.561328   -2.864753
    105          1           0        6.414725    1.528032   -0.048658
    106          1           0        6.276821    0.012539    0.810112
    107          1           0        7.398100   -1.013034   -1.243591
    108          1           0        7.666594    0.402629   -1.917706
    109          1           0        9.078828    0.896980    0.405929
    110          1           0        8.941318   -0.783402    0.791525
    111          1           0       10.414083    0.157756   -1.773754
    112          1           0        9.063693   -2.027395   -1.829463
    113          1           0       10.937572   -2.161377   -1.975254
    114          1           0       10.248530   -2.601461   -0.488144
    115          1           0       11.351793    0.838302    0.641667
    116          1           0       11.358541   -1.002489    0.685430
    117          1           0       12.771007   -1.407457   -1.144055
    118          1           0       12.625211    0.147489   -1.545510
    119          1           0       13.908494    0.927816    0.593099
    120          1           0       13.958995   -0.663709    1.163264
    121          1           0       15.097383    0.140300   -1.458285
    122          1           0       15.448413   -2.280333    0.305743
    123          1           0       14.767882   -2.095027   -1.384501
    124          1           0       16.700494   -1.955659   -1.130069
    125          1           0       16.163008    1.560716    0.784834
    126          1           0       16.612184   -0.173263    1.250757
    127          1           0       17.917922   -0.298426   -0.570691
    128          1           0       17.717870    1.243829   -1.240706
    129          1           0       18.469098    2.154683    1.031364
    130          1           0       18.879465    0.595803    1.702858
    131          1           0       20.397287    0.122734    0.027094
    132          1           0       19.894061    3.076299   -0.843871
    133          1           0       21.168076    2.079830   -1.697944
    134          1           0       19.767069    1.680024   -1.621147
    135          1           0       21.236371    1.122896    2.196362
    136          1           0       22.306717    1.876561    0.728310
    137          1           0       21.030638    2.754767    1.479025
 ---------------------------------------------------------------------

 SCF Done:  E(RCAM-B3LYP) =  -2932.65584831     A.U. after   17 cycles

 Excitation energies and oscillator strengths:

 Excited State   1:      Singlet-A      2.2378 eV  554.05 nm  f=0.2768  <S**2>=0.000
     240 -> 242       -0.12841
     240 -> 243       -0.21557
     241 -> 242        0.63757
     241 -> 243       -0.13624
 This state for optimization and/or second-order correction.
 Total Energy, E(TD-HF/TD-KS) =  -2932.57361140
 Copying the excited state density for this state as the 1-particle RhoCI density.

 The electronic state is 1-A.
 Alpha  occ. eigenvalues --  -46.84457 -19.27025 -19.26150 -19.20264 -19.19164
 Alpha  occ. eigenvalues --  -19.18757 -14.41295 -14.40406 -14.39109 -14.38652
 Alpha  occ. eigenvalues --  -10.38931 -10.38611 -10.33636 -10.32212 -10.31437
 Alpha  occ. eigenvalues --  -10.31425 -10.31374 -10.30681 -10.30039 -10.29341
 Alpha  occ. eigenvalues --  -10.29071 -10.28705 -10.28649 -10.28418 -10.28335
 Alpha  occ. eigenvalues --  -10.28220 -10.28046 -10.27889 -10.27858 -10.27812
 Alpha  occ. eigenvalues --  -10.27748 -10.27727 -10.27722 -10.27688 -10.27285
 Alpha  occ. eigenvalues --  -10.26877 -10.26673 -10.26645 -10.26550 -10.26360
 Alpha  occ. eigenvalues --  -10.26343 -10.26220 -10.26170 -10.26140 -10.26112
 Alpha  occ. eigenvalues --  -10.26022 -10.25937 -10.25772 -10.25376 -10.25347
 Alpha  occ. eigenvalues --  -10.25327 -10.25270 -10.25263 -10.25215 -10.25083
 Alpha  occ. eigenvalues --  -10.25016 -10.24976 -10.24931 -10.24783 -10.24539
 Alpha  occ. eigenvalues --  -10.24358 -10.24286 -10.24171 -10.23854 -10.21777
 Alpha  occ. eigenvalues --   -3.13473  -1.88183  -1.87714  -1.87649  -1.19812
 Alpha  occ. eigenvalues --   -1.18228  -1.10692  -1.08631  -1.06948  -1.05394
 Alpha  occ. eigenvalues --   -1.04299  -1.02501  -1.01641  -0.92529  -0.91678
 Alpha  occ. eigenvalues --   -0.91615  -0.91082  -0.90136  -0.89918  -0.89430
 Alpha  occ. eigenvalues --   -0.88332  -0.87638  -0.87456  -0.86768  -0.85708
 Alpha  occ. eigenvalues --   -0.85303  -0.84554  -0.84140  -0.83363  -0.83095
 Alpha  occ. eigenvalues --   -0.82200  -0.81365  -0.80398  -0.79904  -0.78753
 Alpha  occ. eigenvalues --   -0.78573  -0.77286  -0.76946  -0.76609  -0.76210
 Alpha  occ. eigenvalues --   -0.75180  -0.74899  -0.74127  -0.73735  -0.72576
 Alpha  occ. eigenvalues --   -0.71902  -0.71048  -0.70063  -0.69030  -0.68616
 Alpha  occ. eigenvalues --   -0.66929  -0.66464  -0.65730  -0.65225  -0.64730
 Alpha  occ. eigenvalues --   -0.64149  -0.63332  -0.63133  -0.62963  -0.62000
 Alpha  occ. eigenvalues --   -0.61887  -0.60882  -0.60583  -0.59952  -0.59114
 Alpha  occ. eigenvalues --   -0.58200  -0.57823  -0.57446  -0.57058  -0.56646
 Alpha  occ. eigenvalues --   -0.56298  -0.55527  -0.55147  -0.55051  -0.54866
 Alpha  occ. eigenvalues --   -0.54771  -0.54221  -0.53935  -0.53739  -0.53711
 Alpha  occ. eigenvalues --   -0.53097  -0.52803  -0.52687  -0.52390  -0.52149
 Alpha  occ. eigenvalues --   -0.51829  -0.51352  -0.51071  -0.51000  -0.50715
 Alpha  occ. eigenvalues --   -0.50607  -0.50312  -0.50148  -0.50003  -0.49588
 Alpha  occ. eigenvalues --   -0.49388  -0.48927  -0.48769  -0.48630  -0.48283
 Alpha  occ. eigenvalues --   -0.48012  -0.47721  -0.47680  -0.47629  -0.47180
 Alpha  occ. eigenvalues --   -0.47042  -0.46783  -0.46474  -0.46350  -0.46217
 Alpha  occ. eigenvalues --   -0.46046  -0.45830  -0.45237  -0.45122  -0.44942
 Alpha  occ. eigenvalues --   -0.44765  -0.44701  -0.44527  -0.44278  -0.44106
 Alpha  occ. eigenvalues --   -0.44041  -0.43831  -0.43462  -0.43343  -0.43295
 Alpha  occ. eigenvalues --   -0.43095  -0.42723  -0.42605  -0.42520  -0.42255
 Alpha  occ. eigenvalues --   -0.42147  -0.42121  -0.41796  -0.41560  -0.41226
 Alpha  occ. eigenvalues --   -0.41201  -0.40752  -0.40696  -0.40554  -0.40240
 Alpha  occ. eigenvalues --   -0.40053  -0.39782  -0.39596  -0.39344  -0.39271
 Alpha  occ. eigenvalues --   -0.38709  -0.38487  -0.38270  -0.38070  -0.37883
 Alpha  occ. eigenvalues --   -0.37860  -0.37535  -0.37531  -0.37167  -0.36749
 Alpha  occ. eigenvalues --   -0.36423  -0.36311  -0.36222  -0.35872  -0.35777
 Alpha  occ. eigenvalues --   -0.35696  -0.35371  -0.34995  -0.33889  -0.32858
 Alpha  occ. eigenvalues --   -0.32780  -0.32517  -0.31622  -0.30584  -0.29348
 Alpha  occ. eigenvalues --   -0.28828  -0.28558  -0.28253  -0.27333  -0.24060
 Alpha  occ. eigenvalues --   -0.20993
 Alpha virt. eigenvalues --   -0.05441  -0.03421   0.02157   0.04560   0.05941
 Alpha virt. eigenvalues --    0.06656   0.06837   0.07012   0.07517   0.07712
 Alpha virt. eigenvalues --    0.08402   0.10858   0.11701   0.11861   0.12007

 Mulliken charges:
               1
     1  Mg   0.817310
     2  C    0.094298
     3  C   -0.235171
     4  C   -0.186728
     5  C   -0.165636
     6  N   -0.678749
     7  C    0.329103
     8  C   -0.157722
     9  C   -0.162892
    10  C    0.350147
    11  C   -0.282580
    12  C   -0.184281
    13  C   -0.243138
    14  C    0.598948
    15  O   -0.485104
    16  O   -0.476004
    17  N   -0.688989
    18  C    0.334509
    19  C    0.054151
    20  C   -0.008899
    21  C    0.324297
    22  C   -0.368314
    23  C   -0.069652
    24  C   -0.255239
    25  N   -0.657816
    26  C    0.254452
    27  C    0.043142
    28  C   -0.020020
    29  C    0.267489
    30  C   -0.363753
    31  C   -0.198044
    32  C   -0.295609
    33  N   -0.726278
    34  C    0.208369
    35  C    0.030184
    36  C    0.028397
    37  C    0.288977
    38  C   -0.369834
    39  C    0.337575
    40  O   -0.463452
    41  C   -0.317644
    42  C    0.610731
    43  O   -0.514007
    44  O   -0.421386
    45  C   -0.081645
    46  C    0.027377
    47  C   -0.152239
    48  C    0.122595
    49  C   -0.357246
    50  C   -0.212690
    51  C   -0.197475
    52  C   -0.164220
    53  C   -0.051824
    54  C   -0.312485
    55  C   -0.179202
    56  C   -0.206655
    57  C   -0.171709
    58  C   -0.054752
    59  C   -0.300670
    60  C   -0.183065
    61  C   -0.158050
    62  C   -0.174947
    63  C   -0.071061
    64  C   -0.303279
    65  C   -0.298129
    66  H    0.073711
    67  H    0.085305
    68  H    0.093470
    69  H    0.135084
    70  H    0.104487
    71  H    0.094723
    72  H    0.114301
    73  H    0.131518
    74  H    0.115813
    75  H    0.124485
    76  H    0.140510
    77  H    0.107896
    78  H    0.117836
    79  H    0.127846
    80  H    0.129738
    81  H    0.101723
    82  H    0.128057
    83  H    0.064294
    84  H    0.137080
    85  H    0.105926
    86  H    0.084517
    87  H    0.099350
    88  H    0.102423
    89  H    0.107506
    90  H    0.097370
    91  H    0.099759
    92  H    0.141642
    93  H    0.144511
    94  H    0.112841
    95  H    0.161663
    96  H    0.133660
    97  H    0.143063
    98  H    0.128403
    99  H    0.117170
   100  H    0.118246
   101  H    0.084188
   102  H    0.120141
   103  H    0.109400
   104  H    0.115505
   105  H    0.106896
   106  H    0.101023
   107  H    0.101773
   108  H    0.066608
   109  H    0.091364
   110  H    0.084190
   111  H    0.092477
   112  H    0.108893
   113  H    0.084829
   114  H    0.096836
   115  H    0.085152
   116  H    0.099847
   117  H    0.106116
   118  H    0.101829
   119  H    0.097719
   120  H    0.077025
   121  H    0.099473
   122  H    0.113908
   123  H    0.078360
   124  H    0.101258
   125  H    0.063081
   126  H    0.063678
   127  H    0.097035
   128  H    0.087851
   129  H    0.083958
   130  H    0.100112
   131  H    0.063721
   132  H    0.086900
   133  H    0.104697
   134  H    0.114398
   135  H    0.095576
   136  H    0.082269
   137  H    0.112219
 Sum of Mulliken charges =   0.00000

 Dipole moment (field-independent basis, Debye):
    X=              2.2028    Y=              5.4303    Z=              0.2899  Tot=              5.8672
 Quadrupole moment (field-independent basis, Debye-Ang):
   XX=           -373.6686   YY=           -383.7285   ZZ=           -397.8939
   XY=            -29.3785   XZ=              1.8459   YZ=             -3.9079

 Normal termination of Gaussian 09 at Sun Jun 30 17:17:10 2019.
