 Gaussian 09, Revision D.01,
 Gaussian 09:  ES64L-G09RevD.01 24-Apr-2013

 -------------------------------------
 # td=(NStates=1) CAM-B3LYP/6-31G(d,p)
 -------------------------------------

 --
 TD
 --
 Symbolic Z-matrix:
 Charge =  0 Multiplicity = 1

                         Standard orientation:
 ---------------------------------------------------------------------
 Center     Atomic      Atomic             Coordinates (Angstroms)
 Number     Number       Type             X           Y           Z
 ---------------------------------------------------------------------
      1         12           0       -7.120023    0.549625    0.079016
      2          6           0       -4.873991   -2.006492    0.519299
      3          6           0       -4.747758    2.752009    1.285465
      4          6           0       -9.289839    3.186659   -0.360655
      5          6           0       -9.486280   -1.626729   -0.863681
      6          7           0       -5.116823    0.430827    0.810969
      7          6           0       -4.330737   -0.757295    0.961445
      8          6           0       -2.952004   -0.439121    1.371299
      9          6           0       -3.040346    1.037714    1.784421
     10          6           0       -4.342026    1.457714    1.191220
     11          6           0       -2.976478    1.253666    3.384825
     12          6           0       -1.959134   -0.711537    0.210580
     13          6           0       -0.470318   -0.461455    0.462715
     14          6           0        0.500588   -0.680539   -0.700106
     15          8           0        0.220985   -0.974681   -1.833749
     16          8           0        1.804203   -0.481076   -0.169968
     17          7           0       -7.073571    2.571432    0.354971
     18          6           0       -6.054553    3.313659    0.843230
     19          6           0       -6.303884    4.728120    0.912273
     20          6           0       -7.565758    4.956900    0.383360
     21          6           0       -8.059910    3.564059    0.133865
     22          6           0       -5.379090    5.817720    1.314926
     23          6           0       -8.417006    6.076764    0.312877
     24          6           0       -7.997441    7.328660   -0.054487
     25          7           0       -9.098384    0.679688   -0.479459
     26          6           0       -9.808209    1.902849   -0.686106
     27          6           0      -11.210231    1.543959   -1.122560
     28          6           0      -11.242168    0.209436   -1.217885
     29          6           0       -9.959509   -0.252185   -0.863130
     30          6           0      -12.269581    2.562941   -1.271705
     31          6           0      -12.399033   -0.648994   -1.774541
     32          6           0      -12.266792   -1.036594   -3.182522
     33          7           0       -7.204683   -1.412012   -0.122241
     34          6           0       -8.286954   -2.193945   -0.495902
     35          6           0       -7.910663   -3.604803   -0.569720
     36          6           0       -6.551149   -3.582887   -0.130478
     37          6           0       -6.178264   -2.201640    0.217862
     38          6           0       -8.638839   -4.786620   -0.895524
     39          6           0       -5.397117   -4.310891    0.172749
     40          8           0       -5.185648   -5.525425    0.124695
     41          6           0       -4.226844   -3.376227    0.626562
     42          6           0       -3.751866   -3.758671    1.908337
     43          8           0       -3.868625   -3.272049    2.979041
     44          8           0       -2.852878   -4.842501    1.574999
     45          6           0       -2.164546   -5.384011    2.795206
     46          6           0        2.675346   -0.635969   -1.213275
     47          6           0        4.135368   -0.525295   -0.645710
     48          6           0        5.166835    0.213262   -0.984920
     49          6           0        5.055065    1.305104   -2.097046
     50          6           0        6.446295    0.329476   -0.228447
     51          6           0        7.617461   -0.137825   -1.060222
     52          6           0        8.959522   -0.053551   -0.226747
     53          6           0       10.149400   -0.466833   -1.078594
     54          6           0       10.061783   -1.790601   -1.604610
     55          6           0       11.384691   -0.377487   -0.041042
     56          6           0       12.763378   -0.628468   -0.651110
     57          6           0       13.932662   -0.223442    0.186699
     58          6           0       15.303315   -0.144543   -0.483374
     59          6           0       15.597911   -1.488559   -1.036210
     60          6           0       16.364791    0.452216    0.486983
     61          6           0       17.725366    0.531496   -0.210168
     62          6           0       18.836650    1.284621    0.745386
     63          6           0       20.248546    1.393954    0.419530
     64          6           0       20.324661    2.042339   -0.944099
     65          6           0       20.982323    1.910578    1.480940
     66          1           0       -4.037731    3.268010    1.855649
     67          1           0      -10.072715    4.009027   -0.549883
     68          1           0      -10.364471   -2.334208   -1.173547
     69          1           0       -2.444377   -1.236557    2.203147
     70          1           0       -2.142482    1.483834    1.209800
     71          1           0       -1.840696    0.996001    3.481644
     72          1           0       -3.265108    2.292574    3.701419
     73          1           0       -3.557880    0.571237    4.088215
     74          1           0       -2.107274   -1.670037   -0.473432
     75          1           0       -2.234897    0.153120   -0.520541
     76          1           0       -0.233121    0.575969    0.915579
     77          1           0        0.052369   -1.292950    1.390080
     78          1           0       -4.655207    6.154879    0.320587
     79          1           0       -5.974490    6.644721    1.791461
     80          1           0       -4.685408    5.575264    2.188049
     81          1           0       -9.503120    6.009219    0.599807
     82          1           0       -8.959651    7.975267    0.260137
     83          1           0       -7.136713    7.735046   -0.655813
     84          1           0      -11.888712    3.251401   -2.055673
     85          1           0      -13.268454    2.129749   -1.700797
     86          1           0      -12.227044    3.100445   -0.150163
     87          1           0      -12.557789   -1.566008   -1.265729
     88          1           0      -13.252174   -0.171584   -1.583187
     89          1           0      -13.112416   -1.435108   -3.467646
     90          1           0      -12.262127   -0.181489   -4.062819
     91          1           0      -11.499234   -1.724045   -3.260380
     92          1           0       -9.059933   -4.956668   -1.977777
     93          1           0       -7.815593   -5.596304   -0.848310
     94          1           0       -9.362011   -5.043613   -0.231872
     95          1           0       -3.545984   -3.432359   -0.362695
     96          1           0       -1.229188   -4.718213    3.042284
     97          1           0       -3.106717   -5.314044    3.436682
     98          1           0       -1.652733   -6.356791    2.409499
     99          1           0        2.486323   -1.667248   -1.597581
    100          1           0        2.355297    0.221896   -2.121918
    101          1           0        4.385195   -1.314879    0.177309
    102          1           0        4.052943    1.374475   -2.476132
    103          1           0        5.370396    2.324876   -1.868189
    104          1           0        5.870756    1.151861   -2.914122
    105          1           0        6.655117    1.248141    0.046501
    106          1           0        6.206342   -0.269546    0.751471
    107          1           0        7.532891   -1.353598   -1.451713
    108          1           0        7.699315    0.260510   -1.845977
    109          1           0        8.961151    1.068890    0.192042
    110          1           0        8.866008   -0.621380    0.731912
    111          1           0       10.424261    0.111370   -1.917597
    112          1           0        9.141413   -2.062112   -2.224512
    113          1           0       10.733851   -2.118648   -2.380428
    114          1           0       10.150574   -2.479665   -0.802151
    115          1           0       11.481917    0.639821    0.397441
    116          1           0       11.374129   -1.148148    0.880211
    117          1           0       13.012817   -1.734710   -0.962416
    118          1           0       12.776680   -0.113085   -1.620949
    119          1           0       13.716556    0.823289    0.484360
    120          1           0       14.162939   -0.748884    1.129669
    121          1           0       15.155897    0.425940   -1.394185
    122          1           0       15.871630   -2.275470   -0.201192
    123          1           0       14.831388   -2.073310   -1.650424
    124          1           0       16.473401   -1.489326   -1.664048
    125          1           0       16.183909    1.306468    0.659125
    126          1           0       16.569636   -0.137109    1.330116
    127          1           0       18.026188   -0.369320   -0.212636
    128          1           0       17.752613    1.207166   -1.076902
    129          1           0       18.226430    2.219182    0.996255
    130          1           0       18.801111    0.745936    1.604133
    131          1           0       20.503561    0.306462    0.381782
    132          1           0       19.623526    3.027475   -0.946672
    133          1           0       21.468816    1.986737   -1.271628
    134          1           0       19.795358    1.391582   -1.758470
    135          1           0       21.106686    1.321875    2.238971
    136          1           0       22.093213    2.163305    1.210479
    137          1           0       20.711238    2.858235    1.791411
 ---------------------------------------------------------------------

 SCF Done:  E(RCAM-B3LYP) =  -2932.49269693     A.U. after   17 cycles

 Excitation energies and oscillator strengths:

 Excited State   1:      Singlet-A      1.9975 eV  620.69 nm  f=0.2512  <S**2>=0.000
     240 -> 243        0.26050
     241 -> 242        0.64757
 This state for optimization and/or second-order correction.
 Total Energy, E(TD-HF/TD-KS) =  -2932.41928953
 Copying the excited state density for this state as the 1-particle RhoCI density.

 The electronic state is 1-A.
 Alpha  occ. eigenvalues --  -46.84228 -19.26534 -19.23440 -19.23419 -19.22573
 Alpha  occ. eigenvalues --  -19.19110 -14.41638 -14.40404 -14.39590 -14.39321
 Alpha  occ. eigenvalues --  -10.40717 -10.38933 -10.34126 -10.33216 -10.31861
 Alpha  occ. eigenvalues --  -10.31811 -10.31143 -10.30634 -10.29700 -10.29641
 Alpha  occ. eigenvalues --  -10.29534 -10.29504 -10.29301 -10.29187 -10.29185
 Alpha  occ. eigenvalues --  -10.29045 -10.28955 -10.28583 -10.28456 -10.28356
 Alpha  occ. eigenvalues --  -10.28353 -10.28210 -10.28176 -10.28103 -10.28102
 Alpha  occ. eigenvalues --  -10.27930 -10.27290 -10.27052 -10.26786 -10.26710
 Alpha  occ. eigenvalues --  -10.26526 -10.26509 -10.26499 -10.26268 -10.26251
 Alpha  occ. eigenvalues --  -10.26094 -10.25806 -10.25655 -10.25584 -10.25360
 Alpha  occ. eigenvalues --  -10.25126 -10.25112 -10.25062 -10.24974 -10.24807
 Alpha  occ. eigenvalues --  -10.24650 -10.24579 -10.24496 -10.24131 -10.24064
 Alpha  occ. eigenvalues --  -10.23485 -10.23436 -10.23333 -10.22586 -10.22355
 Alpha  occ. eigenvalues --   -3.13351  -1.88049  -1.87581  -1.87551  -1.19053
 Alpha  occ. eigenvalues --   -1.16891  -1.11714  -1.09581  -1.07544  -1.04438
 Alpha  occ. eigenvalues --   -1.03506  -1.03204  -1.02341  -0.93378  -0.92012
 Alpha  occ. eigenvalues --   -0.91423  -0.90486  -0.90119  -0.89709  -0.89521
 Alpha  occ. eigenvalues --   -0.89350  -0.88654  -0.87821  -0.86851  -0.85694
 Alpha  occ. eigenvalues --   -0.85335  -0.84783  -0.84198  -0.83375  -0.83124
 Alpha  occ. eigenvalues --   -0.81137  -0.80955  -0.79904  -0.79691  -0.78525
 Alpha  occ. eigenvalues --   -0.77339  -0.77201  -0.76752  -0.75812  -0.75049
 Alpha  occ. eigenvalues --   -0.74932  -0.74418  -0.73917  -0.73481  -0.72282
 Alpha  occ. eigenvalues --   -0.71468  -0.70752  -0.70434  -0.69078  -0.68527
 Alpha  occ. eigenvalues --   -0.67853  -0.67208  -0.65352  -0.65149  -0.64218
 Alpha  occ. eigenvalues --   -0.63721  -0.63129  -0.62714  -0.62356  -0.62211
 Alpha  occ. eigenvalues --   -0.61176  -0.60374  -0.59748  -0.59174  -0.58848
 Alpha  occ. eigenvalues --   -0.58129  -0.57886  -0.57811  -0.57128  -0.56805
 Alpha  occ. eigenvalues --   -0.56691  -0.56288  -0.55598  -0.55360  -0.54951
 Alpha  occ. eigenvalues --   -0.54763  -0.54642  -0.54288  -0.53699  -0.53616
 Alpha  occ. eigenvalues --   -0.53381  -0.52820  -0.52393  -0.52148  -0.51695
 Alpha  occ. eigenvalues --   -0.51468  -0.51368  -0.51267  -0.50908  -0.50633
 Alpha  occ. eigenvalues --   -0.50222  -0.49845  -0.49789  -0.49649  -0.49406
 Alpha  occ. eigenvalues --   -0.49245  -0.48728  -0.48674  -0.48541  -0.48479
 Alpha  occ. eigenvalues --   -0.48036  -0.47917  -0.47516  -0.47159  -0.47042
 Alpha  occ. eigenvalues --   -0.46927  -0.46837  -0.46419  -0.46140  -0.45519
 Alpha  occ. eigenvalues --   -0.45478  -0.45335  -0.45197  -0.44984  -0.44772
 Alpha  occ. eigenvalues --   -0.44635  -0.44381  -0.44231  -0.44077  -0.43949
 Alpha  occ. eigenvalues --   -0.43780  -0.43596  -0.43431  -0.43382  -0.43226
 Alpha  occ. eigenvalues --   -0.43212  -0.43000  -0.42853  -0.42696  -0.42212
 Alpha  occ. eigenvalues --   -0.42169  -0.41937  -0.41756  -0.41414  -0.41312
 Alpha  occ. eigenvalues --   -0.41242  -0.40894  -0.40441  -0.40324  -0.40281
 Alpha  occ. eigenvalues --   -0.40142  -0.39879  -0.39644  -0.39422  -0.39326
 Alpha  occ. eigenvalues --   -0.38837  -0.38743  -0.38626  -0.37675  -0.37512
 Alpha  occ. eigenvalues --   -0.37297  -0.37139  -0.36779  -0.36467  -0.36405
 Alpha  occ. eigenvalues --   -0.36162  -0.36008  -0.35915  -0.35298  -0.35073
 Alpha  occ. eigenvalues --   -0.34992  -0.34962  -0.34686  -0.34061  -0.33888
 Alpha  occ. eigenvalues --   -0.33541  -0.32925  -0.32635  -0.30205  -0.29868
 Alpha  occ. eigenvalues --   -0.29626  -0.29301  -0.28795  -0.27721  -0.22964
 Alpha  occ. eigenvalues --   -0.21167
 Alpha virt. eigenvalues --   -0.06608  -0.03336   0.00591   0.03668   0.04277
 Alpha virt. eigenvalues --    0.04822   0.05744   0.06520   0.07378   0.07519
 Alpha virt. eigenvalues --    0.08092   0.09942   0.10232   0.11028   0.11431

 Mulliken charges:
               1
     1  Mg   0.821305
     2  C   -0.013985
     3  C   -0.194277
     4  C   -0.209455
     5  C   -0.194786
     6  N   -0.631140
     7  C    0.319959
     8  C   -0.153910
     9  C   -0.160487
    10  C    0.356243
    11  C   -0.298768
    12  C   -0.181639
    13  C   -0.243624
    14  C    0.624759
    15  O   -0.441907
    16  O   -0.464141
    17  N   -0.673920
    18  C    0.323995
    19  C    0.018770
    20  C    0.086352
    21  C    0.250602
    22  C   -0.362411
    23  C   -0.132902
    24  C   -0.222427
    25  N   -0.669436
    26  C    0.243199
    27  C    0.026684
    28  C    0.035544
    29  C    0.300680
    30  C   -0.367662
    31  C   -0.227489
    32  C   -0.286455
    33  N   -0.736705
    34  C    0.284981
    35  C    0.095169
    36  C    0.024009
    37  C    0.326438
    38  C   -0.415587
    39  C    0.295432
    40  O   -0.475432
    41  C   -0.287097
    42  C    0.644295
    43  O   -0.449007
    44  O   -0.506257
    45  C   -0.077098
    46  C    0.029904
    47  C   -0.167302
    48  C    0.150016
    49  C   -0.366353
    50  C   -0.216340
    51  C   -0.139888
    52  C   -0.169358
    53  C   -0.058723
    54  C   -0.303562
    55  C   -0.176939
    56  C   -0.180184
    57  C   -0.160974
    58  C   -0.067608
    59  C   -0.317021
    60  C   -0.137627
    61  C   -0.195166
    62  C   -0.196936
    63  C   -0.033642
    64  C   -0.299827
    65  C   -0.289269
    66  H    0.069090
    67  H    0.082829
    68  H    0.080664
    69  H    0.109058
    70  H    0.105963
    71  H    0.102255
    72  H    0.113348
    73  H    0.134304
    74  H    0.126496
    75  H    0.102025
    76  H    0.137406
    77  H    0.089166
    78  H    0.096325
    79  H    0.124418
    80  H    0.106523
    81  H    0.116266
    82  H    0.081313
    83  H    0.128096
    84  H    0.130677
    85  H    0.110460
    86  H    0.110991
    87  H    0.107840
    88  H    0.102416
    89  H    0.117421
    90  H    0.074130
    91  H    0.113703
    92  H    0.117672
    93  H    0.150474
    94  H    0.147106
    95  H    0.176802
    96  H    0.104231
    97  H    0.147512
    98  H    0.126991
    99  H    0.122712
   100  H    0.081554
   101  H    0.078278
   102  H    0.110113
   103  H    0.111916
   104  H    0.098831
   105  H    0.116037
   106  H    0.082305
   107  H    0.057957
   108  H    0.100104
   109  H    0.068519
   110  H    0.101827
   111  H    0.094136
   112  H    0.088070
   113  H    0.105576
   114  H    0.108104
   115  H    0.091012
   116  H    0.075089
   117  H    0.079052
   118  H    0.084090
   119  H    0.073091
   120  H    0.085291
   121  H    0.084005
   122  H    0.069916
   123  H    0.100300
   124  H    0.104215
   125  H    0.090534
   126  H    0.094856
   127  H    0.105897
   128  H    0.093936
   129  H    0.064548
   130  H    0.082689
   131  H    0.080715
   132  H    0.088917
   133  H    0.084800
   134  H    0.099976
   135  H    0.114777
   136  H    0.071562
   137  H    0.107110
 Sum of Mulliken charges =   0.00000

 Dipole moment (field-independent basis, Debye):
    X=             -0.3412    Y=              4.7011    Z=              0.2202  Tot=              4.7186
 Quadrupole moment (field-independent basis, Debye-Ang):
   XX=           -327.2266   YY=           -399.3648   ZZ=           -398.1134
   XY=            -21.7274   XZ=             15.7022   YZ=              0.6643

 Normal termination of Gaussian 09 at Fri Jun 28 10:29:24 2019.
