 Gaussian 09, Revision D.01,
 Gaussian 09:  ES64L-G09RevD.01 24-Apr-2013

 -------------------------------------
 # td=(NStates=1) CAM-B3LYP/6-31G(d,p)
 -------------------------------------

 --
 TD
 --
 Symbolic Z-matrix:
 Charge =  0 Multiplicity = 1

                         Standard orientation:
 ---------------------------------------------------------------------
 Center     Atomic      Atomic             Coordinates (Angstroms)
 Number     Number       Type             X           Y           Z
 ---------------------------------------------------------------------
      1         12           0       -7.232220    0.613347    0.162388
      2          6           0       -4.830957   -1.951805    0.535577
      3          6           0       -4.921513    2.853772    1.198334
      4          6           0       -9.561689    3.117034   -0.333762
      5          6           0       -9.499855   -1.819046   -0.872075
      6          7           0       -5.165099    0.426038    0.765465
      7          6           0       -4.303253   -0.701058    0.759562
      8          6           0       -2.911306   -0.402883    1.166800
      9          6           0       -3.117724    1.067968    1.645773
     10          6           0       -4.410849    1.475609    1.202268
     11          6           0       -3.006002    1.115244    3.189185
     12          6           0       -1.914090   -0.488939    0.028407
     13          6           0       -0.441618   -0.347725    0.495234
     14          6           0        0.551924   -0.584547   -0.617462
     15          8           0        0.329397   -0.888791   -1.737216
     16          8           0        1.750376   -0.424673   -0.207733
     17          7           0       -7.202405    2.487276    0.394899
     18          6           0       -6.191636    3.317471    0.658456
     19          6           0       -6.517466    4.749721    0.914317
     20          6           0       -7.799284    4.848786    0.439923
     21          6           0       -8.267011    3.421037    0.243395
     22          6           0       -5.537908    5.872396    1.275368
     23          6           0       -8.627763    5.986919    0.221335
     24          6           0       -8.146006    7.215691    0.077878
     25          7           0       -9.199102    0.673711   -0.442683
     26          6           0       -9.978671    1.785937   -0.556212
     27          6           0      -11.297771    1.477972   -1.072019
     28          6           0      -11.236563    0.074954   -1.304209
     29          6           0       -9.984860   -0.447763   -0.867218
     30          6           0      -12.444715    2.470319   -1.277623
     31          6           0      -12.396662   -0.744235   -1.744962
     32          6           0      -12.322136   -1.149831   -3.242616
     33          7           0       -7.241123   -1.392648   -0.261795
     34          6           0       -8.229790   -2.240267   -0.531572
     35          6           0       -7.774801   -3.629659   -0.514599
     36          6           0       -6.442586   -3.520207   -0.053206
     37          6           0       -6.174757   -2.176832    0.034012
     38          6           0       -8.582082   -4.827758   -0.840516
     39          6           0       -5.208416   -4.324291    0.122740
     40          8           0       -5.082685   -5.551610    0.009626
     41          6           0       -4.051488   -3.274655    0.607889
     42          6           0       -3.506453   -3.722342    1.899945
     43          8           0       -3.743852   -3.225314    2.978889
     44          8           0       -2.559337   -4.721467    1.679538
     45          6           0       -1.901883   -5.174773    2.805741
     46          6           0        2.801456   -0.655341   -1.259727
     47          6           0        4.128158   -0.501103   -0.541154
     48          6           0        5.073130    0.307399   -0.907100
     49          6           0        5.112653    1.207463   -2.117868
     50          6           0        6.465574    0.382525   -0.114881
     51          6           0        7.679760   -0.103430   -0.756991
     52          6           0        8.932703   -0.091157    0.003846
     53          6           0       10.212484   -0.569058   -0.819083
     54          6           0        9.875211   -1.963684   -1.362328
     55          6           0       11.432345   -0.378673    0.137265
     56          6           0       12.809844   -0.447280   -0.696765
     57          6           0       14.036448   -0.142145    0.227888
     58          6           0       15.349878   -0.145127   -0.567816
     59          6           0       15.627260   -1.494203   -1.063423
     60          6           0       16.501583    0.533861    0.255523
     61          6           0       17.867840    0.580410   -0.212918
     62          6           0       18.918466    1.127041    0.784348
     63          6           0       20.338353    1.321300    0.196177
     64          6           0       20.349608    2.164665   -1.117406
     65          6           0       21.243967    1.871005    1.347026
     66          1           0       -4.151482    3.490825    1.574179
     67          1           0      -10.404767    3.792255   -0.312631
     68          1           0      -10.160564   -2.486750   -1.147224
     69          1           0       -2.643624   -1.033009    1.959802
     70          1           0       -2.369234    1.690899    1.129533
     71          1           0       -2.008014    0.793275    3.583775
     72          1           0       -3.337635    1.989357    3.577056
     73          1           0       -3.673577    0.318889    3.667355
     74          1           0       -1.955547   -1.483364   -0.361700
     75          1           0       -2.085388    0.171225   -0.866140
     76          1           0       -0.172417    0.504177    0.904280
     77          1           0       -0.078425   -0.945653    1.517013
     78          1           0       -4.886295    6.028733    0.439920
     79          1           0       -6.116675    6.794739    1.622104
     80          1           0       -4.918376    5.419017    2.182074
     81          1           0       -9.700692    6.009977    0.481827
     82          1           0       -9.012833    8.096547    0.082516
     83          1           0       -7.219152    7.422974   -0.120559
     84          1           0      -12.165283    3.134491   -2.039311
     85          1           0      -13.260924    1.745913   -1.955261
     86          1           0      -12.837830    3.182345   -0.269047
     87          1           0      -12.578929   -1.708547   -1.306937
     88          1           0      -13.350235   -0.318035   -1.448395
     89          1           0      -13.295102   -1.736185   -3.574162
     90          1           0      -12.392447   -0.206006   -3.945150
     91          1           0      -11.519597   -1.775534   -3.357511
     92          1           0       -8.432275   -4.882484   -1.963123
     93          1           0       -8.015327   -5.555234   -0.598826
     94          1           0       -9.428654   -4.969408   -0.129754
     95          1           0       -3.117091   -3.229451   -0.042923
     96          1           0       -1.201866   -4.254067    3.236477
     97          1           0       -2.611644   -5.428117    3.648183
     98          1           0       -1.288901   -6.128635    2.714570
     99          1           0        2.310627   -1.674720   -1.642329
    100          1           0        2.452993    0.018988   -2.074105
    101          1           0        4.123379   -1.197032    0.361130
    102          1           0        4.134815    1.451324   -2.596388
    103          1           0        5.641538    2.239446   -2.275449
    104          1           0        5.717205    0.543820   -2.809376
    105          1           0        6.664847    1.467019    0.070641
    106          1           0        6.077806   -0.105012    0.872725
    107          1           0        7.568726   -1.166313   -1.066543
    108          1           0        7.847497    0.373716   -1.631080
    109          1           0        9.123116    0.802290    0.477470
    110          1           0        8.772992   -0.576843    0.951229
    111          1           0       10.186799    0.378790   -1.649618
    112          1           0        9.256061   -2.049066   -2.137016
    113          1           0       10.982538   -2.367734   -1.640757
    114          1           0        9.305797   -2.671054   -0.594970
    115          1           0       11.195069    0.586167    0.927906
    116          1           0       11.476325   -1.263516    0.699379
    117          1           0       12.950923   -1.391755   -1.180809
    118          1           0       12.705173    0.289340   -1.568362
    119          1           0       13.834089    0.950062    0.716377
    120          1           0       13.863818   -0.918432    1.122534
    121          1           0       15.314960    0.629582   -1.344275
    122          1           0       15.431738   -2.162764   -0.264199
    123          1           0       14.834832   -1.716439   -1.774686
    124          1           0       16.579996   -1.844750   -1.536612
    125          1           0       16.267529    1.689930    0.529095
    126          1           0       16.367949   -0.082041    1.243537
    127          1           0       18.244703   -0.470882   -0.414655
    128          1           0       17.925265    0.979836   -1.226097
    129          1           0       18.535765    2.077419    0.897245
    130          1           0       18.832144    0.823778    1.860220
    131          1           0       20.869446    0.286184    0.054567
    132          1           0       19.592406    3.103058   -1.078455
    133          1           0       21.395802    2.232155   -1.635033
    134          1           0       19.935348    1.694957   -1.874114
    135          1           0       21.162219    1.488362    2.337295
    136          1           0       22.185554    1.895805    0.911658
    137          1           0       20.998081    3.025120    1.523007
 ---------------------------------------------------------------------

 SCF Done:  E(RCAM-B3LYP) =  -2932.60421773     A.U. after   18 cycles

 Excitation energies and oscillator strengths:

 Excited State   1:      Singlet-A      2.0542 eV  603.57 nm  f=0.1764  <S**2>=0.000
     240 -> 243        0.27615
     241 -> 242        0.64371
 This state for optimization and/or second-order correction.
 Total Energy, E(TD-HF/TD-KS) =  -2932.52872818
 Copying the excited state density for this state as the 1-particle RhoCI density.

 The electronic state is 1-A.
 Alpha  occ. eigenvalues --  -46.83447 -19.26352 -19.25149 -19.21713 -19.20826
 Alpha  occ. eigenvalues --  -19.19557 -14.41506 -14.40545 -14.39108 -14.38535
 Alpha  occ. eigenvalues --  -10.39725 -10.37553 -10.36107 -10.32703 -10.32373
 Alpha  occ. eigenvalues --  -10.31299 -10.30996 -10.30833 -10.29905 -10.29245
 Alpha  occ. eigenvalues --  -10.28977 -10.28676 -10.28668 -10.28634 -10.28432
 Alpha  occ. eigenvalues --  -10.28104 -10.28074 -10.28053 -10.27980 -10.27798
 Alpha  occ. eigenvalues --  -10.27622 -10.27536 -10.27488 -10.27454 -10.27451
 Alpha  occ. eigenvalues --  -10.27368 -10.27290 -10.27164 -10.27086 -10.27050
 Alpha  occ. eigenvalues --  -10.27031 -10.27013 -10.26928 -10.26902 -10.26896
 Alpha  occ. eigenvalues --  -10.26597 -10.26455 -10.26164 -10.26089 -10.26079
 Alpha  occ. eigenvalues --  -10.26041 -10.25896 -10.25891 -10.25831 -10.25752
 Alpha  occ. eigenvalues --  -10.25642 -10.25249 -10.24924 -10.24861 -10.24582
 Alpha  occ. eigenvalues --  -10.24422 -10.24183 -10.24161 -10.24103 -10.23592
 Alpha  occ. eigenvalues --   -3.12751  -1.87427  -1.87027  -1.86931  -1.20305
 Alpha  occ. eigenvalues --   -1.18103  -1.10115  -1.09878  -1.09191  -1.04867
 Alpha  occ. eigenvalues --   -1.03982  -1.03098  -1.00688  -0.92317  -0.91875
 Alpha  occ. eigenvalues --   -0.90751  -0.90584  -0.90349  -0.89528  -0.88328
 Alpha  occ. eigenvalues --   -0.88166  -0.87645  -0.86896  -0.86724  -0.86077
 Alpha  occ. eigenvalues --   -0.85362  -0.84383  -0.83874  -0.83398  -0.82356
 Alpha  occ. eigenvalues --   -0.81578  -0.81181  -0.80299  -0.79905  -0.78629
 Alpha  occ. eigenvalues --   -0.77984  -0.76578  -0.76301  -0.76146  -0.75675
 Alpha  occ. eigenvalues --   -0.75494  -0.75054  -0.74339  -0.73964  -0.72258
 Alpha  occ. eigenvalues --   -0.71703  -0.70486  -0.69694  -0.69076  -0.68582
 Alpha  occ. eigenvalues --   -0.67474  -0.66965  -0.65568  -0.64403  -0.64196
 Alpha  occ. eigenvalues --   -0.64030  -0.63035  -0.62925  -0.62289  -0.61955
 Alpha  occ. eigenvalues --   -0.61679  -0.61197  -0.60476  -0.60033  -0.59138
 Alpha  occ. eigenvalues --   -0.58581  -0.58306  -0.57422  -0.56902  -0.56716
 Alpha  occ. eigenvalues --   -0.56629  -0.55562  -0.55182  -0.54876  -0.54484
 Alpha  occ. eigenvalues --   -0.54314  -0.54159  -0.53902  -0.53720  -0.53100
 Alpha  occ. eigenvalues --   -0.52475  -0.52327  -0.52159  -0.51920  -0.51853
 Alpha  occ. eigenvalues --   -0.51748  -0.51375  -0.51120  -0.50911  -0.50496
 Alpha  occ. eigenvalues --   -0.50434  -0.50330  -0.49909  -0.49713  -0.49284
 Alpha  occ. eigenvalues --   -0.49109  -0.49058  -0.48666  -0.48559  -0.48320
 Alpha  occ. eigenvalues --   -0.47915  -0.47772  -0.47414  -0.47338  -0.47004
 Alpha  occ. eigenvalues --   -0.46963  -0.46888  -0.46393  -0.46369  -0.46171
 Alpha  occ. eigenvalues --   -0.46033  -0.45925  -0.45472  -0.44997  -0.44517
 Alpha  occ. eigenvalues --   -0.44456  -0.44354  -0.44272  -0.44092  -0.44040
 Alpha  occ. eigenvalues --   -0.43871  -0.43653  -0.43536  -0.43200  -0.42859
 Alpha  occ. eigenvalues --   -0.42743  -0.42709  -0.42561  -0.42401  -0.42338
 Alpha  occ. eigenvalues --   -0.42192  -0.41858  -0.41769  -0.41575  -0.41468
 Alpha  occ. eigenvalues --   -0.41321  -0.40872  -0.40837  -0.40659  -0.40592
 Alpha  occ. eigenvalues --   -0.40437  -0.39931  -0.39697  -0.39631  -0.39445
 Alpha  occ. eigenvalues --   -0.38396  -0.38195  -0.38186  -0.38052  -0.38022
 Alpha  occ. eigenvalues --   -0.37565  -0.37259  -0.36958  -0.36932  -0.36606
 Alpha  occ. eigenvalues --   -0.36322  -0.36209  -0.36115  -0.35879  -0.35767
 Alpha  occ. eigenvalues --   -0.35262  -0.34465  -0.34286  -0.34229  -0.33718
 Alpha  occ. eigenvalues --   -0.33529  -0.32759  -0.31775  -0.30829  -0.30362
 Alpha  occ. eigenvalues --   -0.30051  -0.29158  -0.28777  -0.27065  -0.22719
 Alpha  occ. eigenvalues --   -0.20992
 Alpha virt. eigenvalues --   -0.06001  -0.03372   0.01394   0.03581   0.05461
 Alpha virt. eigenvalues --    0.06049   0.06122   0.06202   0.07213   0.07749
 Alpha virt. eigenvalues --    0.08323   0.10173   0.11132   0.11271   0.11432

 Mulliken charges:
               1
     1  Mg   0.837392
     2  C    0.048181
     3  C   -0.203639
     4  C   -0.150520
     5  C   -0.130693
     6  N   -0.613621
     7  C    0.264182
     8  C   -0.143941
     9  C   -0.166050
    10  C    0.345583
    11  C   -0.317419
    12  C   -0.181232
    13  C   -0.271854
    14  C    0.602078
    15  O   -0.494807
    16  O   -0.467046
    17  N   -0.677114
    18  C    0.288266
    19  C    0.021072
    20  C    0.030532
    21  C    0.235340
    22  C   -0.366410
    23  C   -0.078887
    24  C   -0.226802
    25  N   -0.698171
    26  C    0.299440
    27  C    0.013591
    28  C    0.031124
    29  C    0.260593
    30  C   -0.359386
    31  C   -0.269731
    32  C   -0.298469
    33  N   -0.704255
    34  C    0.299686
    35  C   -0.025910
    36  C    0.004848
    37  C    0.301116
    38  C   -0.368738
    39  C    0.369694
    40  O   -0.463191
    41  C   -0.333318
    42  C    0.639610
    43  O   -0.457632
    44  O   -0.445863
    45  C   -0.072945
    46  C   -0.016363
    47  C   -0.132420
    48  C    0.120699
    49  C   -0.371334
    50  C   -0.220337
    51  C   -0.155265
    52  C   -0.190629
    53  C   -0.036699
    54  C   -0.306180
    55  C   -0.174225
    56  C   -0.193110
    57  C   -0.168748
    58  C   -0.049321
    59  C   -0.318254
    60  C   -0.162161
    61  C   -0.175738
    62  C   -0.176093
    63  C   -0.048656
    64  C   -0.315869
    65  C   -0.304409
    66  H    0.068499
    67  H    0.091124
    68  H    0.074297
    69  H    0.129762
    70  H    0.110596
    71  H    0.107618
    72  H    0.120165
    73  H    0.125133
    74  H    0.124522
    75  H    0.125814
    76  H    0.143207
    77  H    0.104850
    78  H    0.141858
    79  H    0.123446
    80  H    0.107893
    81  H    0.103452
    82  H    0.082936
    83  H    0.103230
    84  H    0.143131
    85  H    0.087612
    86  H    0.097389
    87  H    0.108396
    88  H    0.106644
    89  H    0.079900
    90  H    0.093898
    91  H    0.123243
    92  H    0.137267
    93  H    0.156449
    94  H    0.133308
    95  H    0.165452
    96  H    0.081875
    97  H    0.123617
    98  H    0.123574
    99  H    0.133765
   100  H    0.135652
   101  H    0.107323
   102  H    0.113065
   103  H    0.114918
   104  H    0.127975
   105  H    0.097482
   106  H    0.085839
   107  H    0.086554
   108  H    0.100477
   109  H    0.084418
   110  H    0.084245
   111  H    0.056771
   112  H    0.132622
   113  H    0.078013
   114  H    0.095793
   115  H    0.075391
   116  H    0.110843
   117  H    0.105926
   118  H    0.086473
   119  H    0.078224
   120  H    0.079423
   121  H    0.089844
   122  H    0.108796
   123  H    0.106076
   124  H    0.105444
   125  H    0.057065
   126  H    0.068113
   127  H    0.077934
   128  H    0.090347
   129  H    0.100236
   130  H    0.092701
   131  H    0.073691
   132  H    0.090424
   133  H    0.091317
   134  H    0.128772
   135  H    0.111366
   136  H    0.106544
   137  H    0.070410
 Sum of Mulliken charges =   0.00000

 Dipole moment (field-independent basis, Debye):
    X=              2.9969    Y=              4.5923    Z=              0.3008  Tot=              5.4919
 Quadrupole moment (field-independent basis, Debye-Ang):
   XX=           -361.4928   YY=           -390.3043   ZZ=           -399.0594
   XY=            -27.9229   XZ=             -6.8251   YZ=             -2.0210

 Normal termination of Gaussian 09 at Fri Jun 28 05:53:17 2019.
