 Gaussian 09, Revision D.01,
 Gaussian 09:  ES64L-G09RevD.01 24-Apr-2013

 -------------------------------------
 # td=(NStates=1) CAM-B3LYP/6-31G(d,p)
 -------------------------------------

 --
 TD
 --
 Symbolic Z-matrix:
 Charge =  0 Multiplicity = 1

                         Standard orientation:
 ---------------------------------------------------------------------
 Center     Atomic      Atomic             Coordinates (Angstroms)
 Number     Number       Type             X           Y           Z
 ---------------------------------------------------------------------
      1         12           0       -7.183635    0.489524    0.131964
      2          6           0       -4.858994   -2.009418    0.517404
      3          6           0       -4.782254    2.831349    1.348714
      4          6           0       -9.394973    3.288938   -0.326037
      5          6           0       -9.561844   -1.772631   -0.808154
      6          7           0       -5.091019    0.515972    0.729482
      7          6           0       -4.364139   -0.698567    0.792259
      8          6           0       -2.921977   -0.509115    1.156755
      9          6           0       -3.023618    1.023340    1.740760
     10          6           0       -4.308062    1.502654    1.275146
     11          6           0       -2.839271    1.020953    3.276674
     12          6           0       -1.905651   -0.614900   -0.047704
     13          6           0       -0.492856   -0.606152    0.442469
     14          6           0        0.562005   -0.853374   -0.653587
     15          8           0        0.239795   -1.222677   -1.735161
     16          8           0        1.808521   -0.379366   -0.391330
     17          7           0       -7.043708    2.617279    0.461146
     18          6           0       -5.999365    3.307549    0.958995
     19          6           0       -6.388850    4.722262    0.930339
     20          6           0       -7.686701    4.818701    0.524363
     21          6           0       -8.169286    3.531933    0.189388
     22          6           0       -5.620387    5.741348    1.412096
     23          6           0       -8.445575    6.051460    0.274503
     24          6           0       -8.045277    7.313287    0.038465
     25          7           0       -9.141839    0.715748   -0.521147
     26          6           0       -9.893274    1.883419   -0.618645
     27          6           0      -11.153343    1.556198   -1.081222
     28          6           0      -11.200146    0.137388   -1.143039
     29          6           0       -9.888027   -0.352727   -0.804665
     30          6           0      -12.369979    2.571417   -1.355411
     31          6           0      -12.346302   -0.626491   -1.822038
     32          6           0      -12.208011   -0.892591   -3.267106
     33          7           0       -7.282887   -1.418304   -0.113291
     34          6           0       -8.339747   -2.300468   -0.433593
     35          6           0       -7.866985   -3.679915   -0.500159
     36          6           0       -6.506245   -3.607437   -0.128730
     37          6           0       -6.190551   -2.244203    0.137910
     38          6           0       -8.750112   -4.786424   -0.883930
     39          6           0       -5.332457   -4.349547    0.161282
     40          8           0       -5.092230   -5.551658    0.237574
     41          6           0       -4.274583   -3.314455    0.519895
     42          6           0       -3.501181   -3.707604    1.841004
     43          8           0       -3.682870   -3.219694    2.930883
     44          8           0       -2.643681   -4.691828    1.723823
     45          6           0       -2.010742   -5.236459    3.022109
     46          6           0        2.858741   -0.521809   -1.307252
     47          6           0        4.113050   -0.431336   -0.620828
     48          6           0        5.060371    0.424635   -1.106967
     49          6           0        4.955416    1.297579   -2.227194
     50          6           0        6.374978    0.427923   -0.383162
     51          6           0        7.574047   -0.175740   -1.130144
     52          6           0        8.877951   -0.215876   -0.209097
     53          6           0       10.144029   -0.613345   -0.951697
     54          6           0       10.058307   -2.009100   -1.545713
     55          6           0       11.442593   -0.198191   -0.064920
     56          6           0       12.785158   -0.628227   -0.626311
     57          6           0       13.916420   -0.010107    0.196198
     58          6           0       15.328521   -0.322131   -0.550893
     59          6           0       15.569316   -1.752277   -0.778860
     60          6           0       16.318894    0.441166    0.374865
     61          6           0       17.730977    0.736406   -0.263505
     62          6           0       18.694536    1.404747    0.703297
     63          6           0       20.144020    1.435109    0.321859
     64          6           0       20.279675    2.433321   -0.800149
     65          6           0       21.135419    1.719668    1.519212
     66          1           0       -4.105484    3.518734    1.606109
     67          1           0      -10.141252    4.092278   -0.367521
     68          1           0      -10.336160   -2.432439   -1.150997
     69          1           0       -2.861770   -1.188818    2.056962
     70          1           0       -2.319393    1.785057    1.329226
     71          1           0       -1.841393    0.590614    3.578218
     72          1           0       -2.941260    2.064666    3.788691
     73          1           0       -3.680495    0.319114    3.672146
     74          1           0       -1.923864   -1.636695   -0.652031
     75          1           0       -1.835205    0.268795   -0.632965
     76          1           0       -0.365881    0.406647    1.100421
     77          1           0       -0.321201   -1.468463    1.217926
     78          1           0       -5.008116    6.412427    0.464926
     79          1           0       -6.241677    6.464854    1.914393
     80          1           0       -4.727312    5.311320    2.168726
     81          1           0       -9.519826    5.950539    0.476124
     82          1           0       -8.733076    8.194206    0.166128
     83          1           0       -6.970553    7.529737   -0.124027
     84          1           0      -12.009007    3.150250   -2.295660
     85          1           0      -13.312707    2.090512   -1.537641
     86          1           0      -12.340512    3.357030   -0.520599
     87          1           0      -12.620679   -1.539776   -1.313894
     88          1           0      -13.269555    0.011321   -1.590607
     89          1           0      -12.631334   -1.584145   -3.636531
     90          1           0      -12.115974    0.165392   -3.816324
     91          1           0      -11.110177   -1.234492   -3.339622
     92          1           0       -8.821712   -4.755734   -2.063836
     93          1           0       -8.180076   -5.859571   -0.848484
     94          1           0       -9.963020   -4.909656   -0.470981
     95          1           0       -3.349547   -3.283454   -0.358834
     96          1           0       -1.178025   -4.401925    3.273910
     97          1           0       -2.777882   -5.526696    3.667650
     98          1           0       -1.570902   -6.359490    2.513550
     99          1           0        2.744906   -1.741448   -1.594767
    100          1           0        2.725819    0.060398   -2.219337
    101          1           0        4.254676   -0.999155    0.368769
    102          1           0        4.070533    1.320402   -3.014761
    103          1           0        5.051683    2.378251   -1.871069
    104          1           0        5.828353    1.046072   -2.921091
    105          1           0        6.689957    1.425714   -0.214073
    106          1           0        6.330599   -0.000516    0.567889
    107          1           0        7.289815   -1.321510   -1.467611
    108          1           0        7.874661    0.286900   -2.070822
    109          1           0        8.875562    0.797463    0.247942
    110          1           0        8.823820   -1.124150    0.407517
    111          1           0       10.286279    0.022697   -1.897519
    112          1           0        9.179809   -2.256072   -2.260368
    113          1           0       10.827158   -2.420385   -2.009074
    114          1           0        9.965091   -2.803314   -0.887596
    115          1           0       11.458481    0.878584    0.326925
    116          1           0       11.432753   -0.713076    1.038305
    117          1           0       12.805088   -1.719062   -0.609929
    118          1           0       12.911910   -0.168022   -1.475150
    119          1           0       13.955708    1.085810    0.375372
    120          1           0       13.855773   -0.518694    1.179279
    121          1           0       15.253999    0.061982   -1.558640
    122          1           0       15.706857   -2.451471    0.063391
    123          1           0       15.028844   -2.369546   -1.557216
    124          1           0       16.596699   -1.558752   -1.195214
    125          1           0       15.814330    1.275804    0.569018
    126          1           0       16.508669   -0.112725    1.307161
    127          1           0       18.282382   -0.221625   -0.820808
    128          1           0       17.513577    1.541492   -1.071541
    129          1           0       18.360137    2.334500    1.097205
    130          1           0       18.771947    0.935912    1.749027
    131          1           0       20.421384    0.271623   -0.038228
    132          1           0       20.018421    3.431907   -0.450746
    133          1           0       21.330638    2.513227   -1.252308
    134          1           0       19.549513    2.061555   -1.564770
    135          1           0       21.127656    0.836258    2.425929
    136          1           0       22.184027    1.911232    1.103895
    137          1           0       20.799033    2.659438    1.905772
 ---------------------------------------------------------------------

 SCF Done:  E(RCAM-B3LYP) =  -2932.60819544     A.U. after   17 cycles

 Excitation energies and oscillator strengths:

 Excited State   1:      Singlet-A      2.1290 eV  582.35 nm  f=0.1771  <S**2>=0.000
     240 -> 243       -0.29863
     241 -> 242        0.63252
 This state for optimization and/or second-order correction.
 Total Energy, E(TD-HF/TD-KS) =  -2932.52995544
 Copying the excited state density for this state as the 1-particle RhoCI density.

 The electronic state is 1-A.
 Alpha  occ. eigenvalues --  -46.83963 -19.25515 -19.25461 -19.21139 -19.19707
 Alpha  occ. eigenvalues --  -19.19665 -14.42009 -14.39791 -14.38964 -14.38435
 Alpha  occ. eigenvalues --  -10.39392 -10.38692 -10.34861 -10.34584 -10.32037
 Alpha  occ. eigenvalues --  -10.31783 -10.31559 -10.30081 -10.30042 -10.29752
 Alpha  occ. eigenvalues --  -10.29734 -10.29591 -10.29399 -10.29223 -10.29025
 Alpha  occ. eigenvalues --  -10.28902 -10.28734 -10.28692 -10.28602 -10.28190
 Alpha  occ. eigenvalues --  -10.28091 -10.27953 -10.27940 -10.27787 -10.27513
 Alpha  occ. eigenvalues --  -10.27495 -10.27261 -10.27251 -10.27205 -10.27076
 Alpha  occ. eigenvalues --  -10.27041 -10.26772 -10.26683 -10.26673 -10.26630
 Alpha  occ. eigenvalues --  -10.26456 -10.26193 -10.26016 -10.25941 -10.25914
 Alpha  occ. eigenvalues --  -10.25746 -10.25701 -10.25609 -10.25297 -10.25118
 Alpha  occ. eigenvalues --  -10.25015 -10.24837 -10.24783 -10.24719 -10.24710
 Alpha  occ. eigenvalues --  -10.24543 -10.24415 -10.23746 -10.23603 -10.23405
 Alpha  occ. eigenvalues --   -3.12952  -1.87661  -1.87197  -1.87122  -1.18745
 Alpha  occ. eigenvalues --   -1.17859  -1.10489  -1.10070  -1.07449  -1.03680
 Alpha  occ. eigenvalues --   -1.02805  -1.02277  -1.01441  -0.94011  -0.91994
 Alpha  occ. eigenvalues --   -0.90673  -0.89986  -0.89493  -0.89388  -0.88798
 Alpha  occ. eigenvalues --   -0.88480  -0.87676  -0.87297  -0.86829  -0.85980
 Alpha  occ. eigenvalues --   -0.85294  -0.84417  -0.83626  -0.83103  -0.82443
 Alpha  occ. eigenvalues --   -0.81441  -0.81036  -0.80777  -0.80284  -0.77880
 Alpha  occ. eigenvalues --   -0.77637  -0.76954  -0.76244  -0.76054  -0.75346
 Alpha  occ. eigenvalues --   -0.74982  -0.74576  -0.74080  -0.73184  -0.72618
 Alpha  occ. eigenvalues --   -0.71737  -0.69985  -0.69308  -0.68399  -0.68024
 Alpha  occ. eigenvalues --   -0.66727  -0.66281  -0.65498  -0.64922  -0.64269
 Alpha  occ. eigenvalues --   -0.63854  -0.63668  -0.62823  -0.62480  -0.61393
 Alpha  occ. eigenvalues --   -0.61087  -0.60359  -0.59825  -0.59609  -0.58990
 Alpha  occ. eigenvalues --   -0.58564  -0.58033  -0.57129  -0.56815  -0.56547
 Alpha  occ. eigenvalues --   -0.55808  -0.55526  -0.55233  -0.55002  -0.54722
 Alpha  occ. eigenvalues --   -0.54617  -0.54267  -0.53802  -0.53384  -0.53154
 Alpha  occ. eigenvalues --   -0.53057  -0.52432  -0.52262  -0.51641  -0.51515
 Alpha  occ. eigenvalues --   -0.51239  -0.51081  -0.51024  -0.50934  -0.50572
 Alpha  occ. eigenvalues --   -0.50322  -0.50075  -0.49903  -0.49697  -0.49559
 Alpha  occ. eigenvalues --   -0.48907  -0.48749  -0.48564  -0.48484  -0.48386
 Alpha  occ. eigenvalues --   -0.47927  -0.47697  -0.47604  -0.47411  -0.47021
 Alpha  occ. eigenvalues --   -0.46748  -0.46440  -0.46361  -0.46200  -0.45889
 Alpha  occ. eigenvalues --   -0.45563  -0.45265  -0.45058  -0.45052  -0.44738
 Alpha  occ. eigenvalues --   -0.44579  -0.44541  -0.43895  -0.43829  -0.43730
 Alpha  occ. eigenvalues --   -0.43678  -0.43609  -0.43461  -0.43287  -0.43169
 Alpha  occ. eigenvalues --   -0.43021  -0.42793  -0.42701  -0.42373  -0.41965
 Alpha  occ. eigenvalues --   -0.41906  -0.41834  -0.41675  -0.41590  -0.41400
 Alpha  occ. eigenvalues --   -0.40649  -0.40506  -0.40383  -0.40278  -0.39884
 Alpha  occ. eigenvalues --   -0.39805  -0.39684  -0.39374  -0.39235  -0.39041
 Alpha  occ. eigenvalues --   -0.39006  -0.38777  -0.38388  -0.37932  -0.37919
 Alpha  occ. eigenvalues --   -0.37668  -0.37415  -0.37238  -0.37043  -0.36612
 Alpha  occ. eigenvalues --   -0.36315  -0.36073  -0.35874  -0.35643  -0.35348
 Alpha  occ. eigenvalues --   -0.34867  -0.34806  -0.34775  -0.33818  -0.33108
 Alpha  occ. eigenvalues --   -0.32424  -0.31990  -0.31734  -0.30291  -0.30181
 Alpha  occ. eigenvalues --   -0.29471  -0.28533  -0.27209  -0.26669  -0.23289
 Alpha  occ. eigenvalues --   -0.21639
 Alpha virt. eigenvalues --   -0.06289  -0.04025   0.00792   0.03790   0.05513
 Alpha virt. eigenvalues --    0.05821   0.06193   0.06833   0.06976   0.07221
 Alpha virt. eigenvalues --    0.07784   0.09896   0.10686   0.11008   0.11758

 Mulliken charges:
               1
     1  Mg   0.826895
     2  C    0.152398
     3  C   -0.198696
     4  C   -0.179203
     5  C   -0.147875
     6  N   -0.630854
     7  C    0.288847
     8  C   -0.174914
     9  C   -0.184017
    10  C    0.378086
    11  C   -0.301202
    12  C   -0.153120
    13  C   -0.264573
    14  C    0.592800
    15  O   -0.439549
    16  O   -0.471711
    17  N   -0.733324
    18  C    0.394192
    19  C    0.063125
    20  C    0.024229
    21  C    0.327482
    22  C   -0.405833
    23  C   -0.067532
    24  C   -0.257440
    25  N   -0.716352
    26  C    0.266822
    27  C    0.001858
    28  C   -0.041248
    29  C    0.325649
    30  C   -0.354526
    31  C   -0.241577
    32  C   -0.257310
    33  N   -0.769961
    34  C    0.271099
    35  C    0.094062
    36  C    0.025487
    37  C    0.267546
    38  C   -0.406416
    39  C    0.359752
    40  O   -0.475669
    41  C   -0.361665
    42  C    0.604170
    43  O   -0.489275
    44  O   -0.452937
    45  C   -0.069667
    46  C    0.029914
    47  C   -0.115977
    48  C    0.140585
    49  C   -0.378966
    50  C   -0.225474
    51  C   -0.182455
    52  C   -0.163377
    53  C   -0.053856
    54  C   -0.335483
    55  C   -0.186730
    56  C   -0.155949
    57  C   -0.203695
    58  C   -0.072348
    59  C   -0.307901
    60  C   -0.162372
    61  C   -0.181321
    62  C   -0.161837
    63  C   -0.045961
    64  C   -0.297094
    65  C   -0.300107
    66  H    0.058999
    67  H    0.102409
    68  H    0.102226
    69  H    0.150579
    70  H    0.107586
    71  H    0.115428
    72  H    0.103917
    73  H    0.121971
    74  H    0.125280
    75  H    0.129183
    76  H    0.110624
    77  H    0.113333
    78  H    0.074981
    79  H    0.137182
    80  H    0.086703
    81  H    0.087633
    82  H    0.107803
    83  H    0.101803
    84  H    0.112998
    85  H    0.123814
    86  H    0.109997
    87  H    0.093158
    88  H    0.082985
    89  H    0.101649
    90  H    0.094932
    91  H    0.087337
    92  H    0.129133
    93  H    0.136385
    94  H    0.116118
    95  H    0.134281
    96  H    0.137621
    97  H    0.168465
    98  H    0.110725
    99  H    0.076685
   100  H    0.118546
   101  H    0.097487
   102  H    0.108589
   103  H    0.120642
   104  H    0.119784
   105  H    0.096368
   106  H    0.110910
   107  H    0.066904
   108  H    0.097844
   109  H    0.092823
   110  H    0.104404
   111  H    0.073110
   112  H    0.097138
   113  H    0.113584
   114  H    0.102886
   115  H    0.087504
   116  H    0.050341
   117  H    0.106281
   118  H    0.102533
   119  H    0.084459
   120  H    0.087417
   121  H    0.091694
   122  H    0.099167
   123  H    0.101320
   124  H    0.092154
   125  H    0.102562
   126  H    0.100085
   127  H    0.079740
   128  H    0.087515
   129  H    0.094508
   130  H    0.072255
   131  H    0.052183
   132  H    0.101064
   133  H    0.087849
   134  H    0.105034
   135  H    0.077537
   136  H    0.099094
   137  H    0.105110
 Sum of Mulliken charges =   0.00000

 Dipole moment (field-independent basis, Debye):
    X=              3.1043    Y=              3.5786    Z=              0.8116  Tot=              4.8064
 Quadrupole moment (field-independent basis, Debye-Ang):
   XX=           -365.4592   YY=           -387.9106   ZZ=           -398.8312
   XY=             -6.1249   XZ=              5.8342   YZ=             -0.3425

 Normal termination of Gaussian 09 at Thu Jun 27 23:07:02 2019.
