 Gaussian 09, Revision D.01,
 Gaussian 09:  ES64L-G09RevD.01 24-Apr-2013

 -------------------------------------
 # td=(NStates=1) CAM-B3LYP/6-31G(d,p)
 -------------------------------------

 --
 TD
 --
 Symbolic Z-matrix:
 Charge =  0 Multiplicity = 1

                         Standard orientation:
 ---------------------------------------------------------------------
 Center     Atomic      Atomic             Coordinates (Angstroms)
 Number     Number       Type             X           Y           Z
 ---------------------------------------------------------------------
      1         12           0       -7.075583    0.579290    0.118936
      2          6           0       -4.810613   -1.977489    0.443338
      3          6           0       -4.820877    2.870644    1.170344
      4          6           0       -9.371386    3.072991   -0.353964
      5          6           0       -9.628947   -1.716424   -0.768624
      6          7           0       -5.130548    0.434345    0.813235
      7          6           0       -4.334233   -0.741390    0.893002
      8          6           0       -2.871802   -0.341627    1.172566
      9          6           0       -3.051104    1.097824    1.666808
     10          6           0       -4.414983    1.534089    1.221630
     11          6           0       -2.880110    1.309234    3.238829
     12          6           0       -1.946626   -0.593619   -0.001743
     13          6           0       -0.528754   -0.461513    0.528506
     14          6           0        0.424779   -0.657927   -0.603777
     15          8           0        0.322972   -1.109607   -1.665640
     16          8           0        1.662392   -0.482538   -0.132657
     17          7           0       -7.010114    2.611164    0.376760
     18          6           0       -6.030062    3.358009    0.861001
     19          6           0       -6.409100    4.793615    0.849008
     20          6           0       -7.650815    4.875595    0.375130
     21          6           0       -8.059908    3.548671    0.089694
     22          6           0       -5.493913    5.876931    1.363918
     23          6           0       -8.512053    6.078730    0.197393
     24          6           0       -8.076941    7.229274   -0.068417
     25          7           0       -9.049986    0.651225   -0.508503
     26          6           0       -9.841925    1.822123   -0.704713
     27          6           0      -11.222857    1.450405   -1.097744
     28          6           0      -11.245004    0.138097   -1.266342
     29          6           0       -9.977423   -0.396707   -0.764690
     30          6           0      -12.328226    2.436191   -1.302727
     31          6           0      -12.380943   -0.735052   -1.718273
     32          6           0      -12.309614   -0.978465   -3.252445
     33          7           0       -7.227985   -1.347710   -0.058598
     34          6           0       -8.267057   -2.239171   -0.544523
     35          6           0       -7.809207   -3.614128   -0.633452
     36          6           0       -6.467426   -3.565975   -0.247951
     37          6           0       -6.101277   -2.222528   -0.012154
     38          6           0       -8.588212   -4.858159   -1.041243
     39          6           0       -5.381257   -4.379233    0.207530
     40          8           0       -5.344081   -5.605188    0.302558
     41          6           0       -4.206994   -3.336474    0.537161
     42          6           0       -3.562057   -3.642550    1.840611
     43          8           0       -3.832312   -2.982465    2.892805
     44          8           0       -2.730190   -4.625036    1.767224
     45          6           0       -2.213091   -5.133334    3.003838
     46          6           0        2.813757   -0.696715   -1.125714
     47          6           0        4.028505   -0.435538   -0.414249
     48          6           0        5.088260    0.262845   -0.959875
     49          6           0        4.974834    1.050035   -2.297881
     50          6           0        6.407377    0.396616   -0.261118
     51          6           0        7.658799   -0.266683   -1.014532
     52          6           0        8.952354    0.011966   -0.161288
     53          6           0       10.151189   -0.664018   -0.883048
     54          6           0       10.079570   -2.222806   -1.139669
     55          6           0       11.459162   -0.276543   -0.104859
     56          6           0       12.774769   -0.492863   -0.834388
     57          6           0       13.879159   -0.026524    0.051407
     58          6           0       15.425296   -0.160376   -0.601874
     59          6           0       15.753019   -1.677561   -0.826066
     60          6           0       16.388243    0.381739    0.340419
     61          6           0       17.760969    0.650445   -0.232034
     62          6           0       18.855108    1.103017    0.767273
     63          6           0       20.256173    1.449823    0.240455
     64          6           0       20.350209    2.305759   -0.918252
     65          6           0       21.193927    1.852380    1.324946
     66          1           0       -4.084918    3.566626    1.602934
     67          1           0      -10.142010    3.859304   -0.442020
     68          1           0      -10.429959   -2.442822   -0.921173
     69          1           0       -2.339813   -1.024124    1.992786
     70          1           0       -2.350633    1.697403    1.246554
     71          1           0       -1.899056    0.656083    3.867829
     72          1           0       -2.950797    2.379435    3.459963
     73          1           0       -3.635304    0.674180    3.664487
     74          1           0       -2.190525   -1.565817   -0.466512
     75          1           0       -2.073500    0.138362   -0.813540
     76          1           0       -0.345982    0.505999    1.162446
     77          1           0       -0.473037   -1.113667    1.376817
     78          1           0       -4.782562    6.665727    0.888339
     79          1           0       -6.091643    6.370891    2.257342
     80          1           0       -4.803768    5.410088    1.969486
     81          1           0       -9.713314    5.930932    0.525530
     82          1           0       -8.908721    7.981348   -0.023195
     83          1           0       -7.088700    7.312422   -0.270012
     84          1           0      -12.198020    3.282482   -2.095093
     85          1           0      -13.212405    1.990274   -1.642408
     86          1           0      -12.394738    2.896638   -0.283794
     87          1           0      -12.406861   -1.691460   -0.915359
     88          1           0      -13.189031   -0.287043   -1.537230
     89          1           0      -13.299230   -1.540011   -3.491845
     90          1           0      -12.551806   -0.031179   -3.748227
     91          1           0      -11.488930   -1.362037   -3.720245
     92          1           0       -9.104218   -4.955332   -2.029744
     93          1           0       -7.944061   -5.685118   -0.722470
     94          1           0       -9.348886   -5.025459   -0.375082
     95          1           0       -3.433495   -3.524501   -0.225510
     96          1           0       -1.884869   -4.424527    3.645616
     97          1           0       -3.145288   -5.782516    3.431988
     98          1           0       -1.076905   -5.713200    2.906760
     99          1           0        2.715794   -1.840962   -1.356381
    100          1           0        2.476709   -0.244189   -2.104493
    101          1           0        4.224534   -1.117332    0.371221
    102          1           0        3.781822    1.118872   -2.598764
    103          1           0        5.254457    1.973289   -2.031936
    104          1           0        5.709040    0.768519   -3.104932
    105          1           0        6.590987    1.448364   -0.281797
    106          1           0        6.305188   -0.008383    0.873297
    107          1           0        7.116547   -1.376728   -1.025709
    108          1           0        7.955024    0.338805   -1.947956
    109          1           0        9.040850    1.024833    0.005903
    110          1           0        8.746072   -0.656106    0.673424
    111          1           0       10.365261   -0.192101   -1.995490
    112          1           0        9.295315   -2.348596   -1.813278
    113          1           0       10.844018   -2.457108   -1.556348
    114          1           0       10.051257   -2.915299   -0.167295
    115          1           0       11.499565    0.806592    0.507788
    116          1           0       11.315113   -0.999305    0.654601
    117          1           0       13.103738   -1.675295   -1.306556
    118          1           0       12.740210    0.101347   -1.711548
    119          1           0       13.585172    0.823674    0.415509
    120          1           0       13.838561   -0.634354    1.055060
    121          1           0       15.459341    0.333073   -1.569313
    122          1           0       15.376525   -2.345816   -0.053029
    123          1           0       15.167789   -2.293542   -1.684978
    124          1           0       16.755314   -1.785959   -1.142544
    125          1           0       15.991442    1.310708    0.867243
    126          1           0       16.550646   -0.261037    1.235402
    127          1           0       18.173599   -0.329706   -0.567672
    128          1           0       17.761357    1.371390   -1.203339
    129          1           0       18.411326    2.145007    1.130208
    130          1           0       18.761378    0.645266    1.649001
    131          1           0       20.742871    0.300432    0.016341
    132          1           0       20.051420    3.359353   -0.769068
    133          1           0       21.291187    2.447259   -1.332617
    134          1           0       19.670875    1.956046   -1.568627
    135          1           0       21.114264    1.427440    2.340784
    136          1           0       22.196770    1.994175    0.843592
    137          1           0       20.874863    3.008087    1.514007
 ---------------------------------------------------------------------

 SCF Done:  E(RCAM-B3LYP) =  -2932.54831659     A.U. after   18 cycles

 Excitation energies and oscillator strengths:

 Excited State   1:      Singlet-A      1.9306 eV  642.19 nm  f=0.2904  <S**2>=0.000
     240 -> 243        0.22914
     241 -> 242        0.66827
 This state for optimization and/or second-order correction.
 Total Energy, E(TD-HF/TD-KS) =  -2932.47736713
 Copying the excited state density for this state as the 1-particle RhoCI density.

 The electronic state is 1-A.
 Alpha  occ. eigenvalues --  -46.82839 -19.27769 -19.23176 -19.20051 -19.19790
 Alpha  occ. eigenvalues --  -19.19113 -14.41901 -14.39470 -14.39451 -14.39022
 Alpha  occ. eigenvalues --  -10.38807 -10.37456 -10.34666 -10.33519 -10.31818
 Alpha  occ. eigenvalues --  -10.31080 -10.30750 -10.30429 -10.29680 -10.29404
 Alpha  occ. eigenvalues --  -10.29267 -10.28503 -10.28271 -10.28172 -10.28161
 Alpha  occ. eigenvalues --  -10.27934 -10.27920 -10.27828 -10.27803 -10.27704
 Alpha  occ. eigenvalues --  -10.27684 -10.27601 -10.27433 -10.27333 -10.27234
 Alpha  occ. eigenvalues --  -10.27140 -10.27079 -10.26986 -10.26865 -10.26795
 Alpha  occ. eigenvalues --  -10.26779 -10.26763 -10.26750 -10.26615 -10.26606
 Alpha  occ. eigenvalues --  -10.26458 -10.26224 -10.26192 -10.26139 -10.25970
 Alpha  occ. eigenvalues --  -10.25943 -10.25782 -10.25611 -10.25564 -10.25561
 Alpha  occ. eigenvalues --  -10.25420 -10.25173 -10.25071 -10.24933 -10.24854
 Alpha  occ. eigenvalues --  -10.24815 -10.24690 -10.24368 -10.23601 -10.22851
 Alpha  occ. eigenvalues --   -3.12108  -1.86792  -1.86355  -1.86308  -1.19974
 Alpha  occ. eigenvalues --   -1.18538  -1.09667  -1.07813  -1.06131  -1.04015
 Alpha  occ. eigenvalues --   -1.02335  -1.01057  -0.99934  -0.92223  -0.91009
 Alpha  occ. eigenvalues --   -0.90821  -0.90645  -0.90205  -0.89753  -0.89324
 Alpha  occ. eigenvalues --   -0.88709  -0.88062  -0.87111  -0.85982  -0.85866
 Alpha  occ. eigenvalues --   -0.85271  -0.84962  -0.83768  -0.83587  -0.83044
 Alpha  occ. eigenvalues --   -0.81693  -0.81218  -0.80871  -0.80371  -0.78580
 Alpha  occ. eigenvalues --   -0.77757  -0.77531  -0.77065  -0.76828  -0.76060
 Alpha  occ. eigenvalues --   -0.75137  -0.74968  -0.74636  -0.72727  -0.72251
 Alpha  occ. eigenvalues --   -0.71783  -0.70689  -0.69673  -0.68576  -0.67736
 Alpha  occ. eigenvalues --   -0.66477  -0.66136  -0.65204  -0.64620  -0.64389
 Alpha  occ. eigenvalues --   -0.64214  -0.63639  -0.62233  -0.62059  -0.61757
 Alpha  occ. eigenvalues --   -0.61514  -0.60863  -0.60690  -0.59555  -0.58992
 Alpha  occ. eigenvalues --   -0.58461  -0.58069  -0.57463  -0.56745  -0.56557
 Alpha  occ. eigenvalues --   -0.56066  -0.55697  -0.55486  -0.54926  -0.54681
 Alpha  occ. eigenvalues --   -0.54230  -0.54018  -0.53446  -0.53370  -0.53189
 Alpha  occ. eigenvalues --   -0.53068  -0.52992  -0.52603  -0.52300  -0.51769
 Alpha  occ. eigenvalues --   -0.51438  -0.51346  -0.50655  -0.50583  -0.50371
 Alpha  occ. eigenvalues --   -0.50117  -0.49956  -0.49777  -0.49410  -0.48878
 Alpha  occ. eigenvalues --   -0.48850  -0.48715  -0.48607  -0.48560  -0.48375
 Alpha  occ. eigenvalues --   -0.48066  -0.47753  -0.47549  -0.47429  -0.46835
 Alpha  occ. eigenvalues --   -0.46375  -0.46274  -0.46127  -0.45965  -0.45906
 Alpha  occ. eigenvalues --   -0.45422  -0.45386  -0.45118  -0.45067  -0.44700
 Alpha  occ. eigenvalues --   -0.44627  -0.44363  -0.44348  -0.44120  -0.43858
 Alpha  occ. eigenvalues --   -0.43676  -0.43609  -0.43496  -0.43364  -0.43233
 Alpha  occ. eigenvalues --   -0.43107  -0.42870  -0.42697  -0.42589  -0.42311
 Alpha  occ. eigenvalues --   -0.41928  -0.41731  -0.41432  -0.41339  -0.41187
 Alpha  occ. eigenvalues --   -0.40603  -0.40489  -0.40431  -0.40276  -0.40087
 Alpha  occ. eigenvalues --   -0.39774  -0.39530  -0.39265  -0.39081  -0.38910
 Alpha  occ. eigenvalues --   -0.38668  -0.38403  -0.38376  -0.38285  -0.38041
 Alpha  occ. eigenvalues --   -0.37790  -0.37634  -0.37586  -0.37358  -0.36808
 Alpha  occ. eigenvalues --   -0.36385  -0.36248  -0.35769  -0.35598  -0.35216
 Alpha  occ. eigenvalues --   -0.34908  -0.34764  -0.34004  -0.33464  -0.32992
 Alpha  occ. eigenvalues --   -0.32746  -0.32334  -0.31638  -0.31063  -0.29719
 Alpha  occ. eigenvalues --   -0.29379  -0.28894  -0.28664  -0.28204  -0.22926
 Alpha  occ. eigenvalues --   -0.20791
 Alpha virt. eigenvalues --   -0.06867  -0.02219   0.01502   0.04998   0.05151
 Alpha virt. eigenvalues --    0.06202   0.06381   0.06877   0.07253   0.07864
 Alpha virt. eigenvalues --    0.08238   0.10649   0.10899   0.11020   0.11431

 Mulliken charges:
               1
     1  Mg   0.804676
     2  C    0.079547
     3  C   -0.214117
     4  C   -0.199663
     5  C   -0.185205
     6  N   -0.652440
     7  C    0.303767
     8  C   -0.154792
     9  C   -0.147663
    10  C    0.358783
    11  C   -0.296903
    12  C   -0.165251
    13  C   -0.283554
    14  C    0.606688
    15  O   -0.450692
    16  O   -0.509468
    17  N   -0.698318
    18  C    0.380463
    19  C   -0.002845
    20  C    0.045769
    21  C    0.245733
    22  C   -0.393852
    23  C   -0.047718
    24  C   -0.217204
    25  N   -0.663665
    26  C    0.293158
    27  C    0.032633
    28  C    0.031841
    29  C    0.288944
    30  C   -0.367903
    31  C   -0.201702
    32  C   -0.320616
    33  N   -0.693851
    34  C    0.227141
    35  C    0.026548
    36  C    0.028631
    37  C    0.230361
    38  C   -0.388373
    39  C    0.361593
    40  O   -0.477150
    41  C   -0.336261
    42  C    0.621281
    43  O   -0.523659
    44  O   -0.409096
    45  C   -0.080106
    46  C   -0.002448
    47  C   -0.110447
    48  C    0.105062
    49  C   -0.353141
    50  C   -0.236254
    51  C   -0.186315
    52  C   -0.154684
    53  C   -0.088562
    54  C   -0.289729
    55  C   -0.174922
    56  C   -0.154636
    57  C   -0.172537
    58  C   -0.052805
    59  C   -0.318072
    60  C   -0.161646
    61  C   -0.179210
    62  C   -0.164235
    63  C   -0.021488
    64  C   -0.306968
    65  C   -0.293160
    66  H    0.077516
    67  H    0.079285
    68  H    0.095430
    69  H    0.103484
    70  H    0.109021
    71  H    0.062607
    72  H    0.112122
    73  H    0.145078
    74  H    0.124780
    75  H    0.112730
    76  H    0.131300
    77  H    0.144404
    78  H    0.125190
    79  H    0.114089
    80  H    0.123281
    81  H    0.076985
    82  H    0.102655
    83  H    0.105444
    84  H    0.112301
    85  H    0.117994
    86  H    0.124811
    87  H    0.080085
    88  H    0.109167
    89  H    0.092195
    90  H    0.112560
    91  H    0.134194
    92  H    0.125185
    93  H    0.147519
    94  H    0.132399
    95  H    0.160228
    96  H    0.153806
    97  H    0.135287
    98  H    0.095360
    99  H    0.115769
   100  H    0.135698
   101  H    0.097743
   102  H    0.093714
   103  H    0.129458
   104  H    0.124372
   105  H    0.101607
   106  H    0.087081
   107  H    0.096862
   108  H    0.094380
   109  H    0.109185
   110  H    0.104368
   111  H    0.044594
   112  H    0.116021
   113  H    0.121123
   114  H    0.078002
   115  H    0.063134
   116  H    0.104736
   117  H    0.053119
   118  H    0.101348
   119  H    0.096084
   120  H    0.068985
   121  H    0.093839
   122  H    0.113823
   123  H    0.067130
   124  H    0.113879
   125  H    0.083115
   126  H    0.093222
   127  H    0.093090
   128  H    0.072331
   129  H    0.054079
   130  H    0.101227
   131  H    0.037630
   132  H    0.096511
   133  H    0.112404
   134  H    0.113409
   135  H    0.107764
   136  H    0.101963
   137  H    0.059410
 Sum of Mulliken charges =   0.00000

 Dipole moment (field-independent basis, Debye):
    X=              1.5545    Y=              5.3788    Z=              0.0566  Tot=              5.5992
 Quadrupole moment (field-independent basis, Debye-Ang):
   XX=           -328.0155   YY=           -392.7166   ZZ=           -396.6210
   XY=            -27.1019   XZ=             12.0750   YZ=             -2.9520

 Normal termination of Gaussian 09 at Fri Jun 28 05:44:22 2019.
