 Gaussian 09, Revision D.01,
 Gaussian 09:  ES64L-G09RevD.01 24-Apr-2013

 -------------------------------------
 # td=(NStates=1) CAM-B3LYP/6-31G(d,p)
 -------------------------------------

 --
 TD
 --
 Symbolic Z-matrix:
 Charge =  0 Multiplicity = 1

                         Standard orientation:
 ---------------------------------------------------------------------
 Center     Atomic      Atomic             Coordinates (Angstroms)
 Number     Number       Type             X           Y           Z
 ---------------------------------------------------------------------
      1         12           0       -7.127436    0.631781    0.058395
      2          6           0       -4.844352   -1.977394    0.541743
      3          6           0       -4.873165    2.826470    1.302440
      4          6           0       -9.473256    3.157817   -0.346107
      5          6           0       -9.437218   -1.763534   -0.962570
      6          7           0       -5.177507    0.494830    0.854186
      7          6           0       -4.362959   -0.739348    0.828777
      8          6           0       -2.994675   -0.353413    1.201062
      9          6           0       -3.025862    1.184330    1.668003
     10          6           0       -4.412767    1.517098    1.314688
     11          6           0       -2.925455    1.173611    3.207636
     12          6           0       -1.958079   -0.567555    0.052634
     13          6           0       -0.503405   -0.464575    0.549114
     14          6           0        0.534769   -0.689728   -0.548784
     15          8           0        0.309566   -1.120966   -1.645895
     16          8           0        1.736165   -0.277748   -0.190090
     17          7           0       -7.091344    2.589868    0.284623
     18          6           0       -6.104809    3.327678    0.857317
     19          6           0       -6.453073    4.750513    0.952089
     20          6           0       -7.800072    4.892287    0.401589
     21          6           0       -8.165704    3.426354    0.076706
     22          6           0       -5.505798    5.850986    1.424739
     23          6           0       -8.656698    6.023943    0.293072
     24          6           0       -8.160628    7.246291    0.215251
     25          7           0       -9.121520    0.588088   -0.586529
     26          6           0       -9.946282    1.831765   -0.665030
     27          6           0      -11.214934    1.543602   -1.170859
     28          6           0      -11.240007    0.069436   -1.304831
     29          6           0       -9.876056   -0.352034   -1.014291
     30          6           0      -12.387709    2.428211   -1.369681
     31          6           0      -12.391140   -0.842370   -1.845682
     32          6           0      -12.187022   -0.973020   -3.438231
     33          7           0       -7.242635   -1.426703   -0.160178
     34          6           0       -8.290764   -2.281024   -0.525410
     35          6           0       -7.767377   -3.645929   -0.499855
     36          6           0       -6.496001   -3.600830    0.032787
     37          6           0       -6.231589   -2.221235    0.171515
     38          6           0       -8.765352   -4.746047   -0.940410
     39          6           0       -5.380846   -4.401414    0.211711
     40          8           0       -5.151375   -5.571852    0.046175
     41          6           0       -4.116752   -3.318887    0.619942
     42          6           0       -3.616170   -3.764386    1.992757
     43          8           0       -3.875787   -3.064938    2.982643
     44          8           0       -2.694692   -4.777518    1.893309
     45          6           0       -2.135800   -5.126242    3.077174
     46          6           0        2.786032   -0.702053   -1.207312
     47          6           0        4.168764   -0.436573   -0.619600
     48          6           0        5.201189    0.287039   -0.998768
     49          6           0        5.138359    1.246134   -2.141160
     50          6           0        6.458865    0.212146   -0.183558
     51          6           0        7.608621   -0.225773   -0.967789
     52          6           0        8.995697   -0.180527   -0.230068
     53          6           0       10.176179   -0.579827   -0.932697
     54          6           0       10.217666   -1.997235   -1.503751
     55          6           0       11.435740   -0.356493   -0.011651
     56          6           0       12.796329   -0.546212   -0.632550
     57          6           0       13.928977   -0.016483    0.297964
     58          6           0       15.314118   -0.135511   -0.396451
     59          6           0       15.673220   -1.537998   -0.863411
     60          6           0       16.406279    0.653114    0.367514
     61          6           0       17.753354    0.562816   -0.208630
     62          6           0       18.792935    1.350533    0.690012
     63          6           0       20.282790    1.207973    0.197604
     64          6           0       20.470218    1.981347   -1.187616
     65          6           0       21.171091    1.842355    1.292939
     66          1           0       -4.199441    3.458545    1.792077
     67          1           0      -10.178357    3.821307   -0.659341
     68          1           0      -10.261352   -2.472708   -1.102898
     69          1           0       -2.608941   -1.034644    2.113647
     70          1           0       -2.218112    1.745145    1.200861
     71          1           0       -1.875960    0.869226    3.656061
     72          1           0       -3.265239    2.255846    3.365405
     73          1           0       -3.668411    0.458911    3.801447
     74          1           0       -2.344567   -1.346656   -0.597880
     75          1           0       -2.124612    0.295801   -0.867523
     76          1           0       -0.009860    0.358293    1.064848
     77          1           0       -0.505858   -1.392826    1.240127
     78          1           0       -5.166809    6.351907    0.482957
     79          1           0       -5.949565    6.737612    2.064981
     80          1           0       -4.533694    5.514503    2.086469
     81          1           0       -9.801451    5.899805    0.387944
     82          1           0       -8.572603    8.220260    0.166047
     83          1           0       -7.095934    7.384507    0.200774
     84          1           0      -12.255389    2.975043   -2.360742
     85          1           0      -13.359113    1.923765   -1.618671
     86          1           0      -12.626734    3.221015   -0.585666
     87          1           0      -12.214227   -1.777347   -1.395955
     88          1           0      -13.263895   -0.342851   -1.705263
     89          1           0      -13.118650   -1.425769   -3.943572
     90          1           0      -12.066429   -0.005379   -3.859236
     91          1           0      -11.117141   -1.432478   -3.570279
     92          1           0       -9.278640   -4.665342   -1.972331
     93          1           0       -8.240403   -5.799777   -1.186095
     94          1           0       -9.598905   -4.907994   -0.224290
     95          1           0       -3.325214   -3.579707   -0.017952
     96          1           0       -1.580189   -4.213263    3.381667
     97          1           0       -3.049364   -5.385553    3.695063
     98          1           0       -1.452675   -6.082808    2.947445
     99          1           0        2.584023   -1.801284   -1.447696
    100          1           0        2.478096   -0.073512   -2.227162
    101          1           0        4.227624   -1.032560    0.262510
    102          1           0        4.037690    1.538164   -2.476249
    103          1           0        5.674667    2.076470   -1.803786
    104          1           0        5.615982    0.690379   -3.040837
    105          1           0        6.374681    1.368216    0.220138
    106          1           0        6.328362   -0.064779    0.946256
    107          1           0        7.514233   -1.334742   -1.276497
    108          1           0        8.021525    0.318747   -1.768024
    109          1           0        9.155602    0.852158    0.057242
    110          1           0        8.931014   -0.809701    0.726983
    111          1           0       10.120240    0.143037   -1.790366
    112          1           0        9.283421   -2.135159   -1.900025
    113          1           0       11.011057   -2.106844   -2.271282
    114          1           0       10.251439   -2.638638   -0.617907
    115          1           0       11.575786    0.747153    0.119027
    116          1           0       11.325570   -1.132280    0.905125
    117          1           0       12.877353   -1.588508   -0.831159
    118          1           0       13.136435    0.208482   -1.525679
    119          1           0       13.676869    1.048701    0.701746
    120          1           0       13.979782   -0.706177    1.222895
    121          1           0       15.160578    0.513646   -1.407526
    122          1           0       15.443688   -2.144483    0.032751
    123          1           0       14.857427   -1.869348   -1.641199
    124          1           0       16.748116   -1.588980   -1.243178
    125          1           0       16.052245    1.620756    0.528519
    126          1           0       16.542101    0.018653    1.364793
    127          1           0       18.093745   -0.466222   -0.153537
    128          1           0       17.773385    1.024081   -1.142445
    129          1           0       18.408961    2.486144    0.501912
    130          1           0       18.723559    1.040987    1.832285
    131          1           0       20.586590    0.178130    0.080238
    132          1           0       20.502182    3.195529   -1.065052
    133          1           0       21.474566    1.756641   -1.673186
    134          1           0       19.709585    1.701054   -2.037519
    135          1           0       21.117503    1.454530    2.211769
    136          1           0       22.234883    1.960929    1.151647
    137          1           0       21.029897    2.823248    1.627601
 ---------------------------------------------------------------------

 SCF Done:  E(RCAM-B3LYP) =  -2932.67698917     A.U. after   15 cycles

 Excitation energies and oscillator strengths:

 Excited State   1:      Singlet-A      1.9859 eV  624.33 nm  f=0.2076  <S**2>=0.000
     240 -> 242       -0.11879
     240 -> 243        0.19989
     241 -> 242        0.64631
     241 -> 243        0.13776
 This state for optimization and/or second-order correction.
 Total Energy, E(TD-HF/TD-KS) =  -2932.60400970
 Copying the excited state density for this state as the 1-particle RhoCI density.

 The electronic state is 1-A.
 Alpha  occ. eigenvalues --  -46.84106 -19.26609 -19.25939 -19.21219 -19.21074
 Alpha  occ. eigenvalues --  -19.19524 -14.41122 -14.39999 -14.39856 -14.38515
 Alpha  occ. eigenvalues --  -10.39556 -10.37938 -10.35556 -10.33606 -10.31907
 Alpha  occ. eigenvalues --  -10.30795 -10.30467 -10.30428 -10.30378 -10.30131
 Alpha  occ. eigenvalues --  -10.29968 -10.29009 -10.28486 -10.28477 -10.28446
 Alpha  occ. eigenvalues --  -10.28398 -10.28333 -10.28319 -10.28295 -10.28193
 Alpha  occ. eigenvalues --  -10.28126 -10.27994 -10.27962 -10.27910 -10.27782
 Alpha  occ. eigenvalues --  -10.27647 -10.27624 -10.27363 -10.27331 -10.27238
 Alpha  occ. eigenvalues --  -10.27098 -10.27075 -10.27033 -10.26842 -10.26829
 Alpha  occ. eigenvalues --  -10.26638 -10.26489 -10.26461 -10.26451 -10.26293
 Alpha  occ. eigenvalues --  -10.26228 -10.26118 -10.25921 -10.25815 -10.25783
 Alpha  occ. eigenvalues --  -10.25752 -10.25670 -10.25544 -10.25117 -10.24941
 Alpha  occ. eigenvalues --  -10.24795 -10.24260 -10.24084 -10.24080 -10.22510
 Alpha  occ. eigenvalues --   -3.13141  -1.87848  -1.87399  -1.87304  -1.18974
 Alpha  occ. eigenvalues --   -1.18186  -1.12227  -1.09233  -1.08168  -1.04995
 Alpha  occ. eigenvalues --   -1.03012  -1.01820  -1.01301  -0.92554  -0.92297
 Alpha  occ. eigenvalues --   -0.90954  -0.90079  -0.89312  -0.88864  -0.88480
 Alpha  occ. eigenvalues --   -0.87966  -0.87631  -0.87010  -0.86502  -0.85730
 Alpha  occ. eigenvalues --   -0.85171  -0.84156  -0.83853  -0.83262  -0.82142
 Alpha  occ. eigenvalues --   -0.81301  -0.81058  -0.80401  -0.80030  -0.77905
 Alpha  occ. eigenvalues --   -0.76998  -0.76651  -0.76158  -0.75806  -0.75303
 Alpha  occ. eigenvalues --   -0.74854  -0.74514  -0.73795  -0.72961  -0.72540
 Alpha  occ. eigenvalues --   -0.71312  -0.70295  -0.69097  -0.68966  -0.68652
 Alpha  occ. eigenvalues --   -0.67577  -0.67131  -0.64755  -0.64426  -0.63761
 Alpha  occ. eigenvalues --   -0.63677  -0.62652  -0.62095  -0.62011  -0.61505
 Alpha  occ. eigenvalues --   -0.60583  -0.60323  -0.60218  -0.59579  -0.59007
 Alpha  occ. eigenvalues --   -0.58568  -0.58004  -0.57248  -0.57012  -0.56637
 Alpha  occ. eigenvalues --   -0.56587  -0.55961  -0.55676  -0.55403  -0.54694
 Alpha  occ. eigenvalues --   -0.54433  -0.54300  -0.54072  -0.53899  -0.53271
 Alpha  occ. eigenvalues --   -0.53017  -0.52684  -0.52418  -0.51758  -0.51590
 Alpha  occ. eigenvalues --   -0.51530  -0.51405  -0.51196  -0.50808  -0.50651
 Alpha  occ. eigenvalues --   -0.50219  -0.49744  -0.49614  -0.49468  -0.49283
 Alpha  occ. eigenvalues --   -0.49168  -0.48797  -0.48683  -0.48405  -0.48218
 Alpha  occ. eigenvalues --   -0.48021  -0.47940  -0.47717  -0.47275  -0.47119
 Alpha  occ. eigenvalues --   -0.46837  -0.46597  -0.46426  -0.46231  -0.46122
 Alpha  occ. eigenvalues --   -0.45913  -0.45769  -0.45516  -0.45046  -0.44937
 Alpha  occ. eigenvalues --   -0.44824  -0.44293  -0.44193  -0.44078  -0.43857
 Alpha  occ. eigenvalues --   -0.43549  -0.43433  -0.43179  -0.43112  -0.42837
 Alpha  occ. eigenvalues --   -0.42722  -0.42571  -0.42476  -0.42263  -0.42207
 Alpha  occ. eigenvalues --   -0.41866  -0.41722  -0.41622  -0.41487  -0.41012
 Alpha  occ. eigenvalues --   -0.40873  -0.40790  -0.40536  -0.40315  -0.40184
 Alpha  occ. eigenvalues --   -0.39905  -0.39788  -0.39580  -0.39381  -0.39066
 Alpha  occ. eigenvalues --   -0.38776  -0.38195  -0.38086  -0.37762  -0.37545
 Alpha  occ. eigenvalues --   -0.37216  -0.36948  -0.36746  -0.36595  -0.36368
 Alpha  occ. eigenvalues --   -0.36224  -0.36175  -0.35872  -0.35635  -0.35504
 Alpha  occ. eigenvalues --   -0.35293  -0.34632  -0.34163  -0.33584  -0.33423
 Alpha  occ. eigenvalues --   -0.33340  -0.32661  -0.32314  -0.31475  -0.30330
 Alpha  occ. eigenvalues --   -0.29968  -0.29716  -0.27257  -0.26513  -0.23495
 Alpha  occ. eigenvalues --   -0.20684
 Alpha virt. eigenvalues --   -0.06439  -0.03757   0.01194   0.04144   0.05209
 Alpha virt. eigenvalues --    0.06040   0.06222   0.06798   0.07256   0.07688
 Alpha virt. eigenvalues --    0.08697   0.10900   0.11649   0.11782   0.11884

 Mulliken charges:
               1
     1  Mg   0.819662
     2  C    0.072347
     3  C   -0.196097
     4  C   -0.138638
     5  C   -0.187333
     6  N   -0.658522
     7  C    0.297917
     8  C   -0.172832
     9  C   -0.134575
    10  C    0.364318
    11  C   -0.299767
    12  C   -0.173943
    13  C   -0.263308
    14  C    0.605813
    15  O   -0.479042
    16  O   -0.482990
    17  N   -0.731807
    18  C    0.348409
    19  C    0.021556
    20  C    0.001705
    21  C    0.300059
    22  C   -0.379326
    23  C   -0.070255
    24  C   -0.247334
    25  N   -0.663621
    26  C    0.206944
    27  C    0.046291
    28  C   -0.054307
    29  C    0.319929
    30  C   -0.395950
    31  C   -0.206555
    32  C   -0.311235
    33  N   -0.711507
    34  C    0.295519
    35  C    0.058959
    36  C    0.059069
    37  C    0.322009
    38  C   -0.391802
    39  C    0.305878
    40  O   -0.437606
    41  C   -0.337512
    42  C    0.616336
    43  O   -0.476109
    44  O   -0.430302
    45  C   -0.075296
    46  C   -0.000500
    47  C   -0.122791
    48  C    0.113571
    49  C   -0.342311
    50  C   -0.225078
    51  C   -0.167477
    52  C   -0.176467
    53  C   -0.071331
    54  C   -0.307356
    55  C   -0.154388
    56  C   -0.175464
    57  C   -0.174727
    58  C   -0.049900
    59  C   -0.309139
    60  C   -0.147430
    61  C   -0.178130
    62  C   -0.164226
    63  C   -0.038226
    64  C   -0.308483
    65  C   -0.330745
    66  H    0.060470
    67  H    0.092347
    68  H    0.090828
    69  H    0.112497
    70  H    0.125607
    71  H    0.098951
    72  H    0.093973
    73  H    0.127744
    74  H    0.141225
    75  H    0.067935
    76  H    0.141660
    77  H    0.127592
    78  H    0.134075
    79  H    0.115460
    80  H    0.099270
    81  H    0.100650
    82  H    0.110007
    83  H    0.094766
    84  H    0.115895
    85  H    0.115687
    86  H    0.117130
    87  H    0.109946
    88  H    0.109419
    89  H    0.093724
    90  H    0.118950
    91  H    0.098489
    92  H    0.124707
    93  H    0.122791
    94  H    0.139667
    95  H    0.157815
    96  H    0.116202
    97  H    0.122811
    98  H    0.113599
    99  H    0.140093
   100  H    0.107219
   101  H    0.085984
   102  H    0.110316
   103  H    0.120636
   104  H    0.118744
   105  H    0.075506
   106  H    0.114166
   107  H    0.101397
   108  H    0.110715
   109  H    0.098363
   110  H    0.063727
   111  H    0.068180
   112  H    0.103109
   113  H    0.113447
   114  H    0.095948
   115  H    0.086614
   116  H    0.080367
   117  H    0.102044
   118  H    0.075470
   119  H    0.083592
   120  H    0.072992
   121  H    0.042002
   122  H    0.100355
   123  H    0.100226
   124  H    0.108842
   125  H    0.095709
   126  H    0.061908
   127  H    0.097077
   128  H    0.101701
   129  H    0.070442
   130  H    0.077644
   131  H    0.098932
   132  H    0.086648
   133  H    0.097395
   134  H    0.092857
   135  H    0.106525
   136  H    0.092088
   137  H    0.104578
 Sum of Mulliken charges =   0.00000

 Dipole moment (field-independent basis, Debye):
    X=              2.5341    Y=              3.6474    Z=              0.2374  Tot=              4.4477
 Quadrupole moment (field-independent basis, Debye-Ang):
   XX=           -334.4445   YY=           -388.4497   ZZ=           -402.5135
   XY=            -17.1465   XZ=             13.3717   YZ=             -3.0264

 Normal termination of Gaussian 09 at Fri Jun 28 08:48:47 2019.
