 Gaussian 09, Revision D.01,
 Gaussian 09:  ES64L-G09RevD.01 24-Apr-2013

 -------------------------------------
 # td=(NStates=1) CAM-B3LYP/6-31G(d,p)
 -------------------------------------

 --
 TD
 --
 Symbolic Z-matrix:
 Charge =  0 Multiplicity = 1

                         Standard orientation:
 ---------------------------------------------------------------------
 Center     Atomic      Atomic             Coordinates (Angstroms)
 Number     Number       Type             X           Y           Z
 ---------------------------------------------------------------------
      1         12           0       -7.091410    0.559121    0.047483
      2          6           0       -4.734015   -1.820786    0.381067
      3          6           0       -4.904114    2.878352    1.264249
      4          6           0       -9.456870    3.148763   -0.225633
      5          6           0       -9.556865   -1.731920   -0.646616
      6          7           0       -5.165527    0.509183    0.840215
      7          6           0       -4.309382   -0.587532    0.750655
      8          6           0       -2.951276   -0.330353    1.160427
      9          6           0       -2.994570    1.121311    1.670300
     10          6           0       -4.408352    1.585775    1.260029
     11          6           0       -2.815447    1.329939    3.137126
     12          6           0       -1.895730   -0.580957   -0.032602
     13          6           0       -0.466365   -0.269214    0.386265
     14          6           0        0.446421   -0.521819   -0.714258
     15          8           0        0.194336   -1.197907   -1.749470
     16          8           0        1.785838   -0.336332   -0.330255
     17          7           0       -7.108866    2.592182    0.336837
     18          6           0       -6.086118    3.358450    0.791386
     19          6           0       -6.402902    4.732243    0.783448
     20          6           0       -7.722442    4.859115    0.419767
     21          6           0       -8.178430    3.461166    0.112129
     22          6           0       -5.507157    5.813656    1.293436
     23          6           0       -8.625949    6.080043    0.186905
     24          6           0       -8.273653    7.296561   -0.174692
     25          7           0       -9.094320    0.634167   -0.507542
     26          6           0       -9.842072    1.768386   -0.622310
     27          6           0      -11.237825    1.427819   -0.949923
     28          6           0      -11.332658    0.048501   -1.129628
     29          6           0       -9.993125   -0.422346   -0.776300
     30          6           0      -12.256764    2.455555   -1.318837
     31          6           0      -12.479458   -0.941141   -1.507603
     32          6           0      -12.182332   -1.232409   -2.999110
     33          7           0       -7.261511   -1.429135   -0.119777
     34          6           0       -8.356321   -2.252049   -0.396239
     35          6           0       -7.821481   -3.613761   -0.386207
     36          6           0       -6.463047   -3.559383   -0.124578
     37          6           0       -6.134992   -2.119996    0.047792
     38          6           0       -8.676316   -4.795642   -0.672481
     39          6           0       -5.289035   -4.286274    0.134625
     40          8           0       -5.126297   -5.445080    0.140163
     41          6           0       -4.149818   -3.280685    0.523587
     42          6           0       -3.530301   -3.563355    1.911385
     43          8           0       -3.859622   -3.068164    2.815455
     44          8           0       -2.677225   -4.654344    1.744786
     45          6           0       -2.322860   -5.133006    2.990093
     46          6           0        2.822114   -0.578041   -1.252719
     47          6           0        4.106783   -0.440666   -0.576628
     48          6           0        5.187488    0.232001   -1.090856
     49          6           0        5.144155    0.974915   -2.445238
     50          6           0        6.448229    0.298476   -0.254249
     51          6           0        7.630858   -0.362814   -1.056485
     52          6           0        8.957118   -0.195546   -0.367109
     53          6           0       10.232058   -0.643890   -1.037895
     54          6           0       10.254500   -2.222153   -1.309842
     55          6           0       11.419597   -0.234107   -0.175659
     56          6           0       12.808524   -0.413907   -0.801300
     57          6           0       13.964075   -0.246724    0.195925
     58          6           0       15.355662   -0.346312   -0.410409
     59          6           0       15.633717   -1.749843   -0.755268
     60          6           0       16.420127    0.358115    0.466642
     61          6           0       17.864190    0.419218   -0.038008
     62          6           0       18.712521    1.446990    0.761687
     63          6           0       20.179125    1.535685    0.462367
     64          6           0       20.396905    2.205861   -0.908822
     65          6           0       21.075172    2.115413    1.521768
     66          1           0       -4.258694    3.649947    1.493705
     67          1           0      -10.063662    3.821648   -0.328298
     68          1           0      -10.380440   -2.477331   -1.013132
     69          1           0       -2.714335   -1.252793    1.938051
     70          1           0       -2.216030    1.941740    1.138582
     71          1           0       -1.650216    1.143359    3.358836
     72          1           0       -2.842199    2.346190    3.395324
     73          1           0       -3.441871    0.580512    3.550116
     74          1           0       -1.794291   -1.678309   -0.234629
     75          1           0       -2.237551    0.271712   -0.875024
     76          1           0       -0.376373    0.626453    0.710603
     77          1           0       -0.156866   -0.945959    1.198667
     78          1           0       -5.085944    6.302467    0.357395
     79          1           0       -6.205708    6.561627    1.631036
     80          1           0       -4.702450    5.460802    1.866146
     81          1           0       -9.715612    5.954135    0.242751
     82          1           0       -9.024964    8.283323   -0.300640
     83          1           0       -7.221456    7.389178   -0.579883
     84          1           0      -12.089610    3.123407   -2.017880
     85          1           0      -13.106375    1.882672   -1.714363
     86          1           0      -12.974327    2.949201   -0.410170
     87          1           0      -12.490578   -1.923739   -1.036009
     88          1           0      -13.549672   -0.519081   -1.191650
     89          1           0      -12.917618   -1.834807   -3.396534
     90          1           0      -12.161455   -0.461336   -3.739906
     91          1           0      -11.405027   -1.726647   -3.241881
     92          1           0       -9.346755   -4.730722   -1.543093
     93          1           0       -8.149912   -5.848252   -0.894504
     94          1           0       -9.335206   -4.923925    0.122882
     95          1           0       -3.231962   -3.505172   -0.254645
     96          1           0       -1.914479   -4.365036    3.673009
     97          1           0       -3.398923   -5.506090    3.596854
     98          1           0       -1.421093   -5.878171    2.857645
     99          1           0        2.709756   -1.695811   -1.657425
    100          1           0        2.716640    0.077183   -2.164759
    101          1           0        4.088938   -1.120421    0.451462
    102          1           0        4.193885    0.826578   -2.757693
    103          1           0        5.397990    2.051365   -2.254060
    104          1           0        5.929217    0.596434   -3.085141
    105          1           0        6.720086    1.463042   -0.325953
    106          1           0        6.333690    0.051609    0.911145
    107          1           0        7.425687   -1.388691   -1.254203
    108          1           0        7.625933   -0.052603   -2.053762
    109          1           0        8.969312    0.824672    0.030397
    110          1           0        8.833981   -0.922268    0.639375
    111          1           0       10.506618    0.114998   -1.960608
    112          1           0        9.571391   -2.650632   -1.971134
    113          1           0       11.230195   -2.423999   -1.842111
    114          1           0       10.467783   -2.665714   -0.393731
    115          1           0       11.385766    0.910680    0.326407
    116          1           0       11.381849   -0.946030    0.625308
    117          1           0       12.951056   -1.279378   -1.436391
    118          1           0       12.983141    0.398244   -1.518112
    119          1           0       13.707146    0.715026    0.764198
    120          1           0       13.914173   -0.976708    1.026820
    121          1           0       15.174237    0.284109   -1.333396
    122          1           0       15.586193   -2.624828   -0.043622
    123          1           0       14.967316   -2.279614   -1.546398
    124          1           0       16.547812   -1.852040   -1.319503
    125          1           0       16.021334    1.472432    0.460173
    126          1           0       16.132050   -0.023717    1.533857
    127          1           0       18.323933   -0.599259   -0.171896
    128          1           0       17.727133    0.676937   -1.023220
    129          1           0       18.451757    2.521153    0.906138
    130          1           0       18.600841    1.007733    1.919886
    131          1           0       20.496638    0.398517    0.290210
    132          1           0       20.336098    3.403741   -0.741747
    133          1           0       21.552400    2.131324   -1.254648
    134          1           0       19.639922    1.973250   -1.652899
    135          1           0       20.753568    1.665376    2.541351
    136          1           0       22.124687    1.965555    1.358056
    137          1           0       20.865974    3.167088    1.501563
 ---------------------------------------------------------------------

 SCF Done:  E(RCAM-B3LYP) =  -2932.60799377     A.U. after   15 cycles

 Excitation energies and oscillator strengths:

 Excited State   1:      Singlet-A      2.1797 eV  568.80 nm  f=0.2010  <S**2>=0.000
     240 -> 242        0.11627
     240 -> 243        0.24649
     241 -> 242        0.63779
 This state for optimization and/or second-order correction.
 Total Energy, E(TD-HF/TD-KS) =  -2932.52788999
 Copying the excited state density for this state as the 1-particle RhoCI density.

 The electronic state is 1-A.
 Alpha  occ. eigenvalues --  -46.83789 -19.25672 -19.25591 -19.23402 -19.21276
 Alpha  occ. eigenvalues --  -19.19091 -14.41657 -14.39324 -14.39256 -14.39038
 Alpha  occ. eigenvalues --  -10.39869 -10.38847 -10.33560 -10.32590 -10.31859
 Alpha  occ. eigenvalues --  -10.31727 -10.30163 -10.29903 -10.29575 -10.29386
 Alpha  occ. eigenvalues --  -10.29292 -10.29216 -10.29174 -10.29059 -10.28639
 Alpha  occ. eigenvalues --  -10.28576 -10.28542 -10.28311 -10.28217 -10.28202
 Alpha  occ. eigenvalues --  -10.28173 -10.28082 -10.27942 -10.27802 -10.27699
 Alpha  occ. eigenvalues --  -10.27675 -10.27023 -10.26886 -10.26886 -10.26761
 Alpha  occ. eigenvalues --  -10.26757 -10.26615 -10.26541 -10.26490 -10.26421
 Alpha  occ. eigenvalues --  -10.26255 -10.26155 -10.26135 -10.26091 -10.26076
 Alpha  occ. eigenvalues --  -10.26027 -10.25847 -10.25788 -10.25750 -10.25604
 Alpha  occ. eigenvalues --  -10.25526 -10.24977 -10.24946 -10.24872 -10.24664
 Alpha  occ. eigenvalues --  -10.24587 -10.24577 -10.24570 -10.24402 -10.22841
 Alpha  occ. eigenvalues --   -3.12888  -1.87595  -1.87153  -1.87041  -1.23787
 Alpha  occ. eigenvalues --   -1.16280  -1.13877  -1.12754  -1.07461  -1.04263
 Alpha  occ. eigenvalues --   -1.03229  -1.02853  -1.01117  -0.91607  -0.91129
 Alpha  occ. eigenvalues --   -0.90923  -0.90396  -0.89465  -0.89224  -0.88968
 Alpha  occ. eigenvalues --   -0.88630  -0.88064  -0.87749  -0.87209  -0.86878
 Alpha  occ. eigenvalues --   -0.85215  -0.84866  -0.83666  -0.83548  -0.83296
 Alpha  occ. eigenvalues --   -0.82118  -0.81139  -0.80254  -0.80121  -0.78702
 Alpha  occ. eigenvalues --   -0.78135  -0.77361  -0.76504  -0.75592  -0.75352
 Alpha  occ. eigenvalues --   -0.75178  -0.74336  -0.74237  -0.73126  -0.72406
 Alpha  occ. eigenvalues --   -0.71781  -0.71092  -0.70504  -0.69040  -0.68135
 Alpha  occ. eigenvalues --   -0.67003  -0.66270  -0.65350  -0.64866  -0.64229
 Alpha  occ. eigenvalues --   -0.63876  -0.63088  -0.62685  -0.62480  -0.61677
 Alpha  occ. eigenvalues --   -0.60870  -0.60674  -0.60407  -0.59925  -0.59415
 Alpha  occ. eigenvalues --   -0.58505  -0.57939  -0.57830  -0.57621  -0.57261
 Alpha  occ. eigenvalues --   -0.57042  -0.56247  -0.55639  -0.55179  -0.54985
 Alpha  occ. eigenvalues --   -0.54789  -0.54664  -0.54081  -0.53975  -0.53194
 Alpha  occ. eigenvalues --   -0.52928  -0.52854  -0.52532  -0.51852  -0.51561
 Alpha  occ. eigenvalues --   -0.51381  -0.50929  -0.50840  -0.50677  -0.50386
 Alpha  occ. eigenvalues --   -0.50279  -0.50205  -0.50007  -0.49815  -0.49481
 Alpha  occ. eigenvalues --   -0.49363  -0.49191  -0.48837  -0.48688  -0.48652
 Alpha  occ. eigenvalues --   -0.48347  -0.48156  -0.48039  -0.47696  -0.47499
 Alpha  occ. eigenvalues --   -0.47013  -0.46793  -0.46785  -0.46529  -0.46389
 Alpha  occ. eigenvalues --   -0.46181  -0.46136  -0.45933  -0.45676  -0.45305
 Alpha  occ. eigenvalues --   -0.45032  -0.44890  -0.44469  -0.44303  -0.44178
 Alpha  occ. eigenvalues --   -0.43871  -0.43640  -0.43169  -0.43100  -0.42896
 Alpha  occ. eigenvalues --   -0.42576  -0.42474  -0.42293  -0.42284  -0.41898
 Alpha  occ. eigenvalues --   -0.41767  -0.41721  -0.41616  -0.41411  -0.41364
 Alpha  occ. eigenvalues --   -0.41026  -0.40868  -0.40711  -0.40574  -0.40448
 Alpha  occ. eigenvalues --   -0.40329  -0.40255  -0.39748  -0.39320  -0.39213
 Alpha  occ. eigenvalues --   -0.39149  -0.38955  -0.38678  -0.38579  -0.37742
 Alpha  occ. eigenvalues --   -0.37580  -0.37166  -0.37064  -0.36240  -0.36232
 Alpha  occ. eigenvalues --   -0.36211  -0.35917  -0.35639  -0.35398  -0.35190
 Alpha  occ. eigenvalues --   -0.35137  -0.35024  -0.34890  -0.34766  -0.34587
 Alpha  occ. eigenvalues --   -0.33637  -0.33020  -0.32445  -0.30524  -0.29473
 Alpha  occ. eigenvalues --   -0.29311  -0.28647  -0.28277  -0.27752  -0.23450
 Alpha  occ. eigenvalues --   -0.21218
 Alpha virt. eigenvalues --   -0.05680  -0.03202   0.02329   0.03587   0.04397
 Alpha virt. eigenvalues --    0.05527   0.06203   0.06860   0.07042   0.07938
 Alpha virt. eigenvalues --    0.08434   0.10351   0.10967   0.11232   0.11858

 Mulliken charges:
               1
     1  Mg   0.808431
     2  C    0.052585
     3  C   -0.213848
     4  C   -0.071847
     5  C   -0.187426
     6  N   -0.654342
     7  C    0.347567
     8  C   -0.178193
     9  C   -0.155393
    10  C    0.346143
    11  C   -0.276236
    12  C   -0.153343
    13  C   -0.248546
    14  C    0.600339
    15  O   -0.475714
    16  O   -0.493156
    17  N   -0.726779
    18  C    0.371863
    19  C   -0.003926
    20  C   -0.001843
    21  C    0.293857
    22  C   -0.363185
    23  C   -0.060807
    24  C   -0.255510
    25  N   -0.663889
    26  C    0.272539
    27  C   -0.030762
    28  C    0.080326
    29  C    0.253481
    30  C   -0.379822
    31  C   -0.239260
    32  C   -0.321595
    33  N   -0.755114
    34  C    0.303851
    35  C    0.024026
    36  C    0.024081
    37  C    0.290020
    38  C   -0.389407
    39  C    0.345886
    40  O   -0.429841
    41  C   -0.331939
    42  C    0.594146
    43  O   -0.343159
    44  O   -0.445184
    45  C   -0.082906
    46  C    0.026882
    47  C   -0.111324
    48  C    0.076761
    49  C   -0.335035
    50  C   -0.211560
    51  C   -0.179131
    52  C   -0.139646
    53  C   -0.059849
    54  C   -0.327646
    55  C   -0.162341
    56  C   -0.187667
    57  C   -0.173435
    58  C   -0.057362
    59  C   -0.319635
    60  C   -0.164153
    61  C   -0.179042
    62  C   -0.153142
    63  C   -0.046528
    64  C   -0.295597
    65  C   -0.300731
    66  H    0.053533
    67  H    0.036756
    68  H    0.084811
    69  H    0.103850
    70  H    0.080941
    71  H    0.082452
    72  H    0.124055
    73  H    0.136068
    74  H    0.134088
    75  H    0.097533
    76  H    0.133760
    77  H    0.151077
    78  H    0.116999
    79  H    0.137888
    80  H    0.122748
    81  H    0.102653
    82  H    0.103688
    83  H    0.101766
    84  H    0.135172
    85  H    0.110983
    86  H    0.075471
    87  H    0.119625
    88  H    0.099824
    89  H    0.099823
    90  H    0.113448
    91  H    0.127544
    92  H    0.119747
    93  H    0.128018
    94  H    0.137978
    95  H    0.135028
    96  H    0.114795
    97  H    0.088816
    98  H    0.113454
    99  H    0.108198
   100  H    0.106192
   101  H    0.084861
   102  H    0.110847
   103  H    0.115366
   104  H    0.127532
   105  H    0.075797
   106  H    0.099437
   107  H    0.103078
   108  H    0.095980
   109  H    0.091266
   110  H    0.050196
   111  H    0.057149
   112  H    0.120919
   113  H    0.096897
   114  H    0.120469
   115  H    0.068166
   116  H    0.093055
   117  H    0.099843
   118  H    0.088577
   119  H    0.074076
   120  H    0.082841
   121  H    0.080351
   122  H    0.104766
   123  H    0.086957
   124  H    0.102215
   125  H    0.079503
   126  H    0.080528
   127  H    0.101801
   128  H    0.108175
   129  H    0.092242
   130  H    0.058741
   131  H    0.060625
   132  H    0.067224
   133  H    0.086880
   134  H    0.112078
   135  H    0.092692
   136  H    0.112616
   137  H    0.101487
 Sum of Mulliken charges =   0.00000

 Dipole moment (field-independent basis, Debye):
    X=              1.2131    Y=              5.0376    Z=             -0.1086  Tot=              5.1827
 Quadrupole moment (field-independent basis, Debye-Ang):
   XX=           -346.4811   YY=           -394.0789   ZZ=           -397.6095
   XY=            -22.8285   XZ=              5.4793   YZ=             -4.2986

 Normal termination of Gaussian 09 at Fri Jun 28 17:11:52 2019.
