 Gaussian 09, Revision D.01,
 Gaussian 09:  ES64L-G09RevD.01 24-Apr-2013

 -------------------------------------
 # td=(NStates=1) CAM-B3LYP/6-31G(d,p)
 -------------------------------------

 --
 TD
 --
 Symbolic Z-matrix:
 Charge =  0 Multiplicity = 1

                         Standard orientation:
 ---------------------------------------------------------------------
 Center     Atomic      Atomic             Coordinates (Angstroms)
 Number     Number       Type             X           Y           Z
 ---------------------------------------------------------------------
      1         12           0       -7.120108    0.542589    0.066960
      2          6           0       -4.774055   -1.989698    0.526802
      3          6           0       -4.786046    2.804654    1.204849
      4          6           0       -9.392662    3.062858   -0.295514
      5          6           0       -9.423830   -1.723634   -0.785240
      6          7           0       -5.058921    0.396194    0.788713
      7          6           0       -4.307609   -0.700809    0.955322
      8          6           0       -2.823231   -0.404467    1.331174
      9          6           0       -2.956798    1.165298    1.703118
     10          6           0       -4.338723    1.491426    1.142360
     11          6           0       -2.994720    1.322017    3.269819
     12          6           0       -1.934596   -0.659862    0.173825
     13          6           0       -0.453585   -0.387030    0.534862
     14          6           0        0.465525   -0.641194   -0.633531
     15          8           0        0.182340   -0.940937   -1.717162
     16          8           0        1.647724   -0.360591   -0.274459
     17          7           0       -7.120075    2.523063    0.421312
     18          6           0       -6.081345    3.337540    0.812150
     19          6           0       -6.389811    4.609870    0.866220
     20          6           0       -7.707201    4.782955    0.436268
     21          6           0       -8.105681    3.435595    0.189597
     22          6           0       -5.548070    5.871456    1.278208
     23          6           0       -8.543608    5.935328    0.227694
     24          6           0       -8.231942    7.264669    0.135429
     25          7           0       -9.169795    0.581538   -0.404169
     26          6           0       -9.873737    1.764840   -0.592264
     27          6           0      -11.183866    1.360400   -1.119855
     28          6           0      -11.237373   -0.004766   -1.321091
     29          6           0       -9.979277   -0.488440   -0.898575
     30          6           0      -12.230605    2.399509   -1.366831
     31          6           0      -12.331744   -0.800432   -1.823834
     32          6           0      -12.211010   -1.122670   -3.309778
     33          7           0       -7.105582   -1.352926   -0.243428
     34          6           0       -8.120820   -2.220719   -0.557094
     35          6           0       -7.717141   -3.525925   -0.682573
     36          6           0       -6.392524   -3.494859   -0.219927
     37          6           0       -6.043770   -2.194444   -0.071784
     38          6           0       -8.570069   -4.742670   -0.928586
     39          6           0       -5.209643   -4.351335    0.096880
     40          8           0       -5.037968   -5.570774    0.142797
     41          6           0       -4.048194   -3.264240    0.568196
     42          6           0       -3.562310   -3.659935    1.878685
     43          8           0       -3.920906   -3.154455    2.952456
     44          8           0       -2.675561   -4.634030    1.812886
     45          6           0       -2.045229   -5.068232    3.099973
     46          6           0        2.817151   -0.497433   -1.261506
     47          6           0        4.077872   -0.398647   -0.637834
     48          6           0        5.008339    0.429928   -0.821484
     49          6           0        5.043107    1.446995   -2.044058
     50          6           0        6.355451    0.322690   -0.117062
     51          6           0        7.536798   -0.152348   -0.836100
     52          6           0        8.852950   -0.113271   -0.080219
     53          6           0       10.062513   -0.575275   -0.940372
     54          6           0        9.968956   -2.038180   -1.228752
     55          6           0       11.363249   -0.140909   -0.085244
     56          6           0       12.723540   -0.623910   -0.703002
     57          6           0       13.896866   -0.230604    0.208338
     58          6           0       15.195662   -0.257924   -0.485102
     59          6           0       15.619515   -1.656454   -0.922110
     60          6           0       16.304452    0.494977    0.411933
     61          6           0       17.723413    0.427673   -0.272157
     62          6           0       18.714020    1.318450    0.543692
     63          6           0       20.140105    1.337227    0.167809
     64          6           0       20.465677    2.043867   -1.133960
     65          6           0       20.945098    1.901666    1.355137
     66          1           0       -4.056625    3.585925    1.467439
     67          1           0       -9.945970    3.823122   -0.675648
     68          1           0      -10.073429   -2.589478   -0.888769
     69          1           0       -2.448347   -0.997450    2.242434
     70          1           0       -2.123054    1.616767    1.097850
     71          1           0       -2.096855    0.824274    3.447873
     72          1           0       -3.091973    2.417020    3.601687
     73          1           0       -3.785008    0.489837    3.708382
     74          1           0       -2.226664   -1.535849   -0.158691
     75          1           0       -2.105588    0.116379   -0.646272
     76          1           0       -0.214576    0.680107    0.903980
     77          1           0       -0.243830   -1.075274    1.324067
     78          1           0       -5.018915    6.204475    0.482702
     79          1           0       -6.053710    6.768997    1.604114
     80          1           0       -4.904376    5.534257    2.124267
     81          1           0       -9.609970    5.781904    0.136619
     82          1           0       -8.931639    8.102728    0.057238
     83          1           0       -7.273662    7.611537   -0.277041
     84          1           0      -11.837587    3.180853   -2.133388
     85          1           0      -13.155832    2.120702   -2.002235
     86          1           0      -12.727877    2.615338   -0.319529
     87          1           0      -12.358267   -1.791390   -1.104027
     88          1           0      -13.446629   -0.358868   -1.500503
     89          1           0      -12.909681   -1.707990   -3.396032
     90          1           0      -12.204857   -0.191211   -3.775082
     91          1           0      -11.437098   -1.717589   -3.573063
     92          1           0       -9.176759   -4.529729   -1.871413
     93          1           0       -7.851672   -5.584674   -1.313683
     94          1           0       -9.549781   -4.958033   -0.274043
     95          1           0       -3.194765   -3.313707   -0.213871
     96          1           0       -1.261478   -4.420482    3.291410
     97          1           0       -2.939169   -4.901369    3.924462
     98          1           0       -1.554837   -6.215404    2.789237
     99          1           0        2.666308   -1.418566   -1.570116
    100          1           0        2.517839    0.141578   -2.163941
    101          1           0        4.156220   -1.074898    0.312120
    102          1           0        4.112492    1.545247   -2.243760
    103          1           0        5.786632    2.319479   -1.809407
    104          1           0        5.572901    1.198248   -2.878942
    105          1           0        6.671091    1.377482    0.231866
    106          1           0        6.209573   -0.347963    0.686660
    107          1           0        7.575821   -1.326029   -1.204646
    108          1           0        7.866370    0.365012   -1.669826
    109          1           0        9.162824    0.911532    0.441331
    110          1           0        8.748290   -0.966914    0.696595
    111          1           0       10.330610    0.074556   -1.735560
    112          1           0        9.113422   -2.254601   -1.810721
    113          1           0       10.877930   -2.315942   -1.823751
    114          1           0        9.898716   -2.757855   -0.274307
    115          1           0       11.511511    1.024857   -0.112162
    116          1           0       11.289138   -0.418591    0.828362
    117          1           0       12.757890   -1.710476   -0.699486
    118          1           0       12.787295   -0.103078   -1.635986
    119          1           0       13.898905    0.889956    0.594478
    120          1           0       13.886974   -0.667919    1.221071
    121          1           0       15.173700    0.294445   -1.519832
    122          1           0       15.710609   -2.326661   -0.019846
    123          1           0       14.851132   -2.038921   -1.651229
    124          1           0       16.700099   -1.690912   -1.550304
    125          1           0       16.006294    1.559491    0.589306
    126          1           0       16.381568    0.008455    1.382946
    127          1           0       18.039374   -0.618591   -0.569954
    128          1           0       17.495045    0.876811   -1.101301
    129          1           0       18.519738    2.456286    0.546151
    130          1           0       18.695261    1.021685    1.798700
    131          1           0       20.591227    0.264769    0.288463
    132          1           0       19.907042    3.142667   -1.201196
    133          1           0       21.518726    2.201557   -1.223310
    134          1           0       20.142603    1.450057   -1.982897
    135          1           0       20.701981    1.103639    2.258484
    136          1           0       22.062194    1.762007    0.953057
    137          1           0       20.595397    2.993099    1.812359
 ---------------------------------------------------------------------

 SCF Done:  E(RCAM-B3LYP) =  -2932.56955109     A.U. after   19 cycles

 Excitation energies and oscillator strengths:

 Excited State   1:      Singlet-A      1.9531 eV  634.80 nm  f=0.2931  <S**2>=0.000
     240 -> 242       -0.27505
     240 -> 243        0.21582
     241 -> 242        0.59114
     241 -> 243        0.14958
 This state for optimization and/or second-order correction.
 Total Energy, E(TD-HF/TD-KS) =  -2932.49777478
 Copying the excited state density for this state as the 1-particle RhoCI density.

 The electronic state is 1-A.
 Alpha  occ. eigenvalues --  -46.83454 -19.25785 -19.24965 -19.21022 -19.19286
 Alpha  occ. eigenvalues --  -19.19144 -14.41646 -14.38905 -14.38785 -14.38411
 Alpha  occ. eigenvalues --  -10.38130 -10.37102 -10.36125 -10.33481 -10.31798
 Alpha  occ. eigenvalues --  -10.30599 -10.30003 -10.29139 -10.29020 -10.28600
 Alpha  occ. eigenvalues --  -10.28517 -10.28402 -10.28220 -10.28175 -10.27937
 Alpha  occ. eigenvalues --  -10.27923 -10.27810 -10.27747 -10.27662 -10.27625
 Alpha  occ. eigenvalues --  -10.27617 -10.27545 -10.27429 -10.27130 -10.26888
 Alpha  occ. eigenvalues --  -10.26819 -10.26775 -10.26659 -10.26593 -10.26516
 Alpha  occ. eigenvalues --  -10.26500 -10.26494 -10.26489 -10.26433 -10.26403
 Alpha  occ. eigenvalues --  -10.26314 -10.26219 -10.26145 -10.26047 -10.25925
 Alpha  occ. eigenvalues --  -10.25896 -10.25850 -10.25847 -10.25812 -10.25623
 Alpha  occ. eigenvalues --  -10.25534 -10.25404 -10.25226 -10.25190 -10.25183
 Alpha  occ. eigenvalues --  -10.25130 -10.25128 -10.24682 -10.24439 -10.22356
 Alpha  occ. eigenvalues --   -3.12630  -1.87315  -1.86862  -1.86842  -1.20057
 Alpha  occ. eigenvalues --   -1.17316  -1.10229  -1.09745  -1.06797  -1.04852
 Alpha  occ. eigenvalues --   -1.04380  -1.03471  -1.01167  -0.93123  -0.92524
 Alpha  occ. eigenvalues --   -0.90951  -0.90216  -0.89922  -0.89430  -0.89006
 Alpha  occ. eigenvalues --   -0.88737  -0.88074  -0.87194  -0.86967  -0.86797
 Alpha  occ. eigenvalues --   -0.85132  -0.84254  -0.83743  -0.83188  -0.82920
 Alpha  occ. eigenvalues --   -0.82120  -0.80976  -0.80356  -0.80144  -0.78441
 Alpha  occ. eigenvalues --   -0.77876  -0.77605  -0.77235  -0.75805  -0.75349
 Alpha  occ. eigenvalues --   -0.75165  -0.74968  -0.74187  -0.73195  -0.72710
 Alpha  occ. eigenvalues --   -0.71140  -0.70641  -0.70141  -0.69737  -0.68453
 Alpha  occ. eigenvalues --   -0.67145  -0.66600  -0.64902  -0.64669  -0.64407
 Alpha  occ. eigenvalues --   -0.63739  -0.63625  -0.63013  -0.61863  -0.61130
 Alpha  occ. eigenvalues --   -0.60987  -0.60217  -0.60131  -0.60108  -0.59136
 Alpha  occ. eigenvalues --   -0.58333  -0.58187  -0.57719  -0.57378  -0.57018
 Alpha  occ. eigenvalues --   -0.56419  -0.55677  -0.55519  -0.55213  -0.54780
 Alpha  occ. eigenvalues --   -0.54544  -0.53903  -0.53622  -0.53320  -0.53101
 Alpha  occ. eigenvalues --   -0.52735  -0.52531  -0.52276  -0.52218  -0.51663
 Alpha  occ. eigenvalues --   -0.51544  -0.51300  -0.51146  -0.50759  -0.50466
 Alpha  occ. eigenvalues --   -0.50308  -0.50222  -0.49929  -0.49719  -0.49498
 Alpha  occ. eigenvalues --   -0.49365  -0.49228  -0.49115  -0.48841  -0.48623
 Alpha  occ. eigenvalues --   -0.48244  -0.48158  -0.47693  -0.47466  -0.47088
 Alpha  occ. eigenvalues --   -0.46912  -0.46635  -0.46454  -0.46402  -0.45932
 Alpha  occ. eigenvalues --   -0.45867  -0.45714  -0.45569  -0.45359  -0.45054
 Alpha  occ. eigenvalues --   -0.44945  -0.44599  -0.44572  -0.44048  -0.43915
 Alpha  occ. eigenvalues --   -0.43593  -0.43454  -0.43285  -0.43281  -0.43043
 Alpha  occ. eigenvalues --   -0.42894  -0.42740  -0.42460  -0.42283  -0.42231
 Alpha  occ. eigenvalues --   -0.42084  -0.41943  -0.41590  -0.41405  -0.40872
 Alpha  occ. eigenvalues --   -0.40787  -0.40428  -0.40229  -0.40125  -0.39832
 Alpha  occ. eigenvalues --   -0.39819  -0.39666  -0.39488  -0.39118  -0.39063
 Alpha  occ. eigenvalues --   -0.38511  -0.38310  -0.38268  -0.37810  -0.37608
 Alpha  occ. eigenvalues --   -0.37470  -0.37038  -0.36886  -0.36779  -0.36641
 Alpha  occ. eigenvalues --   -0.36136  -0.36075  -0.35947  -0.35625  -0.35451
 Alpha  occ. eigenvalues --   -0.35169  -0.35151  -0.34876  -0.33698  -0.33507
 Alpha  occ. eigenvalues --   -0.32943  -0.32649  -0.32131  -0.31775  -0.30752
 Alpha  occ. eigenvalues --   -0.29837  -0.29292  -0.27683  -0.27007  -0.22385
 Alpha  occ. eigenvalues --   -0.21215
 Alpha virt. eigenvalues --   -0.07312  -0.03020   0.01521   0.03707   0.05519
 Alpha virt. eigenvalues --    0.05781   0.06407   0.07404   0.07693   0.08902
 Alpha virt. eigenvalues --    0.09778   0.10972   0.11020   0.11090   0.11758

 Mulliken charges:
               1
     1  Mg   0.820614
     2  C    0.061950
     3  C   -0.198331
     4  C   -0.161391
     5  C   -0.209731
     6  N   -0.605541
     7  C    0.317038
     8  C   -0.172731
     9  C   -0.154792
    10  C    0.334990
    11  C   -0.293860
    12  C   -0.141602
    13  C   -0.285796
    14  C    0.590528
    15  O   -0.469013
    16  O   -0.475477
    17  N   -0.710877
    18  C    0.312514
    19  C   -0.009116
    20  C    0.063929
    21  C    0.277701
    22  C   -0.361045
    23  C   -0.094173
    24  C   -0.266392
    25  N   -0.689335
    26  C    0.322830
    27  C   -0.017491
    28  C    0.121519
    29  C    0.294284
    30  C   -0.383179
    31  C   -0.280085
    32  C   -0.274272
    33  N   -0.741662
    34  C    0.305553
    35  C    0.032788
    36  C    0.008736
    37  C    0.269505
    38  C   -0.380199
    39  C    0.368564
    40  O   -0.455599
    41  C   -0.364434
    42  C    0.652828
    43  O   -0.515791
    44  O   -0.457431
    45  C   -0.090403
    46  C    0.011095
    47  C   -0.130767
    48  C    0.128939
    49  C   -0.344855
    50  C   -0.217140
    51  C   -0.153927
    52  C   -0.173272
    53  C   -0.057300
    54  C   -0.310901
    55  C   -0.189013
    56  C   -0.189443
    57  C   -0.171276
    58  C   -0.051612
    59  C   -0.294964
    60  C   -0.191927
    61  C   -0.177076
    62  C   -0.138620
    63  C   -0.053621
    64  C   -0.293800
    65  C   -0.275365
    66  H    0.079404
    67  H    0.082213
    68  H    0.069868
    69  H    0.108008
    70  H    0.099599
    71  H    0.117881
    72  H    0.112009
    73  H    0.118665
    74  H    0.110057
    75  H    0.106386
    76  H    0.131650
    77  H    0.129955
    78  H    0.133869
    79  H    0.127749
    80  H    0.103566
    81  H    0.101232
    82  H    0.105550
    83  H    0.101874
    84  H    0.119458
    85  H    0.101534
    86  H    0.125861
    87  H    0.079079
    88  H    0.085264
    89  H    0.113751
    90  H    0.118950
    91  H    0.116236
    92  H    0.109739
    93  H    0.138675
    94  H    0.127828
    95  H    0.161324
    96  H    0.140914
    97  H    0.154880
    98  H    0.115516
    99  H    0.141234
   100  H    0.129255
   101  H    0.090666
   102  H    0.112914
   103  H    0.094972
   104  H    0.135714
   105  H    0.093180
   106  H    0.098668
   107  H    0.067375
   108  H    0.100075
   109  H    0.074473
   110  H    0.077937
   111  H    0.095109
   112  H    0.116592
   113  H    0.102415
   114  H    0.088951
   115  H    0.073232
   116  H    0.100742
   117  H    0.109797
   118  H    0.098209
   119  H    0.066033
   120  H    0.095969
   121  H    0.068675
   122  H    0.096541
   123  H    0.102045
   124  H    0.069568
   125  H    0.093545
   126  H    0.092915
   127  H    0.094699
   128  H    0.113993
   129  H    0.080056
   130  H    0.041356
   131  H    0.078575
   132  H    0.074696
   133  H    0.108567
   134  H    0.110768
   135  H    0.078058
   136  H    0.084171
   137  H    0.078439
 Sum of Mulliken charges =   0.00000

 Dipole moment (field-independent basis, Debye):
    X=              2.8090    Y=              3.9485    Z=             -1.7793  Tot=              5.1621
 Quadrupole moment (field-independent basis, Debye-Ang):
   XX=           -345.3567   YY=           -396.4132   ZZ=           -398.4926
   XY=            -23.3821   XZ=             11.0908   YZ=             -5.5575

 Normal termination of Gaussian 09 at Mon Jul  1 12:23:13 2019.
