 Gaussian 09, Revision D.01,
 Gaussian 09:  ES64L-G09RevD.01 24-Apr-2013

 -------------------------------------
 # td=(NStates=1) CAM-B3LYP/6-31G(d,p)
 -------------------------------------

 --
 TD
 --
 Symbolic Z-matrix:
 Charge =  0 Multiplicity = 1

                         Standard orientation:
 ---------------------------------------------------------------------
 Center     Atomic      Atomic             Coordinates (Angstroms)
 Number     Number       Type             X           Y           Z
 ---------------------------------------------------------------------
      1         12           0       -7.144275    0.627515    0.149461
      2          6           0       -4.868188   -1.960623    0.502377
      3          6           0       -4.767780    2.711583    1.238575
      4          6           0       -9.352232    3.151032   -0.399416
      5          6           0       -9.468908   -1.717736   -0.975078
      6          7           0       -5.037969    0.389885    0.810471
      7          6           0       -4.423392   -0.766939    0.876340
      8          6           0       -2.994265   -0.358658    1.256872
      9          6           0       -2.969171    1.080929    1.674955
     10          6           0       -4.288198    1.437270    1.183128
     11          6           0       -2.870584    1.282644    3.203634
     12          6           0       -1.956665   -0.720774    0.236874
     13          6           0       -0.487864   -0.551836    0.575506
     14          6           0        0.448460   -0.622915   -0.628374
     15          8           0        0.145264   -1.037569   -1.778458
     16          8           0        1.661655   -0.324729   -0.221200
     17          7           0       -7.045522    2.587290    0.390342
     18          6           0       -6.040419    3.320192    0.850833
     19          6           0       -6.359151    4.714257    0.975115
     20          6           0       -7.667973    4.822063    0.463940
     21          6           0       -8.141197    3.468806    0.178233
     22          6           0       -5.356993    5.866130    1.398704
     23          6           0       -8.517514    6.055643    0.331587
     24          6           0       -8.013308    7.283989    0.197903
     25          7           0       -9.070150    0.631756   -0.525126
     26          6           0       -9.823306    1.823910   -0.620451
     27          6           0      -11.162612    1.435218   -0.977382
     28          6           0      -11.230659    0.149415   -1.259164
     29          6           0       -9.864513   -0.357076   -0.953679
     30          6           0      -12.128567    2.464443   -1.327577
     31          6           0      -12.306611   -0.714130   -1.840199
     32          6           0      -12.329755   -0.997867   -3.346611
     33          7           0       -7.223077   -1.419707   -0.134020
     34          6           0       -8.224446   -2.215172   -0.575907
     35          6           0       -7.778069   -3.589141   -0.583502
     36          6           0       -6.472704   -3.621770   -0.123171
     37          6           0       -6.184012   -2.212488    0.082935
     38          6           0       -8.620488   -4.790613   -0.885442
     39          6           0       -5.274156   -4.382104    0.223756
     40          8           0       -5.146510   -5.576329    0.193169
     41          6           0       -4.070630   -3.310544    0.577869
     42          6           0       -3.556498   -3.666515    1.870104
     43          8           0       -3.795099   -3.179166    2.954156
     44          8           0       -2.753809   -4.788641    1.718568
     45          6           0       -2.172980   -5.341445    2.884509
     46          6           0        2.766072   -0.497967   -1.264321
     47          6           0        4.086312   -0.219885   -0.583765
     48          6           0        5.127360    0.548485   -1.074719
     49          6           0        5.077485    1.317982   -2.383294
     50          6           0        6.435023    0.497277   -0.321493
     51          6           0        7.606575   -0.148342   -0.968240
     52          6           0        8.889621   -0.165703   -0.170687
     53          6           0       10.122425   -0.564969   -0.872481
     54          6           0       10.108293   -2.071741   -1.216237
     55          6           0       11.295928   -0.278543   -0.114421
     56          6           0       12.682136   -0.502410   -0.725247
     57          6           0       13.902712   -0.100323    0.183242
     58          6           0       15.274652   -0.189256   -0.416569
     59          6           0       15.577158   -1.656426   -0.922864
     60          6           0       16.365479    0.369177    0.542854
     61          6           0       17.689972    0.543718   -0.175223
     62          6           0       18.768560    1.057591    0.782040
     63          6           0       20.085204    1.293002    0.209040
     64          6           0       20.167812    2.045043   -1.150471
     65          6           0       21.047131    2.009850    1.352253
     66          1           0       -4.067034    3.386245    1.567233
     67          1           0       -9.920538    3.974399   -0.526604
     68          1           0      -10.297803   -2.360596   -1.201810
     69          1           0       -2.778693   -0.985983    2.231470
     70          1           0       -2.173456    1.698983    1.222238
     71          1           0       -1.935096    0.896606    3.680459
     72          1           0       -2.934560    2.307841    3.434550
     73          1           0       -3.763105    0.886470    3.805581
     74          1           0       -2.016281   -1.553185   -0.431027
     75          1           0       -2.200551   -0.085034   -0.728153
     76          1           0       -0.244431    0.258162    1.390666
     77          1           0       -0.055671   -1.576612    1.019880
     78          1           0       -4.729382    6.217515    0.537147
     79          1           0       -5.841900    6.598082    1.986610
     80          1           0       -4.519849    5.391596    2.012008
     81          1           0       -9.472960    5.768791    0.423016
     82          1           0       -8.809828    8.108814    0.064900
     83          1           0       -6.827810    7.522152    0.042104
     84          1           0      -12.186846    2.798361   -2.601624
     85          1           0      -13.253738    1.826525   -0.883102
     86          1           0      -11.999748    3.600297   -0.795298
     87          1           0      -12.503831   -1.628136   -1.219028
     88          1           0      -13.247581   -0.109629   -1.514897
     89          1           0      -13.222110   -1.442646   -3.671086
     90          1           0      -12.179780    0.051393   -3.800635
     91          1           0      -11.341651   -1.622101   -3.566019
     92          1           0       -9.095889   -4.523466   -1.792708
     93          1           0       -8.027394   -5.743889   -1.243890
     94          1           0       -9.392704   -5.187934   -0.262129
     95          1           0       -3.273500   -3.619469   -0.185880
     96          1           0       -1.396826   -4.631364    3.302238
     97          1           0       -3.021627   -5.386543    3.656694
     98          1           0       -1.724540   -6.165335    2.626412
     99          1           0        2.696273   -1.570232   -1.687071
    100          1           0        2.670181    0.327947   -2.015618
    101          1           0        4.152808   -0.827543    0.455067
    102          1           0        4.090121    1.332146   -2.815390
    103          1           0        5.102793    2.452142   -2.275925
    104          1           0        6.052024    1.086136   -3.203741
    105          1           0        6.553955    1.605084   -0.211420
    106          1           0        6.154631    0.149763    0.817081
    107          1           0        7.217206   -1.302448   -1.083407
    108          1           0        7.708892    0.237423   -1.958811
    109          1           0        8.971268    0.894808    0.246293
    110          1           0        8.640117   -0.882951    0.588334
    111          1           0       10.368341   -0.083421   -1.989413
    112          1           0        9.209637   -2.186000   -1.879202
    113          1           0       10.906774   -2.151516   -2.194129
    114          1           0       10.457279   -2.976225   -0.408944
    115          1           0       11.168171    0.703945    0.529676
    116          1           0       11.445925   -0.982156    0.739690
    117          1           0       12.767817   -1.597634   -0.808680
    118          1           0       12.920674   -0.052068   -1.685099
    119          1           0       13.696094    0.897377    0.636036
    120          1           0       13.819012   -0.801243    1.216285
    121          1           0       15.497380    0.499120   -1.399568
    122          1           0       15.672304   -2.172323    0.075314
    123          1           0       14.826463   -2.160488   -1.586810
    124          1           0       16.550491   -1.732070   -1.310913
    125          1           0       16.017035    1.257171    0.976546
    126          1           0       16.389847   -0.230787    1.406560
    127          1           0       18.151584   -0.406479   -0.544030
    128          1           0       17.527184    1.187239   -0.952766
    129          1           0       18.226335    2.005977    1.154311
    130          1           0       18.872614    0.498743    2.014675
    131          1           0       20.627977    0.464888    0.068643
    132          1           0       19.462106    2.974441   -1.155896
    133          1           0       21.291896    2.408279   -1.311486
    134          1           0       19.613269    1.459528   -2.063523
    135          1           0       20.898436    1.525441    2.195156
    136          1           0       22.137956    2.066503    0.982540
    137          1           0       20.716800    3.073466    1.362070
 ---------------------------------------------------------------------

 SCF Done:  E(RCAM-B3LYP) =  -2932.62644857     A.U. after   16 cycles

 Excitation energies and oscillator strengths:

 Excited State   1:      Singlet-A      2.0769 eV  596.97 nm  f=0.2662  <S**2>=0.000
     240 -> 243       -0.25388
     241 -> 242        0.65392
 This state for optimization and/or second-order correction.
 Total Energy, E(TD-HF/TD-KS) =  -2932.55012423
 Copying the excited state density for this state as the 1-particle RhoCI density.

 The electronic state is 1-A.
 Alpha  occ. eigenvalues --  -46.84506 -19.26793 -19.24615 -19.20970 -19.20586
 Alpha  occ. eigenvalues --  -19.19925 -14.40435 -14.39757 -14.39470 -14.39466
 Alpha  occ. eigenvalues --  -10.39235 -10.38434 -10.35889 -10.33587 -10.31037
 Alpha  occ. eigenvalues --  -10.30041 -10.29740 -10.29636 -10.29496 -10.29326
 Alpha  occ. eigenvalues --  -10.29224 -10.29182 -10.29110 -10.29097 -10.29051
 Alpha  occ. eigenvalues --  -10.28989 -10.28971 -10.28883 -10.28784 -10.28249
 Alpha  occ. eigenvalues --  -10.28115 -10.27932 -10.27600 -10.27450 -10.27424
 Alpha  occ. eigenvalues --  -10.27381 -10.27305 -10.27297 -10.27249 -10.27243
 Alpha  occ. eigenvalues --  -10.27226 -10.27224 -10.27174 -10.26989 -10.26963
 Alpha  occ. eigenvalues --  -10.26962 -10.26674 -10.26668 -10.26620 -10.26337
 Alpha  occ. eigenvalues --  -10.26218 -10.25856 -10.25825 -10.25737 -10.25698
 Alpha  occ. eigenvalues --  -10.25628 -10.25588 -10.25376 -10.25304 -10.25212
 Alpha  occ. eigenvalues --  -10.24811 -10.24535 -10.24444 -10.24432 -10.24080
 Alpha  occ. eigenvalues --   -3.13537  -1.88249  -1.87785  -1.87701  -1.17430
 Alpha  occ. eigenvalues --   -1.16742  -1.12175  -1.08527  -1.06514  -1.06033
 Alpha  occ. eigenvalues --   -1.04967  -1.03477  -1.02629  -0.92512  -0.92442
 Alpha  occ. eigenvalues --   -0.90854  -0.90418  -0.90003  -0.89322  -0.89016
 Alpha  occ. eigenvalues --   -0.88216  -0.88148  -0.88048  -0.87277  -0.86239
 Alpha  occ. eigenvalues --   -0.85444  -0.84424  -0.83753  -0.83216  -0.82733
 Alpha  occ. eigenvalues --   -0.81802  -0.81426  -0.80459  -0.79782  -0.78272
 Alpha  occ. eigenvalues --   -0.77554  -0.76601  -0.76373  -0.76090  -0.75303
 Alpha  occ. eigenvalues --   -0.74665  -0.74463  -0.74070  -0.73368  -0.72766
 Alpha  occ. eigenvalues --   -0.71724  -0.70623  -0.69574  -0.69256  -0.68659
 Alpha  occ. eigenvalues --   -0.67450  -0.67154  -0.65611  -0.65335  -0.64778
 Alpha  occ. eigenvalues --   -0.64380  -0.63120  -0.62192  -0.62073  -0.61437
 Alpha  occ. eigenvalues --   -0.61121  -0.60464  -0.60002  -0.59258  -0.59085
 Alpha  occ. eigenvalues --   -0.58782  -0.58332  -0.57730  -0.56956  -0.56351
 Alpha  occ. eigenvalues --   -0.56193  -0.55251  -0.55146  -0.55016  -0.54446
 Alpha  occ. eigenvalues --   -0.54401  -0.54063  -0.53879  -0.53152  -0.53070
 Alpha  occ. eigenvalues --   -0.52867  -0.52431  -0.52312  -0.51786  -0.51597
 Alpha  occ. eigenvalues --   -0.51154  -0.51116  -0.50974  -0.50789  -0.50673
 Alpha  occ. eigenvalues --   -0.50612  -0.50213  -0.50002  -0.49714  -0.49391
 Alpha  occ. eigenvalues --   -0.49360  -0.49191  -0.48969  -0.48775  -0.48473
 Alpha  occ. eigenvalues --   -0.48104  -0.47988  -0.47693  -0.47528  -0.47320
 Alpha  occ. eigenvalues --   -0.46789  -0.46655  -0.46443  -0.46293  -0.45811
 Alpha  occ. eigenvalues --   -0.45289  -0.45181  -0.45068  -0.45049  -0.44913
 Alpha  occ. eigenvalues --   -0.44719  -0.44215  -0.44057  -0.44022  -0.43707
 Alpha  occ. eigenvalues --   -0.43589  -0.43397  -0.43338  -0.43287  -0.43027
 Alpha  occ. eigenvalues --   -0.42861  -0.42821  -0.42587  -0.42426  -0.42234
 Alpha  occ. eigenvalues --   -0.42190  -0.42016  -0.41778  -0.41670  -0.41560
 Alpha  occ. eigenvalues --   -0.41287  -0.40902  -0.40630  -0.40571  -0.40313
 Alpha  occ. eigenvalues --   -0.40085  -0.39989  -0.39852  -0.39544  -0.38950
 Alpha  occ. eigenvalues --   -0.38882  -0.38677  -0.38478  -0.38011  -0.37546
 Alpha  occ. eigenvalues --   -0.37100  -0.36960  -0.36811  -0.36259  -0.36074
 Alpha  occ. eigenvalues --   -0.35944  -0.35889  -0.35754  -0.35251  -0.35176
 Alpha  occ. eigenvalues --   -0.34976  -0.34502  -0.34272  -0.33449  -0.33099
 Alpha  occ. eigenvalues --   -0.33095  -0.32680  -0.32545  -0.31073  -0.30100
 Alpha  occ. eigenvalues --   -0.30088  -0.29670  -0.28986  -0.27752  -0.23064
 Alpha  occ. eigenvalues --   -0.21389
 Alpha virt. eigenvalues --   -0.06549  -0.03019   0.01947   0.04139   0.04315
 Alpha virt. eigenvalues --    0.05812   0.06115   0.06514   0.06884   0.07285
 Alpha virt. eigenvalues --    0.08935   0.09233   0.10804   0.10881   0.11019

 Mulliken charges:
               1
     1  Mg   0.829892
     2  C    0.057821
     3  C   -0.194911
     4  C   -0.122826
     5  C   -0.178246
     6  N   -0.662296
     7  C    0.349525
     8  C   -0.194620
     9  C   -0.133722
    10  C    0.367158
    11  C   -0.315695
    12  C   -0.175419
    13  C   -0.253484
    14  C    0.614370
    15  O   -0.519135
    16  O   -0.473250
    17  N   -0.724220
    18  C    0.337595
    19  C   -0.002013
    20  C   -0.026166
    21  C    0.262993
    22  C   -0.369784
    23  C   -0.024217
    24  C   -0.261739
    25  N   -0.689090
    26  C    0.268811
    27  C    0.036582
    28  C    0.064096
    29  C    0.276617
    30  C   -0.324824
    31  C   -0.250642
    32  C   -0.286794
    33  N   -0.720963
    34  C    0.319892
    35  C   -0.032890
    36  C    0.070788
    37  C    0.281124
    38  C   -0.382757
    39  C    0.350798
    40  O   -0.430311
    41  C   -0.324108
    42  C    0.652158
    43  O   -0.482506
    44  O   -0.478270
    45  C   -0.060291
    46  C    0.013416
    47  C   -0.135544
    48  C    0.121194
    49  C   -0.363239
    50  C   -0.213821
    51  C   -0.166744
    52  C   -0.159273
    53  C   -0.029076
    54  C   -0.307118
    55  C   -0.157433
    56  C   -0.190200
    57  C   -0.167965
    58  C   -0.054458
    59  C   -0.311905
    60  C   -0.179156
    61  C   -0.180497
    62  C   -0.145472
    63  C   -0.049726
    64  C   -0.307952
    65  C   -0.318836
    66  H    0.051162
    67  H    0.072181
    68  H    0.094613
    69  H    0.117781
    70  H    0.117813
    71  H    0.107184
    72  H    0.112084
    73  H    0.118740
    74  H    0.133505
    75  H    0.092255
    76  H    0.122583
    77  H    0.125795
    78  H    0.126221
    79  H    0.137357
    80  H    0.105249
    81  H    0.093760
    82  H    0.099565
    83  H    0.113484
    84  H    0.089209
    85  H    0.064589
    86  H    0.088571
    87  H    0.104054
    88  H    0.082941
    89  H    0.123189
    90  H    0.107228
    91  H    0.096652
    92  H    0.121758
    93  H    0.124724
    94  H    0.139521
    95  H    0.173118
    96  H    0.101335
    97  H    0.125196
    98  H    0.127986
    99  H    0.147518
   100  H    0.124216
   101  H    0.091610
   102  H    0.120421
   103  H    0.118176
   104  H    0.100526
   105  H    0.093044
   106  H    0.082437
   107  H    0.074626
   108  H    0.097993
   109  H    0.088884
   110  H    0.112230
   111  H    0.067502
   112  H    0.111226
   113  H    0.067932
   114  H    0.096474
   115  H    0.065255
   116  H    0.086856
   117  H    0.107777
   118  H    0.091464
   119  H    0.089700
   120  H    0.050500
   121  H    0.051703
   122  H    0.091597
   123  H    0.106752
   124  H    0.107915
   125  H    0.098729
   126  H    0.097063
   127  H    0.095085
   128  H    0.111446
   129  H    0.077056
   130  H    0.034396
   131  H    0.112960
   132  H    0.090043
   133  H    0.097394
   134  H    0.086638
   135  H    0.114833
   136  H    0.085162
   137  H    0.102229
 Sum of Mulliken charges =   0.00000

 Dipole moment (field-independent basis, Debye):
    X=              2.2577    Y=              4.4964    Z=             -0.2465  Tot=              5.0375
 Quadrupole moment (field-independent basis, Debye-Ang):
   XX=           -349.2079   YY=           -393.7055   ZZ=           -401.3582
   XY=            -16.0383   XZ=              7.7539   YZ=             -1.1474

 Normal termination of Gaussian 09 at Mon Jul  1 07:54:58 2019.
