 Gaussian 09, Revision D.01,
 Gaussian 09:  ES64L-G09RevD.01 24-Apr-2013

 -------------------------------------
 # td=(NStates=1) CAM-B3LYP/6-31G(d,p)
 -------------------------------------

 --
 TD
 --
 Symbolic Z-matrix:
 Charge =  0 Multiplicity = 1

                         Standard orientation:
 ---------------------------------------------------------------------
 Center     Atomic      Atomic             Coordinates (Angstroms)
 Number     Number       Type             X           Y           Z
 ---------------------------------------------------------------------
      1         12           0       -7.138077    0.491568    0.005609
      2          6           0       -4.842063   -1.997489    0.402438
      3          6           0       -4.986531    2.779441    1.280415
      4          6           0       -9.599514    3.029588   -0.337759
      5          6           0       -9.481480   -1.853283   -0.979723
      6          7           0       -5.184756    0.408421    0.730111
      7          6           0       -4.375194   -0.637385    0.764108
      8          6           0       -3.026000   -0.350277    1.289984
      9          6           0       -3.094425    1.098388    1.640793
     10          6           0       -4.488190    1.449386    1.217398
     11          6           0       -2.880126    1.397213    3.205445
     12          6           0       -1.892151   -0.536944    0.186465
     13          6           0       -0.442258   -0.204009    0.577166
     14          6           0        0.494373   -0.561777   -0.600309
     15          8           0        0.179937   -1.059580   -1.618526
     16          8           0        1.825469   -0.160911   -0.237608
     17          7           0       -7.154975    2.629826    0.340352
     18          6           0       -6.184847    3.351919    0.837378
     19          6           0       -6.599451    4.711507    0.946393
     20          6           0       -7.919304    4.819139    0.429127
     21          6           0       -8.305560    3.397513    0.159015
     22          6           0       -5.709204    5.966629    1.420163
     23          6           0       -8.757963    5.880389    0.409541
     24          6           0       -8.504044    7.168654    0.079942
     25          7           0       -9.186989    0.576810   -0.541136
     26          6           0       -9.900750    1.627534   -0.541680
     27          6           0      -11.202972    1.261458   -1.186852
     28          6           0      -11.240655   -0.008869   -1.444814
     29          6           0       -9.920902   -0.484338   -1.010471
     30          6           0      -12.385404    2.211513   -1.229915
     31          6           0      -12.270341   -0.832127   -1.894867
     32          6           0      -12.180059   -1.001092   -3.430880
     33          7           0       -7.276521   -1.464569   -0.088813
     34          6           0       -8.202092   -2.250496   -0.587974
     35          6           0       -7.773367   -3.597249   -0.635363
     36          6           0       -6.452503   -3.667472   -0.076045
     37          6           0       -6.185015   -2.269607    0.172641
     38          6           0       -8.510876   -4.879733   -1.150950
     39          6           0       -5.294310   -4.472054    0.203107
     40          8           0       -5.059251   -5.606475    0.120674
     41          6           0       -4.154126   -3.331987    0.693910
     42          6           0       -3.486159   -3.645559    1.996870
     43          8           0       -3.588275   -3.040224    2.990433
     44          8           0       -2.688838   -4.717277    1.879669
     45          6           0       -1.959512   -4.982415    3.130423
     46          6           0        2.764491   -0.529693   -1.207544
     47          6           0        4.128502   -0.287066   -0.626122
     48          6           0        5.179368    0.421220   -1.052573
     49          6           0        5.217001    1.453210   -2.149502
     50          6           0        6.473238    0.298878   -0.123403
     51          6           0        7.767150   -0.021164   -0.950539
     52          6           0        8.898996   -0.097655    0.070448
     53          6           0       10.174504   -0.474171   -0.674390
     54          6           0       10.100030   -1.951064   -1.170650
     55          6           0       11.509746   -0.239864    0.111800
     56          6           0       12.874229   -0.585933   -0.636939
     57          6           0       13.971871   -0.130959    0.171600
     58          6           0       15.288029   -0.206389   -0.525106
     59          6           0       15.714589   -1.661339   -0.735901
     60          6           0       16.467177    0.413116    0.309137
     61          6           0       17.862952    0.629048   -0.344035
     62          6           0       18.877481    1.159154    0.755282
     63          6           0       20.275970    1.313197    0.068214
     64          6           0       20.352892    2.119145   -1.279307
     65          6           0       21.276608    1.831493    1.081672
     66          1           0       -4.288951    3.678749    1.680870
     67          1           0      -10.110741    3.883809   -0.419590
     68          1           0      -10.261120   -2.493528   -1.385260
     69          1           0       -2.774817   -0.844423    2.236734
     70          1           0       -2.444671    1.780702    1.348400
     71          1           0       -1.920171    1.094143    3.493854
     72          1           0       -3.066278    2.298517    3.342897
     73          1           0       -3.705116    0.953656    3.752333
     74          1           0       -1.923508   -1.432964   -0.191498
     75          1           0       -2.206823    0.095428   -0.802562
     76          1           0       -0.322681    0.851535    0.763372
     77          1           0       -0.083136   -0.737362    1.444454
     78          1           0       -5.331795    6.437014    0.401488
     79          1           0       -6.285490    6.721083    1.773144
     80          1           0       -4.835070    5.587925    2.027361
     81          1           0       -9.784933    5.553215    0.264862
     82          1           0       -9.366628    7.887120   -0.136441
     83          1           0       -7.369524    7.484276    0.068186
     84          1           0      -12.351243    2.834324   -1.998371
     85          1           0      -13.398158    1.760571   -1.398338
     86          1           0      -12.510834    2.904204   -0.400293
     87          1           0      -12.454781   -1.845036   -1.277402
     88          1           0      -13.180361   -0.240146   -1.704070
     89          1           0      -12.983644   -1.601214   -3.707371
     90          1           0      -12.350614   -0.126330   -3.894797
     91          1           0      -11.190046   -1.249346   -3.857355
     92          1           0       -8.718494   -4.899092   -2.239554
     93          1           0       -7.965235   -5.690080   -0.853882
     94          1           0       -9.542677   -4.687915   -0.787030
     95          1           0       -3.305535   -3.372075    0.010139
     96          1           0       -1.325908   -4.286247    3.605394
     97          1           0       -2.597947   -5.158370    4.080425
     98          1           0       -1.383532   -5.923174    2.930613
     99          1           0        2.572221   -1.490544   -1.560577
    100          1           0        2.541314    0.081043   -2.194542
    101          1           0        4.357135   -0.910005    0.246025
    102          1           0        4.285923    1.784010   -2.458393
    103          1           0        5.584480    2.289844   -1.692306
    104          1           0        5.901258    0.871607   -3.099081
    105          1           0        6.483542    1.319464    0.256795
    106          1           0        6.201636   -0.333606    0.587955
    107          1           0        7.737816   -1.111904   -1.408748
    108          1           0        7.978912    0.663146   -1.729350
    109          1           0        9.168118    0.784108    0.358558
    110          1           0        8.521800   -0.854637    0.885540
    111          1           0       10.230964   -0.053871   -1.716908
    112          1           0        9.381769   -2.198297   -1.922326
    113          1           0       11.033173   -2.427135   -1.420238
    114          1           0        9.749156   -2.428161   -0.256399
    115          1           0       11.584928    0.798700    0.647074
    116          1           0       11.520182   -0.745721    0.998275
    117          1           0       12.688798   -1.759877   -0.903223
    118          1           0       12.884081    0.178750   -1.642688
    119          1           0       13.591876    0.993633    0.430580
    120          1           0       14.113380   -0.710314    1.017037
    121          1           0       15.194832    0.317919   -1.590662
    122          1           0       15.430125   -2.379035    0.216342
    123          1           0       15.068929   -2.326058   -1.592524
    124          1           0       16.768064   -1.952321   -0.886962
    125          1           0       16.061395    1.496279    0.537259
    126          1           0       16.353510   -0.099855    1.333027
    127          1           0       18.173765   -0.512734   -0.554155
    128          1           0       17.782920    1.280766   -1.182493
    129          1           0       18.616185    2.249835    0.870710
    130          1           0       18.899203    0.556684    1.720054
    131          1           0       20.307837    0.110889   -0.288327
    132          1           0       19.998775    3.165186   -0.992342
    133          1           0       21.313712    2.164429   -1.725741
    134          1           0       19.798879    1.676048   -1.947030
    135          1           0       21.288260    1.276963    1.946906
    136          1           0       22.317286    1.804539    0.702320
    137          1           0       21.010496    2.699148    1.448240
 ---------------------------------------------------------------------

 SCF Done:  E(RCAM-B3LYP) =  -2932.58511483     A.U. after   18 cycles

 Excitation energies and oscillator strengths:

 Excited State   1:      Singlet-A      1.9403 eV  638.99 nm  f=0.2882  <S**2>=0.000
     240 -> 243        0.23911
     241 -> 242        0.65263
 This state for optimization and/or second-order correction.
 Total Energy, E(TD-HF/TD-KS) =  -2932.51380937
 Copying the excited state density for this state as the 1-particle RhoCI density.

 The electronic state is 1-A.
 Alpha  occ. eigenvalues --  -46.85437 -19.26402 -19.25321 -19.23221 -19.21031
 Alpha  occ. eigenvalues --  -19.20409 -14.42723 -14.39746 -14.39219 -14.39156
 Alpha  occ. eigenvalues --  -10.39987 -10.38245 -10.35426 -10.31425 -10.31417
 Alpha  occ. eigenvalues --  -10.31248 -10.30903 -10.29752 -10.29393 -10.29199
 Alpha  occ. eigenvalues --  -10.28875 -10.28751 -10.28599 -10.28355 -10.28060
 Alpha  occ. eigenvalues --  -10.27784 -10.27477 -10.27468 -10.27379 -10.27305
 Alpha  occ. eigenvalues --  -10.27285 -10.27264 -10.27181 -10.27121 -10.27075
 Alpha  occ. eigenvalues --  -10.27034 -10.26977 -10.26904 -10.26903 -10.26847
 Alpha  occ. eigenvalues --  -10.26630 -10.26604 -10.26444 -10.26358 -10.26331
 Alpha  occ. eigenvalues --  -10.26218 -10.26188 -10.26179 -10.26155 -10.26032
 Alpha  occ. eigenvalues --  -10.25640 -10.25263 -10.25210 -10.25152 -10.25067
 Alpha  occ. eigenvalues --  -10.25053 -10.24853 -10.24498 -10.24460 -10.24329
 Alpha  occ. eigenvalues --  -10.23939 -10.23753 -10.23659 -10.23403 -10.22483
 Alpha  occ. eigenvalues --   -3.14385  -1.89097  -1.88629  -1.88549  -1.19186
 Alpha  occ. eigenvalues --   -1.18368  -1.14399  -1.11103  -1.09924  -1.06798
 Alpha  occ. eigenvalues --   -1.05608  -1.04468  -1.03576  -0.91891  -0.91274
 Alpha  occ. eigenvalues --   -0.90857  -0.90838  -0.90426  -0.90177  -0.88941
 Alpha  occ. eigenvalues --   -0.88413  -0.87776  -0.87190  -0.86294  -0.85858
 Alpha  occ. eigenvalues --   -0.84729  -0.83830  -0.83563  -0.82622  -0.82340
 Alpha  occ. eigenvalues --   -0.81437  -0.80833  -0.80126  -0.79730  -0.78864
 Alpha  occ. eigenvalues --   -0.78225  -0.77586  -0.76979  -0.76768  -0.76201
 Alpha  occ. eigenvalues --   -0.75460  -0.75002  -0.73805  -0.73484  -0.72394
 Alpha  occ. eigenvalues --   -0.72154  -0.71496  -0.70762  -0.69260  -0.68727
 Alpha  occ. eigenvalues --   -0.67827  -0.66894  -0.66435  -0.65534  -0.64198
 Alpha  occ. eigenvalues --   -0.63811  -0.63316  -0.63096  -0.62629  -0.61733
 Alpha  occ. eigenvalues --   -0.61331  -0.61041  -0.60187  -0.59425  -0.59322
 Alpha  occ. eigenvalues --   -0.58972  -0.58628  -0.57736  -0.57183  -0.56984
 Alpha  occ. eigenvalues --   -0.56530  -0.55665  -0.55548  -0.55272  -0.55140
 Alpha  occ. eigenvalues --   -0.54854  -0.54494  -0.54276  -0.53896  -0.53722
 Alpha  occ. eigenvalues --   -0.53047  -0.52800  -0.52049  -0.51741  -0.51464
 Alpha  occ. eigenvalues --   -0.51352  -0.51199  -0.51010  -0.50830  -0.50732
 Alpha  occ. eigenvalues --   -0.50496  -0.50308  -0.50173  -0.50010  -0.49769
 Alpha  occ. eigenvalues --   -0.49459  -0.49176  -0.49066  -0.48838  -0.48789
 Alpha  occ. eigenvalues --   -0.48571  -0.48100  -0.48091  -0.47724  -0.47512
 Alpha  occ. eigenvalues --   -0.47422  -0.47331  -0.46720  -0.46636  -0.46156
 Alpha  occ. eigenvalues --   -0.46075  -0.45929  -0.45791  -0.45523  -0.45371
 Alpha  occ. eigenvalues --   -0.45294  -0.45227  -0.44924  -0.44766  -0.44415
 Alpha  occ. eigenvalues --   -0.44269  -0.44184  -0.43652  -0.43567  -0.43438
 Alpha  occ. eigenvalues --   -0.43254  -0.43183  -0.43107  -0.42977  -0.42891
 Alpha  occ. eigenvalues --   -0.42836  -0.42285  -0.42123  -0.41890  -0.41524
 Alpha  occ. eigenvalues --   -0.41332  -0.41298  -0.41104  -0.40910  -0.40538
 Alpha  occ. eigenvalues --   -0.40264  -0.40067  -0.39962  -0.39828  -0.39545
 Alpha  occ. eigenvalues --   -0.39324  -0.39042  -0.38562  -0.38492  -0.38109
 Alpha  occ. eigenvalues --   -0.37683  -0.37476  -0.37094  -0.37017  -0.36725
 Alpha  occ. eigenvalues --   -0.36380  -0.36083  -0.35737  -0.35705  -0.35315
 Alpha  occ. eigenvalues --   -0.34809  -0.34729  -0.34429  -0.33950  -0.33668
 Alpha  occ. eigenvalues --   -0.33123  -0.32888  -0.32298  -0.30363  -0.29767
 Alpha  occ. eigenvalues --   -0.29505  -0.29361  -0.28890  -0.26307  -0.22959
 Alpha  occ. eigenvalues --   -0.20380
 Alpha virt. eigenvalues --   -0.06365  -0.02882   0.01122   0.03922   0.04649
 Alpha virt. eigenvalues --    0.06236   0.07066   0.07318   0.07503   0.07606
 Alpha virt. eigenvalues --    0.08427   0.10654   0.11418   0.11636   0.12053

 Mulliken charges:
               1
     1  Mg   0.844681
     2  C   -0.001348
     3  C   -0.218723
     4  C   -0.096528
     5  C   -0.160069
     6  N   -0.621176
     7  C    0.313344
     8  C   -0.173153
     9  C   -0.134893
    10  C    0.338265
    11  C   -0.318005
    12  C   -0.168669
    13  C   -0.270752
    14  C    0.605459
    15  O   -0.422528
    16  O   -0.499455
    17  N   -0.709440
    18  C    0.366890
    19  C   -0.033829
    20  C    0.040080
    21  C    0.242780
    22  C   -0.354059
    23  C   -0.093720
    24  C   -0.253241
    25  N   -0.654410
    26  C    0.307858
    27  C   -0.033775
    28  C    0.126811
    29  C    0.221413
    30  C   -0.390340
    31  C   -0.281324
    32  C   -0.315493
    33  N   -0.741793
    34  C    0.337745
    35  C   -0.031874
    36  C    0.012380
    37  C    0.264009
    38  C   -0.350344
    39  C    0.352862
    40  O   -0.402889
    41  C   -0.326524
    42  C    0.613458
    43  O   -0.456141
    44  O   -0.445934
    45  C   -0.100151
    46  C    0.018429
    47  C   -0.138056
    48  C    0.087394
    49  C   -0.332981
    50  C   -0.210280
    51  C   -0.187420
    52  C   -0.142978
    53  C   -0.076685
    54  C   -0.328869
    55  C   -0.193304
    56  C   -0.151480
    57  C   -0.133087
    58  C   -0.054926
    59  C   -0.299057
    60  C   -0.171686
    61  C   -0.173277
    62  C   -0.166774
    63  C   -0.054259
    64  C   -0.302736
    65  C   -0.309084
    66  H    0.062576
    67  H    0.071708
    68  H    0.095471
    69  H    0.149214
    70  H    0.116366
    71  H    0.112302
    72  H    0.116107
    73  H    0.118600
    74  H    0.126414
    75  H    0.092822
    76  H    0.141797
    77  H    0.143230
    78  H    0.109924
    79  H    0.137306
    80  H    0.110436
    81  H    0.079629
    82  H    0.111027
    83  H    0.091919
    84  H    0.130279
    85  H    0.102043
    86  H    0.116723
    87  H    0.094453
    88  H    0.103235
    89  H    0.108960
    90  H    0.122166
    91  H    0.111423
    92  H    0.123665
    93  H    0.146576
    94  H    0.116970
    95  H    0.152958
    96  H    0.134386
    97  H    0.119506
    98  H    0.121697
    99  H    0.129215
   100  H    0.084459
   101  H    0.076477
   102  H    0.121947
   103  H    0.122979
   104  H    0.089797
   105  H    0.104477
   106  H    0.102349
   107  H    0.087794
   108  H    0.107627
   109  H    0.104145
   110  H    0.085138
   111  H    0.086989
   112  H    0.107020
   113  H    0.098297
   114  H    0.093546
   115  H    0.062704
   116  H    0.103207
   117  H    0.088790
   118  H    0.060208
   119  H    0.079337
   120  H    0.098734
   121  H    0.068497
   122  H    0.067863
   123  H    0.069607
   124  H    0.113914
   125  H    0.064817
   126  H    0.081675
   127  H    0.076999
   128  H    0.116230
   129  H    0.082685
   130  H    0.101668
   131  H    0.040627
   132  H    0.085597
   133  H    0.109925
   134  H    0.114892
   135  H    0.103030
   136  H    0.096505
   137  H    0.112004
 Sum of Mulliken charges =   0.00000

 Dipole moment (field-independent basis, Debye):
    X=              1.2600    Y=              4.7861    Z=              0.2268  Tot=              4.9544
 Quadrupole moment (field-independent basis, Debye-Ang):
   XX=           -345.2458   YY=           -399.5407   ZZ=           -394.5189
   XY=            -17.3694   XZ=             23.6389   YZ=             -3.7210

 Normal termination of Gaussian 09 at Mon Jul  1 10:47:24 2019.
