 Gaussian 09, Revision D.01,
 Gaussian 09:  ES64L-G09RevD.01 24-Apr-2013

 -------------------------------------
 # td=(NStates=1) CAM-B3LYP/6-31G(d,p)
 -------------------------------------

 --
 TD
 --
 Symbolic Z-matrix:
 Charge =  0 Multiplicity = 1

                         Standard orientation:
 ---------------------------------------------------------------------
 Center     Atomic      Atomic             Coordinates (Angstroms)
 Number     Number       Type             X           Y           Z
 ---------------------------------------------------------------------
      1         12           0       -7.098401    0.648277    0.088589
      2          6           0       -4.829715   -1.925018    0.453727
      3          6           0       -4.741617    2.916327    1.104947
      4          6           0       -9.279450    3.026115   -0.436432
      5          6           0       -9.554446   -1.837907   -0.737758
      6          7           0       -5.070671    0.391828    0.787983
      7          6           0       -4.334232   -0.691912    0.799699
      8          6           0       -2.922508   -0.336407    1.174359
      9          6           0       -3.049326    1.036328    1.626882
     10          6           0       -4.362273    1.493524    1.145807
     11          6           0       -2.938516    1.197568    3.230955
     12          6           0       -2.054207   -0.615170    0.052181
     13          6           0       -0.465374   -0.463905    0.381286
     14          6           0        0.506257   -0.557963   -0.686324
     15          8           0        0.238283   -0.856148   -1.878474
     16          8           0        1.703709   -0.307319   -0.269819
     17          7           0       -7.083525    2.589618    0.263377
     18          6           0       -6.025038    3.417276    0.670951
     19          6           0       -6.456240    4.799924    0.881301
     20          6           0       -7.796726    4.787809    0.450689
     21          6           0       -8.159005    3.461582    0.070782
     22          6           0       -5.634410    5.953181    1.353682
     23          6           0       -8.696924    5.838238    0.453323
     24          6           0       -8.444657    7.221848    0.222100
     25          7           0       -9.142306    0.660601   -0.486578
     26          6           0       -9.859303    1.794765   -0.678132
     27          6           0      -11.225183    1.389494   -1.119490
     28          6           0      -11.280124    0.075245   -1.238684
     29          6           0       -9.993768   -0.492958   -0.773512
     30          6           0      -12.250418    2.396597   -1.266235
     31          6           0      -12.418640   -0.782246   -1.711144
     32          6           0      -12.252985   -1.251540   -3.160046
     33          7           0       -7.223406   -1.439287   -0.023495
     34          6           0       -8.264468   -2.374184   -0.410923
     35          6           0       -7.818985   -3.651371   -0.481448
     36          6           0       -6.493855   -3.629445    0.059846
     37          6           0       -6.187816   -2.172929    0.168478
     38          6           0       -8.656004   -4.906330   -0.712833
     39          6           0       -5.258377   -4.355802    0.227794
     40          8           0       -5.087534   -5.582280    0.198153
     41          6           0       -4.100979   -3.294483    0.502280
     42          6           0       -3.487591   -3.657750    1.842885
     43          8           0       -3.663628   -3.186639    2.927320
     44          8           0       -2.611390   -4.545674    1.655891
     45          6           0       -1.916438   -5.020644    2.833782
     46          6           0        2.634889   -0.370866   -1.260736
     47          6           0        4.031942   -0.223126   -0.682525
     48          6           0        5.143452    0.479399   -1.097219
     49          6           0        5.114631    1.242291   -2.420886
     50          6           0        6.411491    0.417709   -0.239149
     51          6           0        7.653101   -0.142368   -0.979611
     52          6           0        8.914784    0.011585   -0.181525
     53          6           0       10.150820   -0.509410   -0.747644
     54          6           0       10.042503   -1.945895   -1.385841
     55          6           0       11.443345   -0.242470    0.029722
     56          6           0       12.740419   -0.561298   -0.721554
     57          6           0       14.007189   -0.129790    0.166037
     58          6           0       15.363167   -0.299635   -0.402480
     59          6           0       15.651549   -1.832870   -0.668642
     60          6           0       16.434974    0.335218    0.480434
     61          6           0       17.851879    0.306279   -0.206115
     62          6           0       18.708726    1.278124    0.741057
     63          6           0       20.174507    1.327954    0.335793
     64          6           0       20.375740    2.100261   -0.976952
     65          6           0       21.170898    2.026880    1.361688
     66          1           0       -3.902353    3.569937    1.396775
     67          1           0      -10.067596    3.760499   -0.609034
     68          1           0      -10.294301   -2.598459   -0.972715
     69          1           0       -2.640280   -1.071805    2.012885
     70          1           0       -2.330373    1.818509    1.255350
     71          1           0       -1.911974    0.821952    3.372653
     72          1           0       -2.877904    2.262666    3.481782
     73          1           0       -3.589634    0.681416    3.638501
     74          1           0       -2.291064   -1.698326   -0.167201
     75          1           0       -2.301810    0.002932   -0.801427
     76          1           0       -0.294664    0.440178    1.040364
     77          1           0       -0.363506   -1.172920    1.248126
     78          1           0       -5.088596    6.365608    0.696715
     79          1           0       -6.214614    6.672010    1.690721
     80          1           0       -5.144785    5.521387    2.215290
     81          1           0       -9.794913    5.504943    0.421986
     82          1           0       -9.299026    7.795580    0.052696
     83          1           0       -7.513814    7.428220   -0.088251
     84          1           0      -12.153003    3.326515   -2.106663
     85          1           0      -13.280738    1.851622   -1.499964
     86          1           0      -12.617536    2.887293   -0.439983
     87          1           0      -12.231000   -1.592420   -1.037912
     88          1           0      -13.464470   -0.374761   -1.502139
     89          1           0      -13.094843   -1.960989   -3.258346
     90          1           0      -12.419622   -0.361501   -3.959664
     91          1           0      -11.353822   -1.834671   -3.245306
     92          1           0       -9.173620   -4.850069   -1.732840
     93          1           0       -7.941215   -5.768107   -0.687612
     94          1           0       -9.446261   -5.071795    0.050600
     95          1           0       -3.360467   -3.475319   -0.293469
     96          1           0       -1.412547   -4.126601    3.122746
     97          1           0       -2.624550   -5.228903    3.754000
     98          1           0       -1.165839   -5.841688    2.628503
     99          1           0        2.487126   -1.431805   -1.778474
    100          1           0        2.596782    0.183551   -2.243903
    101          1           0        4.178831   -0.946749    0.147440
    102          1           0        4.117759    1.679326   -2.691989
    103          1           0        5.947135    2.056583   -2.531849
    104          1           0        5.267765    0.457360   -3.389640
    105          1           0        6.614993    1.467177    0.035423
    106          1           0        6.229110   -0.359357    0.594780
    107          1           0        7.471217   -1.253347   -1.230002
    108          1           0        7.757923    0.410420   -1.904150
    109          1           0        9.050468    1.098466    0.022772
    110          1           0        8.948680   -0.525688    0.768830
    111          1           0       10.141066    0.261292   -1.784657
    112          1           0        9.201569   -2.051594   -2.097649
    113          1           0       11.137882   -2.211810   -1.991688
    114          1           0        9.903751   -2.632616   -0.571364
    115          1           0       11.443337    0.690892    0.347388
    116          1           0       11.541150   -0.797683    0.953751
    117          1           0       12.901654   -1.579292   -0.981828
    118          1           0       12.819598    0.209400   -1.595368
    119          1           0       13.651724    0.869233    0.359023
    120          1           0       13.931553   -0.392415    1.235916
    121          1           0       15.464222    0.127012   -1.365373
    122          1           0       15.578342   -2.635405    0.094120
    123          1           0       14.837854   -2.298859   -1.284420
    124          1           0       16.665858   -2.002652   -1.210150
    125          1           0       16.235531    1.320129    0.631686
    126          1           0       16.519591   -0.345657    1.419379
    127          1           0       18.411928   -0.757703   -0.294370
    128          1           0       17.877713    0.730020   -1.291672
    129          1           0       18.153885    2.250769    0.893181
    130          1           0       18.703291    0.804646    1.706326
    131          1           0       20.651551    0.291701    0.339293
    132          1           0       19.928701    3.168518   -0.992464
    133          1           0       21.395771    2.094391   -1.345740
    134          1           0       19.922782    1.699553   -2.060287
    135          1           0       21.362640    1.518446    2.323575
    136          1           0       22.218649    2.425238    1.116534
    137          1           0       20.676021    3.016435    1.422041
 ---------------------------------------------------------------------

 SCF Done:  E(RCAM-B3LYP) =  -2932.69535818     A.U. after   18 cycles

 Excitation energies and oscillator strengths:

 Excited State   1:      Singlet-A      2.0597 eV  601.96 nm  f=0.2494  <S**2>=0.000
     240 -> 242       -0.24763
     240 -> 243        0.20305
     241 -> 242        0.60074
     241 -> 243        0.16077
 This state for optimization and/or second-order correction.
 Total Energy, E(TD-HF/TD-KS) =  -2932.61966607
 Copying the excited state density for this state as the 1-particle RhoCI density.

 The electronic state is 1-A.
 Alpha  occ. eigenvalues --  -46.84769 -19.28605 -19.26332 -19.20407 -19.19182
 Alpha  occ. eigenvalues --  -19.18630 -14.41682 -14.39869 -14.39849 -14.39009
 Alpha  occ. eigenvalues --  -10.39534 -10.37801 -10.33906 -10.32554 -10.32058
 Alpha  occ. eigenvalues --  -10.31944 -10.31709 -10.29889 -10.29676 -10.29441
 Alpha  occ. eigenvalues --  -10.29391 -10.28764 -10.28639 -10.28440 -10.28384
 Alpha  occ. eigenvalues --  -10.28352 -10.28304 -10.28272 -10.28193 -10.28036
 Alpha  occ. eigenvalues --  -10.27602 -10.27556 -10.27391 -10.27338 -10.27269
 Alpha  occ. eigenvalues --  -10.27257 -10.27132 -10.27098 -10.27046 -10.27012
 Alpha  occ. eigenvalues --  -10.26719 -10.26680 -10.26491 -10.26459 -10.26395
 Alpha  occ. eigenvalues --  -10.26348 -10.26320 -10.26190 -10.26144 -10.26030
 Alpha  occ. eigenvalues --  -10.26003 -10.25988 -10.25987 -10.25636 -10.25574
 Alpha  occ. eigenvalues --  -10.25442 -10.25156 -10.25112 -10.25107 -10.24983
 Alpha  occ. eigenvalues --  -10.24860 -10.24527 -10.24364 -10.24315 -10.24280
 Alpha  occ. eigenvalues --   -3.13733  -1.88443  -1.87962  -1.87918  -1.22815
 Alpha  occ. eigenvalues --   -1.21315  -1.08885  -1.08285  -1.07951  -1.06522
 Alpha  occ. eigenvalues --   -1.03399  -1.03280  -1.01296  -0.91624  -0.91448
 Alpha  occ. eigenvalues --   -0.91289  -0.90304  -0.90106  -0.89961  -0.89289
 Alpha  occ. eigenvalues --   -0.88526  -0.87899  -0.87550  -0.87478  -0.86601
 Alpha  occ. eigenvalues --   -0.85569  -0.84727  -0.83930  -0.83543  -0.82700
 Alpha  occ. eigenvalues --   -0.81780  -0.81366  -0.80322  -0.79741  -0.79321
 Alpha  occ. eigenvalues --   -0.78430  -0.77557  -0.76023  -0.75533  -0.75303
 Alpha  occ. eigenvalues --   -0.75049  -0.74574  -0.74126  -0.74044  -0.73314
 Alpha  occ. eigenvalues --   -0.72354  -0.71013  -0.70021  -0.69455  -0.69062
 Alpha  occ. eigenvalues --   -0.67252  -0.67017  -0.65470  -0.65364  -0.64933
 Alpha  occ. eigenvalues --   -0.64705  -0.63873  -0.63636  -0.62278  -0.62154
 Alpha  occ. eigenvalues --   -0.61499  -0.61255  -0.60903  -0.59894  -0.59355
 Alpha  occ. eigenvalues --   -0.58745  -0.58634  -0.57855  -0.57596  -0.57398
 Alpha  occ. eigenvalues --   -0.56765  -0.56278  -0.56098  -0.55903  -0.55169
 Alpha  occ. eigenvalues --   -0.54972  -0.54453  -0.54274  -0.53930  -0.53606
 Alpha  occ. eigenvalues --   -0.53582  -0.53143  -0.52813  -0.52677  -0.52469
 Alpha  occ. eigenvalues --   -0.51916  -0.51211  -0.51153  -0.50708  -0.50687
 Alpha  occ. eigenvalues --   -0.50539  -0.50372  -0.50063  -0.49606  -0.49307
 Alpha  occ. eigenvalues --   -0.49089  -0.48878  -0.48541  -0.48276  -0.48040
 Alpha  occ. eigenvalues --   -0.47983  -0.47609  -0.47433  -0.47254  -0.47012
 Alpha  occ. eigenvalues --   -0.46907  -0.46624  -0.46218  -0.46121  -0.45930
 Alpha  occ. eigenvalues --   -0.45727  -0.45552  -0.45380  -0.45303  -0.45082
 Alpha  occ. eigenvalues --   -0.44861  -0.44718  -0.44292  -0.44094  -0.43977
 Alpha  occ. eigenvalues --   -0.43877  -0.43516  -0.43275  -0.43192  -0.43011
 Alpha  occ. eigenvalues --   -0.42881  -0.42649  -0.42515  -0.42484  -0.42347
 Alpha  occ. eigenvalues --   -0.42242  -0.42008  -0.41762  -0.41621  -0.41162
 Alpha  occ. eigenvalues --   -0.40912  -0.40705  -0.40661  -0.40501  -0.40443
 Alpha  occ. eigenvalues --   -0.40253  -0.40073  -0.39871  -0.39371  -0.39041
 Alpha  occ. eigenvalues --   -0.38870  -0.38727  -0.38537  -0.38495  -0.38322
 Alpha  occ. eigenvalues --   -0.37747  -0.37545  -0.37493  -0.37174  -0.37011
 Alpha  occ. eigenvalues --   -0.36826  -0.36269  -0.36160  -0.35874  -0.35771
 Alpha  occ. eigenvalues --   -0.35494  -0.34493  -0.33831  -0.33487  -0.33347
 Alpha  occ. eigenvalues --   -0.33189  -0.33095  -0.32487  -0.30633  -0.29219
 Alpha  occ. eigenvalues --   -0.28758  -0.28727  -0.28205  -0.27342  -0.23288
 Alpha  occ. eigenvalues --   -0.21426
 Alpha virt. eigenvalues --   -0.06992  -0.03168   0.00919   0.03385   0.04728
 Alpha virt. eigenvalues --    0.05259   0.05626   0.06547   0.06890   0.08269
 Alpha virt. eigenvalues --    0.08886   0.10680   0.10851   0.11080   0.11463

 Mulliken charges:
               1
     1  Mg   0.822286
     2  C    0.050564
     3  C   -0.219957
     4  C   -0.216791
     5  C   -0.181778
     6  N   -0.651937
     7  C    0.326213
     8  C   -0.158430
     9  C   -0.188746
    10  C    0.353859
    11  C   -0.279962
    12  C   -0.149475
    13  C   -0.306446
    14  C    0.635197
    15  O   -0.512814
    16  O   -0.398231
    17  N   -0.749595
    18  C    0.301505
    19  C   -0.012338
    20  C    0.074203
    21  C    0.382247
    22  C   -0.340412
    23  C   -0.148694
    24  C   -0.229033
    25  N   -0.681844
    26  C    0.312590
    27  C    0.065968
    28  C    0.043581
    29  C    0.247609
    30  C   -0.396669
    31  C   -0.241826
    32  C   -0.294193
    33  N   -0.716898
    34  C    0.255824
    35  C    0.025054
    36  C   -0.019120
    37  C    0.334614
    38  C   -0.371876
    39  C    0.344220
    40  O   -0.489944
    41  C   -0.336925
    42  C    0.617265
    43  O   -0.502424
    44  O   -0.397549
    45  C   -0.092918
    46  C   -0.001093
    47  C   -0.145159
    48  C    0.129305
    49  C   -0.364391
    50  C   -0.223081
    51  C   -0.180598
    52  C   -0.151237
    53  C   -0.037379
    54  C   -0.306036
    55  C   -0.168863
    56  C   -0.180336
    57  C   -0.193962
    58  C   -0.044445
    59  C   -0.331078
    60  C   -0.154432
    61  C   -0.184952
    62  C   -0.170430
    63  C   -0.060307
    64  C   -0.298736
    65  C   -0.321786
    66  H    0.086875
    67  H    0.074984
    68  H    0.094443
    69  H    0.122151
    70  H    0.100608
    71  H    0.103711
    72  H    0.106556
    73  H    0.136865
    74  H    0.113406
    75  H    0.120495
    76  H    0.129414
    77  H    0.137187
    78  H    0.139255
    79  H    0.128294
    80  H    0.120290
    81  H    0.092921
    82  H    0.112994
    83  H    0.105843
    84  H    0.089865
    85  H    0.087031
    86  H    0.139625
    87  H    0.112963
    88  H    0.102150
    89  H    0.105699
    90  H    0.101094
    91  H    0.118358
    92  H    0.107266
    93  H    0.149269
    94  H    0.129395
    95  H    0.167591
    96  H    0.127455
    97  H    0.138424
    98  H    0.129846
    99  H    0.112765
   100  H    0.121922
   101  H    0.081481
   102  H    0.124986
   103  H    0.102411
   104  H    0.098829
   105  H    0.106295
   106  H    0.102057
   107  H    0.093083
   108  H    0.099683
   109  H    0.087766
   110  H    0.081094
   111  H    0.015421
   112  H    0.110607
   113  H    0.077566
   114  H    0.103321
   115  H    0.100695
   116  H    0.091220
   117  H    0.105598
   118  H    0.086261
   119  H    0.083481
   120  H    0.080663
   121  H    0.093996
   122  H    0.098798
   123  H    0.092070
   124  H    0.093227
   125  H    0.102991
   126  H    0.091336
   127  H    0.082958
   128  H    0.089996
   129  H    0.088653
   130  H    0.099874
   131  H    0.090003
   132  H    0.095670
   133  H    0.109602
   134  H    0.062000
   135  H    0.098774
   136  H    0.097055
   137  H    0.096491
 Sum of Mulliken charges =   0.00000

 Dipole moment (field-independent basis, Debye):
    X=              0.9177    Y=              6.2949    Z=              1.2211  Tot=              6.4775
 Quadrupole moment (field-independent basis, Debye-Ang):
   XX=           -344.5922   YY=           -393.9666   ZZ=           -402.5118
   XY=            -29.2739   XZ=             15.8568   YZ=             -3.5043

 Normal termination of Gaussian 09 at Sat Jun 29 15:50:53 2019.
