 Gaussian 09, Revision D.01,
 Gaussian 09:  ES64L-G09RevD.01 24-Apr-2013

 -------------------------------------
 # td=(NStates=1) CAM-B3LYP/6-31G(d,p)
 -------------------------------------

 --
 TD
 --
 Symbolic Z-matrix:
 Charge =  0 Multiplicity = 1

                         Standard orientation:
 ---------------------------------------------------------------------
 Center     Atomic      Atomic             Coordinates (Angstroms)
 Number     Number       Type             X           Y           Z
 ---------------------------------------------------------------------
      1         12           0       -7.106368    0.598055    0.054796
      2          6           0       -4.841287   -1.924763    0.452691
      3          6           0       -4.764217    2.748059    1.133225
      4          6           0       -9.413277    3.207345   -0.253486
      5          6           0       -9.529320   -1.626335   -0.983241
      6          7           0       -5.081078    0.387155    0.735991
      7          6           0       -4.232173   -0.769318    0.822645
      8          6           0       -2.882029   -0.468539    1.268120
      9          6           0       -3.020629    0.912756    1.737187
     10          6           0       -4.390349    1.472262    1.133843
     11          6           0       -3.051730    1.090965    3.173834
     12          6           0       -1.904871   -0.659720    0.175043
     13          6           0       -0.439541   -0.512345    0.660588
     14          6           0        0.497812   -0.651477   -0.507868
     15          8           0        0.147638   -0.871255   -1.724923
     16          8           0        1.793458   -0.463658   -0.161328
     17          7           0       -7.079441    2.615657    0.402556
     18          6           0       -5.998661    3.348741    0.817070
     19          6           0       -6.388004    4.771037    0.865086
     20          6           0       -7.667507    4.863694    0.528116
     21          6           0       -8.050835    3.489083    0.148186
     22          6           0       -5.443867    5.742071    1.432850
     23          6           0       -8.619002    6.053084    0.493500
     24          6           0       -8.294128    7.252931    0.044114
     25          7           0       -9.122934    0.742300   -0.580251
     26          6           0       -9.898147    1.900118   -0.577858
     27          6           0      -11.183369    1.508769   -1.052079
     28          6           0      -11.273376    0.183119   -1.268113
     29          6           0       -9.924708   -0.355246   -0.952843
     30          6           0      -12.429882    2.443239   -1.185072
     31          6           0      -12.520650   -0.478651   -1.767811
     32          6           0      -12.370437   -0.917479   -3.269216
     33          7           0       -7.175078   -1.428869   -0.139318
     34          6           0       -8.298043   -2.206413   -0.498869
     35          6           0       -7.860862   -3.600595   -0.504083
     36          6           0       -6.491395   -3.496469   -0.113535
     37          6           0       -6.163465   -2.229958    0.140540
     38          6           0       -8.645349   -4.825571   -1.008244
     39          6           0       -5.375400   -4.360963    0.085888
     40          8           0       -5.258194   -5.536795    0.040105
     41          6           0       -4.194919   -3.320574    0.439828
     42          6           0       -3.651837   -3.718952    1.856945
     43          8           0       -3.863192   -3.241848    2.944976
     44          8           0       -2.767717   -4.850085    1.695470
     45          6           0       -2.254781   -5.321184    2.905210
     46          6           0        2.740020   -0.676626   -1.182523
     47          6           0        4.169271   -0.492401   -0.645838
     48          6           0        5.086422    0.347430   -1.027658
     49          6           0        5.090414    1.089188   -2.417174
     50          6           0        6.375441    0.370003   -0.157115
     51          6           0        7.666502   -0.056127   -1.018600
     52          6           0        8.789916   -0.188626   -0.128567
     53          6           0       10.207062   -0.547737   -0.885729
     54          6           0       10.189020   -2.012388   -1.434669
     55          6           0       11.394042   -0.266191    0.054251
     56          6           0       12.756256   -0.486699   -0.631424
     57          6           0       13.961202    0.050162    0.269706
     58          6           0       15.356542   -0.046044   -0.397459
     59          6           0       15.629214   -1.519903   -0.778419
     60          6           0       16.407105    0.387905    0.567450
     61          6           0       17.818883    0.479987   -0.103565
     62          6           0       18.860052    1.277201    0.706682
     63          6           0       20.303594    1.362504    0.136465
     64          6           0       20.486958    2.171492   -1.053378
     65          6           0       21.316921    1.782135    1.216305
     66          1           0       -4.089710    3.533737    1.451139
     67          1           0      -10.047875    4.081330   -0.207199
     68          1           0      -10.139831   -2.318632   -1.477689
     69          1           0       -2.539513   -1.165675    2.140192
     70          1           0       -2.161846    1.394658    1.187350
     71          1           0       -2.002045    0.906132    3.687400
     72          1           0       -3.240483    2.189883    3.643121
     73          1           0       -3.601216    0.402802    3.803787
     74          1           0       -1.735768   -1.663030   -0.403038
     75          1           0       -1.918046    0.080229   -0.558581
     76          1           0       -0.336710    0.392862    1.273931
     77          1           0       -0.061799   -1.357550    1.210981
     78          1           0       -4.572386    6.030463    0.930904
     79          1           0       -5.954733    6.585674    1.709987
     80          1           0       -4.823173    5.461372    2.165881
     81          1           0       -9.578891    5.808357    0.762121
     82          1           0       -9.091821    7.997264   -0.100070
     83          1           0       -7.349625    7.651564   -0.452205
     84          1           0      -12.246713    3.252182   -2.044706
     85          1           0      -13.222826    1.755007   -1.372071
     86          1           0      -12.307300    3.019910   -0.326486
     87          1           0      -12.627591   -1.478307   -1.287903
     88          1           0      -13.430621   -0.014566   -1.426757
     89          1           0      -13.178341   -1.425278   -3.582905
     90          1           0      -12.205792    0.072318   -3.918946
     91          1           0      -11.441057   -1.590571   -3.226044
     92          1           0       -8.961217   -4.649080   -1.976838
     93          1           0       -8.046487   -5.610781   -0.954918
     94          1           0       -9.606646   -5.330634   -0.440246
     95          1           0       -3.498672   -3.536778   -0.323453
     96          1           0       -1.522290   -4.728403    3.259518
     97          1           0       -3.075482   -5.335142    3.589580
     98          1           0       -1.809086   -6.295139    2.697533
     99          1           0        2.543418   -1.763752   -1.512552
    100          1           0        2.695007   -0.167360   -2.004929
    101          1           0        4.342106   -0.977141    0.283967
    102          1           0        4.095918    1.012783   -2.778376
    103          1           0        5.464285    2.192708   -2.295534
    104          1           0        5.532509    0.611239   -3.225037
    105          1           0        6.282797    1.509599    0.125282
    106          1           0        6.299384   -0.270229    0.660127
    107          1           0        7.416680   -0.896799   -1.660313
    108          1           0        7.751877    0.925963   -1.711363
    109          1           0        8.985694    0.712790    0.504976
    110          1           0        8.715942   -0.924946    0.813959
    111          1           0       10.216962    0.185103   -1.552746
    112          1           0        9.317440   -2.303281   -2.166949
    113          1           0       11.137072   -2.222247   -2.125311
    114          1           0       10.257331   -2.695755   -0.826137
    115          1           0       11.255505    0.647343    0.397175
    116          1           0       11.383185   -0.801926    0.797660
    117          1           0       12.837378   -1.586909   -0.966800
    118          1           0       12.913604    0.046451   -1.781503
    119          1           0       13.914334    1.096596    0.458364
    120          1           0       13.859840   -0.525778    1.086413
    121          1           0       15.474592    0.434738   -1.325284
    122          1           0       15.574681   -2.184239    0.137378
    123          1           0       15.120021   -1.719379   -1.968855
    124          1           0       16.659176   -1.594921   -1.134334
    125          1           0       16.254525    1.276852    1.000727
    126          1           0       16.364990   -0.412569    1.504758
    127          1           0       18.044276   -0.602955   -0.184285
    128          1           0       17.774919    0.825433   -1.086714
    129          1           0       18.550392    2.170600    0.783873
    130          1           0       19.051125    0.806194    1.678401
    131          1           0       20.495182    0.361708   -0.266527
    132          1           0       20.268138    3.287789   -1.139857
    133          1           0       21.448693    2.287400   -1.406123
    134          1           0       19.717233    2.011485   -1.813515
    135          1           0       21.058020    1.281293    2.150335
    136          1           0       22.343482    1.915260    1.034372
    137          1           0       21.270455    2.845539    1.371510
 ---------------------------------------------------------------------

 SCF Done:  E(RCAM-B3LYP) =  -2932.59564895     A.U. after   17 cycles

 Excitation energies and oscillator strengths:

 Excited State   1:      Singlet-A      2.1509 eV  576.42 nm  f=0.2620  <S**2>=0.000
     240 -> 242       -0.15096
     240 -> 243       -0.21142
     241 -> 242        0.64776
 This state for optimization and/or second-order correction.
 Total Energy, E(TD-HF/TD-KS) =  -2932.51660310
 Copying the excited state density for this state as the 1-particle RhoCI density.

 The electronic state is 1-A.
 Alpha  occ. eigenvalues --  -46.84632 -19.27252 -19.23715 -19.21758 -19.20961
 Alpha  occ. eigenvalues --  -19.19551 -14.41605 -14.40165 -14.39552 -14.38253
 Alpha  occ. eigenvalues --  -10.40167 -10.39253 -10.33524 -10.31065 -10.30954
 Alpha  occ. eigenvalues --  -10.30859 -10.30728 -10.30165 -10.29885 -10.28790
 Alpha  occ. eigenvalues --  -10.28608 -10.28272 -10.28093 -10.27873 -10.27849
 Alpha  occ. eigenvalues --  -10.27775 -10.27763 -10.27737 -10.27702 -10.27589
 Alpha  occ. eigenvalues --  -10.27585 -10.27405 -10.27308 -10.27236 -10.27165
 Alpha  occ. eigenvalues --  -10.26888 -10.26775 -10.26728 -10.26718 -10.26496
 Alpha  occ. eigenvalues --  -10.26483 -10.26358 -10.26345 -10.26247 -10.26209
 Alpha  occ. eigenvalues --  -10.26120 -10.26116 -10.25984 -10.25866 -10.25598
 Alpha  occ. eigenvalues --  -10.25468 -10.25351 -10.24997 -10.24953 -10.24926
 Alpha  occ. eigenvalues --  -10.24763 -10.24574 -10.24450 -10.24210 -10.24030
 Alpha  occ. eigenvalues --  -10.23546 -10.23486 -10.23276 -10.23229 -10.22062
 Alpha  occ. eigenvalues --   -3.13516  -1.88241  -1.87737  -1.87690  -1.18306
 Alpha  occ. eigenvalues --   -1.15894  -1.11983  -1.08467  -1.06708  -1.05355
 Alpha  occ. eigenvalues --   -1.03905  -1.02921  -1.01692  -0.92524  -0.91946
 Alpha  occ. eigenvalues --   -0.90985  -0.90701  -0.90329  -0.89617  -0.89114
 Alpha  occ. eigenvalues --   -0.88764  -0.88385  -0.87786  -0.87193  -0.86282
 Alpha  occ. eigenvalues --   -0.85241  -0.85101  -0.83339  -0.82914  -0.82810
 Alpha  occ. eigenvalues --   -0.82046  -0.81067  -0.80221  -0.79971  -0.79783
 Alpha  occ. eigenvalues --   -0.78730  -0.77216  -0.76924  -0.76860  -0.76272
 Alpha  occ. eigenvalues --   -0.75547  -0.75126  -0.74808  -0.73673  -0.73100
 Alpha  occ. eigenvalues --   -0.71476  -0.71085  -0.70165  -0.69599  -0.68481
 Alpha  occ. eigenvalues --   -0.67445  -0.67250  -0.66406  -0.65073  -0.65040
 Alpha  occ. eigenvalues --   -0.64535  -0.64474  -0.64345  -0.63784  -0.63143
 Alpha  occ. eigenvalues --   -0.61852  -0.61619  -0.61199  -0.60261  -0.59493
 Alpha  occ. eigenvalues --   -0.59132  -0.58142  -0.57978  -0.57464  -0.56969
 Alpha  occ. eigenvalues --   -0.56788  -0.55914  -0.55475  -0.55112  -0.54898
 Alpha  occ. eigenvalues --   -0.54543  -0.54400  -0.54200  -0.53527  -0.53231
 Alpha  occ. eigenvalues --   -0.53127  -0.52854  -0.52612  -0.52212  -0.52012
 Alpha  occ. eigenvalues --   -0.51819  -0.51476  -0.51383  -0.50834  -0.50753
 Alpha  occ. eigenvalues --   -0.50500  -0.50383  -0.50310  -0.50040  -0.49862
 Alpha  occ. eigenvalues --   -0.49707  -0.49360  -0.49080  -0.48908  -0.48760
 Alpha  occ. eigenvalues --   -0.48577  -0.48338  -0.48142  -0.47893  -0.47689
 Alpha  occ. eigenvalues --   -0.47404  -0.47170  -0.47075  -0.46467  -0.46269
 Alpha  occ. eigenvalues --   -0.46163  -0.45559  -0.45487  -0.45290  -0.45134
 Alpha  occ. eigenvalues --   -0.45049  -0.44670  -0.44551  -0.44406  -0.44263
 Alpha  occ. eigenvalues --   -0.44028  -0.43917  -0.43736  -0.43438  -0.43096
 Alpha  occ. eigenvalues --   -0.42976  -0.42798  -0.42669  -0.42625  -0.42388
 Alpha  occ. eigenvalues --   -0.42277  -0.41982  -0.41585  -0.41409  -0.41253
 Alpha  occ. eigenvalues --   -0.40884  -0.40800  -0.40632  -0.40394  -0.40287
 Alpha  occ. eigenvalues --   -0.40183  -0.40112  -0.39913  -0.39569  -0.39492
 Alpha  occ. eigenvalues --   -0.39135  -0.38540  -0.38533  -0.38305  -0.38237
 Alpha  occ. eigenvalues --   -0.37670  -0.37444  -0.37193  -0.37089  -0.36548
 Alpha  occ. eigenvalues --   -0.36180  -0.36030  -0.35923  -0.35791  -0.35344
 Alpha  occ. eigenvalues --   -0.34613  -0.34461  -0.34126  -0.33664  -0.33500
 Alpha  occ. eigenvalues --   -0.33141  -0.32582  -0.32358  -0.31447  -0.30147
 Alpha  occ. eigenvalues --   -0.29648  -0.28957  -0.28443  -0.27897  -0.23289
 Alpha  occ. eigenvalues --   -0.21811
 Alpha virt. eigenvalues --   -0.06886  -0.02402   0.02436   0.04157   0.04777
 Alpha virt. eigenvalues --    0.05796   0.06160   0.07099   0.07321   0.07537
 Alpha virt. eigenvalues --    0.08263   0.10740   0.11357   0.11766   0.11879

 Mulliken charges:
               1
     1  Mg   0.819320
     2  C    0.031171
     3  C   -0.203542
     4  C   -0.187708
     5  C   -0.161218
     6  N   -0.646665
     7  C    0.313352
     8  C   -0.144620
     9  C   -0.127564
    10  C    0.379023
    11  C   -0.314872
    12  C   -0.183657
    13  C   -0.276171
    14  C    0.600610
    15  O   -0.509756
    16  O   -0.461101
    17  N   -0.706413
    18  C    0.300046
    19  C    0.032486
    20  C   -0.001402
    21  C    0.307256
    22  C   -0.383118
    23  C   -0.066225
    24  C   -0.233894
    25  N   -0.709372
    26  C    0.325945
    27  C   -0.026051
    28  C    0.061460
    29  C    0.305616
    30  C   -0.334803
    31  C   -0.274516
    32  C   -0.287173
    33  N   -0.730971
    34  C    0.224047
    35  C    0.005339
    36  C   -0.001885
    37  C    0.348713
    38  C   -0.364824
    39  C    0.333958
    40  O   -0.436344
    41  C   -0.329880
    42  C    0.616364
    43  O   -0.460307
    44  O   -0.484371
    45  C   -0.069288
    46  C    0.042461
    47  C   -0.145806
    48  C    0.101104
    49  C   -0.364878
    50  C   -0.220621
    51  C   -0.161013
    52  C   -0.188210
    53  C   -0.053855
    54  C   -0.305741
    55  C   -0.153933
    56  C   -0.190543
    57  C   -0.156276
    58  C   -0.063802
    59  C   -0.302222
    60  C   -0.157327
    61  C   -0.203594
    62  C   -0.165754
    63  C   -0.045176
    64  C   -0.323146
    65  C   -0.325964
    66  H    0.070515
    67  H    0.082979
    68  H    0.091721
    69  H    0.129218
    70  H    0.098191
    71  H    0.087288
    72  H    0.096487
    73  H    0.145700
    74  H    0.130281
    75  H    0.131724
    76  H    0.139106
    77  H    0.144181
    78  H    0.120483
    79  H    0.123825
    80  H    0.127606
    81  H    0.108347
    82  H    0.104001
    83  H    0.117333
    84  H    0.098633
    85  H    0.109337
    86  H    0.125437
    87  H    0.104413
    88  H    0.114832
    89  H    0.120008
    90  H    0.097186
    91  H    0.104271
    92  H    0.128371
    93  H    0.152695
    94  H    0.092365
    95  H    0.160880
    96  H    0.110269
    97  H    0.125429
    98  H    0.114165
    99  H    0.103747
   100  H    0.118440
   101  H    0.083303
   102  H    0.113829
   103  H    0.102831
   104  H    0.137712
   105  H    0.090849
   106  H    0.107379
   107  H    0.113990
   108  H    0.083187
   109  H    0.089494
   110  H    0.066127
   111  H    0.099113
   112  H    0.082312
   113  H    0.079733
   114  H    0.120754
   115  H    0.093919
   116  H    0.099522
   117  H    0.098922
   118  H    0.037680
   119  H    0.094859
   120  H    0.100043
   121  H    0.091279
   122  H    0.100956
   123  H    0.063209
   124  H    0.102379
   125  H    0.095653
   126  H    0.054505
   127  H    0.098853
   128  H    0.099210
   129  H    0.104014
   130  H    0.088213
   131  H    0.093121
   132  H    0.072338
   133  H    0.111707
   134  H    0.093421
   135  H    0.097562
   136  H    0.105608
   137  H    0.100252
 Sum of Mulliken charges =   0.00000

 Dipole moment (field-independent basis, Debye):
    X=              1.3187    Y=              7.1542    Z=              0.6476  Tot=              7.3035
 Quadrupole moment (field-independent basis, Debye-Ang):
   XX=           -333.9650   YY=           -390.1188   ZZ=           -397.0440
   XY=            -25.2472   XZ=             12.7457   YZ=              1.2984

 Normal termination of Gaussian 09 at Thu Jun 27 21:28:45 2019.
