 Gaussian 09, Revision D.01,
 Gaussian 09:  ES64L-G09RevD.01 24-Apr-2013

 -------------------------------------
 # td=(NStates=1) CAM-B3LYP/6-31G(d,p)
 -------------------------------------

 --
 TD
 --
 Symbolic Z-matrix:
 Charge =  0 Multiplicity = 1

                         Standard orientation:
 ---------------------------------------------------------------------
 Center     Atomic      Atomic             Coordinates (Angstroms)
 Number     Number       Type             X           Y           Z
 ---------------------------------------------------------------------
      1         12           0       -7.126501    0.566091    0.084069
      2          6           0       -4.847601   -1.853920    0.482787
      3          6           0       -4.901224    2.904177    1.108620
      4          6           0       -9.536002    3.091899   -0.314229
      5          6           0       -9.514608   -1.710913   -0.899436
      6          7           0       -5.111684    0.497486    0.800952
      7          6           0       -4.300818   -0.649489    0.853987
      8          6           0       -2.811677   -0.223009    1.143643
      9          6           0       -2.939573    1.238732    1.637403
     10          6           0       -4.368609    1.566403    1.152699
     11          6           0       -2.859896    1.444546    3.192536
     12          6           0       -1.886514   -0.505972    0.041448
     13          6           0       -0.460817   -0.354707    0.516437
     14          6           0        0.468794   -0.553653   -0.644665
     15          8           0        0.236496   -0.901542   -1.739385
     16          8           0        1.819100   -0.373149   -0.270825
     17          7           0       -7.182335    2.517188    0.331652
     18          6           0       -6.139744    3.338079    0.808069
     19          6           0       -6.571660    4.747328    0.960881
     20          6           0       -7.837592    4.806932    0.411259
     21          6           0       -8.283415    3.343237    0.106401
     22          6           0       -5.686627    5.765131    1.641165
     23          6           0       -8.699720    6.011090    0.361824
     24          6           0       -8.098110    7.217373   -0.130430
     25          7           0       -9.111517    0.606273   -0.564330
     26          6           0       -9.878021    1.729577   -0.629140
     27          6           0      -11.189494    1.411651   -1.152553
     28          6           0      -11.240094    0.024836   -1.421896
     29          6           0       -9.988753   -0.528868   -0.955133
     30          6           0      -12.269140    2.412477   -1.304126
     31          6           0      -12.386694   -0.872235   -1.866783
     32          6           0      -12.116729   -1.013905   -3.364549
     33          7           0       -7.234439   -1.432520   -0.130611
     34          6           0       -8.212923   -2.291141   -0.638848
     35          6           0       -7.851331   -3.573956   -0.561218
     36          6           0       -6.504014   -3.515317   -0.096881
     37          6           0       -6.194720   -2.164712    0.073209
     38          6           0       -8.616696   -4.756787   -1.021451
     39          6           0       -5.411359   -4.309186    0.400206
     40          8           0       -5.250817   -5.495850    0.318323
     41          6           0       -4.211307   -3.318081    0.616285
     42          6           0       -3.604761   -3.635431    1.988819
     43          8           0       -3.809877   -3.115224    3.050444
     44          8           0       -2.840567   -4.740827    1.838371
     45          6           0       -2.306212   -5.172157    3.073586
     46          6           0        2.826794   -0.675052   -1.264517
     47          6           0        4.099970   -0.510123   -0.605999
     48          6           0        5.186297    0.139793   -0.990151
     49          6           0        5.201684    1.129149   -2.191608
     50          6           0        6.374600    0.266540   -0.146064
     51          6           0        7.731824   -0.187032   -0.882721
     52          6           0        8.915228   -0.288862    0.017359
     53          6           0       10.249451   -0.622324   -0.895439
     54          6           0       10.156661   -2.001904   -1.441719
     55          6           0       11.504649   -0.355069   -0.007429
     56          6           0       12.795389   -0.405962   -0.759197
     57          6           0       13.945152   -0.131078    0.115281
     58          6           0       15.369779   -0.279937   -0.525858
     59          6           0       15.715839   -1.698362   -0.865619
     60          6           0       16.397535    0.463111    0.504990
     61          6           0       17.755430    0.755041   -0.198707
     62          6           0       18.804187    1.340007    0.713309
     63          6           0       20.263708    1.372609    0.209857
     64          6           0       20.385300    2.102020   -1.089846
     65          6           0       21.263238    1.789005    1.250726
     66          1           0       -4.050353    3.564722    1.417074
     67          1           0      -10.252415    3.922581   -0.342450
     68          1           0      -10.416139   -2.389532   -1.113104
     69          1           0       -2.319134   -0.832977    2.058296
     70          1           0       -2.089990    1.878288    1.358777
     71          1           0       -2.089981    1.302228    3.749418
     72          1           0       -3.032712    2.420529    3.311445
     73          1           0       -3.628769    0.760413    3.650719
     74          1           0       -2.085990   -1.803895    0.049841
     75          1           0       -2.076831    0.067557   -0.875977
     76          1           0       -0.335365    0.654755    1.052114
     77          1           0       -0.060414   -0.984780    1.376921
     78          1           0       -5.147271    6.062614    0.860252
     79          1           0       -6.292890    6.671054    1.899576
     80          1           0       -5.159950    5.389087    2.511443
     81          1           0       -9.688237    6.080837    0.764438
     82          1           0       -8.686928    8.033133   -0.217156
     83          1           0       -7.098107    7.308265   -0.542382
     84          1           0      -11.879044    3.268298   -1.799147
     85          1           0      -13.094207    1.988244   -1.854133
     86          1           0      -12.734573    2.753908   -0.340932
     87          1           0      -12.205627   -1.766454   -1.354532
     88          1           0      -13.202962   -0.219175   -1.599916
     89          1           0      -12.973351   -1.620580   -3.791814
     90          1           0      -12.086232   -0.189486   -3.893931
     91          1           0      -11.183560   -1.790664   -3.306370
     92          1           0       -8.702226   -4.987553   -2.122144
     93          1           0       -8.048513   -5.679185   -0.709868
     94          1           0       -9.657254   -4.965145   -0.539419
     95          1           0       -3.372376   -3.563831   -0.077482
     96          1           0       -1.926787   -4.314747    3.693567
     97          1           0       -3.239497   -5.523584    3.636985
     98          1           0       -1.741695   -6.029687    2.891034
     99          1           0        2.435613   -1.763477   -1.563786
    100          1           0        2.917951   -0.039178   -2.342450
    101          1           0        4.250056   -0.991802    0.443609
    102          1           0        4.193273    1.478851   -2.522165
    103          1           0        5.784897    2.066589   -1.840311
    104          1           0        5.770687    0.723265   -3.324009
    105          1           0        6.564454    1.381839    0.117936
    106          1           0        6.227302   -0.525615    0.767732
    107          1           0        7.517761   -1.225428   -1.711483
    108          1           0        7.898092    0.649290   -1.790498
    109          1           0        9.162959    0.775232    0.682012
    110          1           0        9.005086   -1.126605    0.849434
    111          1           0       10.060635    0.216843   -1.708691
    112          1           0        9.237347   -2.081704   -1.961628
    113          1           0       10.970411   -2.510798   -1.917916
    114          1           0       10.132909   -2.511838   -0.403306
    115          1           0       11.386686    0.674727    0.432915
    116          1           0       11.687489   -1.135455    0.843600
    117          1           0       12.663312   -1.416219   -1.201886
    118          1           0       12.771579    0.104554   -1.809376
    119          1           0       13.765819    0.858507    0.605540
    120          1           0       13.951248   -0.713620    1.085867
    121          1           0       15.152879    0.119604   -1.576882
    122          1           0       15.799792   -2.450573    0.041522
    123          1           0       15.163240   -2.187995   -1.574475
    124          1           0       16.819413   -1.643700   -1.297357
    125          1           0       16.171109    1.364002    0.806592
    126          1           0       16.401700   -0.017642    1.520374
    127          1           0       18.019456   -0.231286   -0.450762
    128          1           0       17.827063    1.424110   -0.962132
    129          1           0       18.475249    2.483079    0.867421
    130          1           0       18.653866    1.005048    1.780635
    131          1           0       20.383190    0.262474   -0.201259
    132          1           0       19.889749    3.139431   -1.061448
    133          1           0       21.549768    2.307676   -1.178020
    134          1           0       19.810607    1.694382   -1.710380
    135          1           0       21.316951    1.211294    2.190810
    136          1           0       22.373236    1.787016    1.073086
    137          1           0       21.049368    2.770919    1.452654
 ---------------------------------------------------------------------

 SCF Done:  E(RCAM-B3LYP) =  -2932.57935503     A.U. after   16 cycles

 Excitation energies and oscillator strengths:

 Excited State   1:      Singlet-A      2.5716 eV  482.13 nm  f=0.0674  <S**2>=0.000
     240 -> 242        0.53740
     241 -> 242       -0.25923
     241 -> 243       -0.34969
 This state for optimization and/or second-order correction.
 Total Energy, E(TD-HF/TD-KS) =  -2932.48485171
 Copying the excited state density for this state as the 1-particle RhoCI density.

 The electronic state is 1-A.
 Alpha  occ. eigenvalues --  -46.83749 -19.25173 -19.24545 -19.21915 -19.20236
 Alpha  occ. eigenvalues --  -19.18022 -14.42700 -14.40073 -14.39148 -14.38030
 Alpha  occ. eigenvalues --  -10.39255 -10.37991 -10.33127 -10.32945 -10.32830
 Alpha  occ. eigenvalues --  -10.31360 -10.31086 -10.30583 -10.30233 -10.29919
 Alpha  occ. eigenvalues --  -10.29760 -10.29382 -10.29291 -10.29194 -10.28940
 Alpha  occ. eigenvalues --  -10.28818 -10.28764 -10.28677 -10.28451 -10.28348
 Alpha  occ. eigenvalues --  -10.28122 -10.27766 -10.27750 -10.27542 -10.27464
 Alpha  occ. eigenvalues --  -10.27416 -10.27370 -10.27300 -10.27151 -10.27151
 Alpha  occ. eigenvalues --  -10.27054 -10.26990 -10.26513 -10.26454 -10.26448
 Alpha  occ. eigenvalues --  -10.26432 -10.26354 -10.26158 -10.25989 -10.25947
 Alpha  occ. eigenvalues --  -10.25944 -10.25716 -10.25693 -10.25629 -10.25494
 Alpha  occ. eigenvalues --  -10.25179 -10.25019 -10.24983 -10.24825 -10.24492
 Alpha  occ. eigenvalues --  -10.24388 -10.23945 -10.23943 -10.23572 -10.22771
 Alpha  occ. eigenvalues --   -3.12908  -1.87604  -1.87169  -1.87075  -1.18210
 Alpha  occ. eigenvalues --   -1.18123  -1.09919  -1.09279  -1.08938  -1.04698
 Alpha  occ. eigenvalues --   -1.03747  -1.02352  -1.00781  -0.91644  -0.91187
 Alpha  occ. eigenvalues --   -0.90983  -0.90555  -0.89969  -0.89897  -0.89213
 Alpha  occ. eigenvalues --   -0.88522  -0.88104  -0.87999  -0.87030  -0.86273
 Alpha  occ. eigenvalues --   -0.85251  -0.84360  -0.83798  -0.83384  -0.83084
 Alpha  occ. eigenvalues --   -0.81932  -0.81295  -0.80830  -0.79594  -0.78481
 Alpha  occ. eigenvalues --   -0.78257  -0.77334  -0.77238  -0.75464  -0.75373
 Alpha  occ. eigenvalues --   -0.75129  -0.74837  -0.74339  -0.73567  -0.72473
 Alpha  occ. eigenvalues --   -0.71544  -0.70715  -0.69664  -0.68776  -0.68304
 Alpha  occ. eigenvalues --   -0.67223  -0.66623  -0.65558  -0.64456  -0.63535
 Alpha  occ. eigenvalues --   -0.63052  -0.62829  -0.61988  -0.61745  -0.61506
 Alpha  occ. eigenvalues --   -0.61153  -0.60825  -0.60383  -0.59960  -0.59191
 Alpha  occ. eigenvalues --   -0.57899  -0.57838  -0.57751  -0.56676  -0.56388
 Alpha  occ. eigenvalues --   -0.56046  -0.55494  -0.55200  -0.54764  -0.54605
 Alpha  occ. eigenvalues --   -0.54215  -0.54053  -0.53917  -0.53743  -0.53438
 Alpha  occ. eigenvalues --   -0.52937  -0.52831  -0.52622  -0.52407  -0.52274
 Alpha  occ. eigenvalues --   -0.51917  -0.51796  -0.51552  -0.51092  -0.50780
 Alpha  occ. eigenvalues --   -0.50716  -0.50677  -0.50054  -0.49754  -0.49447
 Alpha  occ. eigenvalues --   -0.48976  -0.48915  -0.48646  -0.48572  -0.48281
 Alpha  occ. eigenvalues --   -0.48011  -0.47946  -0.47799  -0.47519  -0.47374
 Alpha  occ. eigenvalues --   -0.47181  -0.46982  -0.46802  -0.46548  -0.46156
 Alpha  occ. eigenvalues --   -0.45956  -0.45486  -0.45093  -0.45040  -0.44926
 Alpha  occ. eigenvalues --   -0.44806  -0.44476  -0.44339  -0.43988  -0.43738
 Alpha  occ. eigenvalues --   -0.43657  -0.43477  -0.43372  -0.43161  -0.43143
 Alpha  occ. eigenvalues --   -0.42902  -0.42768  -0.42414  -0.42293  -0.42196
 Alpha  occ. eigenvalues --   -0.42137  -0.42022  -0.41887  -0.41717  -0.41489
 Alpha  occ. eigenvalues --   -0.41362  -0.41347  -0.40967  -0.40848  -0.40352
 Alpha  occ. eigenvalues --   -0.40145  -0.39985  -0.39774  -0.39412  -0.39243
 Alpha  occ. eigenvalues --   -0.38522  -0.38360  -0.38218  -0.38067  -0.37815
 Alpha  occ. eigenvalues --   -0.37711  -0.37480  -0.36824  -0.36416  -0.36413
 Alpha  occ. eigenvalues --   -0.35767  -0.35683  -0.35061  -0.34715  -0.34619
 Alpha  occ. eigenvalues --   -0.34583  -0.34574  -0.34366  -0.33584  -0.33170
 Alpha  occ. eigenvalues --   -0.33095  -0.32549  -0.32378  -0.31353  -0.29533
 Alpha  occ. eigenvalues --   -0.28749  -0.28435  -0.27844  -0.27320  -0.23926
 Alpha  occ. eigenvalues --   -0.22363
 Alpha virt. eigenvalues --   -0.05674  -0.02523   0.01627   0.03244   0.05043
 Alpha virt. eigenvalues --    0.05587   0.06154   0.06328   0.06832   0.07607
 Alpha virt. eigenvalues --    0.07797   0.10030   0.10516   0.10666   0.10802

 Mulliken charges:
               1
     1  Mg   0.806346
     2  C    0.051302
     3  C   -0.241263
     4  C   -0.189724
     5  C   -0.208072
     6  N   -0.622778
     7  C    0.282464
     8  C   -0.146839
     9  C   -0.164794
    10  C    0.356313
    11  C   -0.307317
    12  C   -0.126414
    13  C   -0.279195
    14  C    0.616350
    15  O   -0.428992
    16  O   -0.520801
    17  N   -0.751482
    18  C    0.359180
    19  C    0.036881
    20  C   -0.041389
    21  C    0.364803
    22  C   -0.353988
    23  C   -0.123613
    24  C   -0.228984
    25  N   -0.696744
    26  C    0.358728
    27  C   -0.028238
    28  C    0.035901
    29  C    0.301670
    30  C   -0.377448
    31  C   -0.223917
    32  C   -0.284346
    33  N   -0.720791
    34  C    0.221541
    35  C    0.082212
    36  C   -0.052601
    37  C    0.329935
    38  C   -0.400194
    39  C    0.352479
    40  O   -0.455649
    41  C   -0.317067
    42  C    0.599016
    43  O   -0.476244
    44  O   -0.438426
    45  C   -0.087212
    46  C    0.033763
    47  C   -0.111225
    48  C    0.168145
    49  C   -0.346585
    50  C   -0.236701
    51  C   -0.151555
    52  C   -0.151357
    53  C   -0.075858
    54  C   -0.289572
    55  C   -0.168546
    56  C   -0.172641
    57  C   -0.167063
    58  C   -0.061850
    59  C   -0.296108
    60  C   -0.193486
    61  C   -0.173254
    62  C   -0.185496
    63  C   -0.040383
    64  C   -0.285850
    65  C   -0.323933
    66  H    0.079689
    67  H    0.100620
    68  H    0.071930
    69  H    0.104672
    70  H    0.108388
    71  H    0.121526
    72  H    0.111497
    73  H    0.124522
    74  H    0.087550
    75  H    0.129906
    76  H    0.128974
    77  H    0.150648
    78  H    0.144219
    79  H    0.120200
    80  H    0.127893
    81  H    0.117875
    82  H    0.107865
    83  H    0.113395
    84  H    0.126033
    85  H    0.109415
    86  H    0.119115
    87  H    0.122905
    88  H    0.111144
    89  H    0.092003
    90  H    0.128512
    91  H    0.097399
    92  H    0.123084
    93  H    0.140287
    94  H    0.101261
    95  H    0.160586
    96  H    0.127606
    97  H    0.117868
    98  H    0.125530
    99  H    0.113485
   100  H    0.085695
   101  H    0.080261
   102  H    0.119528
   103  H    0.105081
   104  H    0.075127
   105  H    0.107227
   106  H    0.086372
   107  H    0.062256
   108  H    0.080731
   109  H    0.066351
   110  H    0.088023
   111  H    0.069012
   112  H    0.107546
   113  H    0.114297
   114  H    0.085392
   115  H    0.081197
   116  H    0.081201
   117  H    0.086374
   118  H    0.078583
   119  H    0.087936
   120  H    0.078299
   121  H    0.083878
   122  H    0.080226
   123  H    0.118769
   124  H    0.084124
   125  H    0.109420
   126  H    0.093768
   127  H    0.101583
   128  H    0.107022
   129  H    0.051509
   130  H    0.081176
   131  H    0.066059
   132  H    0.073158
   133  H    0.097815
   134  H    0.114823
   135  H    0.101767
   136  H    0.093692
   137  H    0.116075
 Sum of Mulliken charges =   0.00000

 Dipole moment (field-independent basis, Debye):
    X=             -0.3891    Y=              8.1856    Z=              0.9112  Tot=              8.2453
 Quadrupole moment (field-independent basis, Debye-Ang):
   XX=           -343.2338   YY=           -393.2229   ZZ=           -397.6995
   XY=            -44.5482   XZ=             14.7706   YZ=              2.2331

 Normal termination of Gaussian 09 at Sat Jun 29 15:11:03 2019.
