 Gaussian 09, Revision D.01,
 Gaussian 09:  ES64L-G09RevD.01 24-Apr-2013

 -------------------------------------
 # td=(NStates=1) CAM-B3LYP/6-31G(d,p)
 -------------------------------------

 --
 TD
 --
 Symbolic Z-matrix:
 Charge =  0 Multiplicity = 1

                         Standard orientation:
 ---------------------------------------------------------------------
 Center     Atomic      Atomic             Coordinates (Angstroms)
 Number     Number       Type             X           Y           Z
 ---------------------------------------------------------------------
      1         12           0       -7.178239    0.593253    0.201201
      2          6           0       -4.855624   -1.932443    0.623862
      3          6           0       -4.806891    2.813917    1.127134
      4          6           0       -9.374334    3.088843   -0.366548
      5          6           0       -9.547822   -1.669012   -0.799361
      6          7           0       -5.064622    0.457773    0.727790
      7          6           0       -4.368391   -0.659409    0.802100
      8          6           0       -2.894977   -0.337373    1.287065
      9          6           0       -2.983812    1.048455    1.643354
     10          6           0       -4.304322    1.570693    1.047303
     11          6           0       -2.696147    1.446350    3.102138
     12          6           0       -1.923475   -0.702135    0.110739
     13          6           0       -0.523614   -0.529900    0.446621
     14          6           0        0.462100   -0.652723   -0.698361
     15          8           0        0.252384   -0.913669   -1.883303
     16          8           0        1.788287   -0.628806   -0.204806
     17          7           0       -7.121424    2.620065    0.422806
     18          6           0       -6.073710    3.306142    0.828096
     19          6           0       -6.498044    4.820619    0.848563
     20          6           0       -7.755855    4.793135    0.391892
     21          6           0       -8.130184    3.426129    0.183899
     22          6           0       -5.529964    5.871700    1.349302
     23          6           0       -8.646168    5.974475    0.296597
     24          6           0       -8.161140    7.277747    0.110619
     25          7           0       -9.082666    0.734592   -0.482018
     26          6           0       -9.845045    1.862699   -0.604469
     27          6           0      -11.160095    1.427845   -1.018592
     28          6           0      -11.245522    0.124982   -1.196901
     29          6           0       -9.938407   -0.337585   -0.854841
     30          6           0      -12.217187    2.418117   -1.286081
     31          6           0      -12.395502   -0.803224   -1.669734
     32          6           0      -12.297124   -1.084926   -3.197512
     33          7           0       -7.278200   -1.407384    0.004726
     34          6           0       -8.287735   -2.232319   -0.501032
     35          6           0       -7.787420   -3.612836   -0.532487
     36          6           0       -6.468459   -3.584929   -0.125428
     37          6           0       -6.175566   -2.218080    0.182990
     38          6           0       -8.688893   -4.744618   -0.899383
     39          6           0       -5.286012   -4.360498    0.171062
     40          8           0       -5.211387   -5.590018    0.190458
     41          6           0       -4.127322   -3.254451    0.526606
     42          6           0       -3.516794   -3.713860    1.837621
     43          8           0       -3.596470   -3.163647    2.935650
     44          8           0       -2.783406   -4.844178    1.671321
     45          6           0       -2.085614   -5.373077    2.872392
     46          6           0        2.765594   -0.639175   -1.349315
     47          6           0        4.142988   -0.413634   -0.656441
     48          6           0        5.168199    0.477765   -0.981103
     49          6           0        4.993567    1.253955   -2.231163
     50          6           0        6.371881    0.433840   -0.146123
     51          6           0        7.585332   -0.157966   -0.909011
     52          6           0        8.926417   -0.096692   -0.106307
     53          6           0       10.160507   -0.581806   -0.791649
     54          6           0       10.117949   -1.977355   -1.423005
     55          6           0       11.449308   -0.423057    0.074250
     56          6           0       12.784782   -0.616545   -0.621619
     57          6           0       13.939641   -0.084973    0.207457
     58          6           0       15.287580   -0.108298   -0.400137
     59          6           0       15.659535   -1.595953   -0.950763
     60          6           0       16.335304    0.448179    0.566843
     61          6           0       17.686241    0.634657   -0.181066
     62          6           0       18.701842    1.313440    0.712747
     63          6           0       20.230219    1.296236    0.255444
     64          6           0       20.297545    2.200498   -1.018642
     65          6           0       21.198529    1.858105    1.278122
     66          1           0       -3.979469    3.562933    1.499013
     67          1           0      -10.073404    3.816960   -0.453550
     68          1           0      -10.242196   -2.335395   -1.269451
     69          1           0       -2.644803   -1.134677    2.220163
     70          1           0       -2.297009    1.756882    1.217383
     71          1           0       -1.509249    1.178638    3.303447
     72          1           0       -2.874894    2.603662    3.153539
     73          1           0       -3.311424    0.842199    3.912018
     74          1           0       -2.284851   -1.823397   -0.108218
     75          1           0       -2.160616   -0.115770   -0.846074
     76          1           0       -0.318029    0.538461    1.095905
     77          1           0       -0.147673   -1.275492    1.056633
     78          1           0       -4.935255    6.194411    0.418261
     79          1           0       -5.974306    6.749996    1.648929
     80          1           0       -4.960900    5.636553    2.300489
     81          1           0       -9.831980    5.845770    0.277569
     82          1           0       -8.735260    8.171509   -0.014442
     83          1           0       -7.088714    7.336987   -0.145819
     84          1           0      -12.235108    3.103275   -2.247986
     85          1           0      -13.164439    1.909740   -1.467687
     86          1           0      -12.167051    3.059759   -0.328174
     87          1           0      -12.204725   -1.633828   -1.168724
     88          1           0      -13.359329   -0.443564   -1.425580
     89          1           0      -13.125344   -1.606868   -3.617530
     90          1           0      -12.293296    0.001456   -3.756211
     91          1           0      -11.450595   -1.668875   -3.618568
     92          1           0       -8.997824   -4.767810   -1.853467
     93          1           0       -8.190853   -5.790301   -0.841165
     94          1           0       -9.722250   -4.843297   -0.461946
     95          1           0       -3.519215   -3.226840   -0.454224
     96          1           0       -1.345929   -4.481460    3.133434
     97          1           0       -2.751957   -5.472779    3.650339
     98          1           0       -1.542780   -6.357908    2.362275
     99          1           0        2.669238   -1.691534   -1.842397
    100          1           0        2.587252   -0.038707   -2.162594
    101          1           0        4.462683   -1.194564    0.095932
    102          1           0        3.972586    1.087080   -2.494686
    103          1           0        5.082230    2.337946   -2.308975
    104          1           0        5.722980    0.877649   -3.295792
    105          1           0        6.698398    1.466168    0.074788
    106          1           0        6.116076   -0.209626    0.750628
    107          1           0        7.195494   -1.202364   -1.048948
    108          1           0        7.576127    0.331395   -2.053241
    109          1           0        8.921139    0.975124    0.175279
    110          1           0        8.690922   -0.724299    0.806289
    111          1           0       10.275429   -0.016459   -1.740272
    112          1           0        9.157086   -2.177489   -2.070997
    113          1           0       10.952742   -2.218855   -2.006619
    114          1           0       10.124390   -2.718289   -0.630499
    115          1           0       11.315130    0.584670    0.358639
    116          1           0       11.396428   -1.237725    0.858810
    117          1           0       12.844433   -1.801068   -0.921944
    118          1           0       12.739953   -0.041169   -1.527912
    119          1           0       13.473182    0.775348    0.575626
    120          1           0       13.962115   -0.595980    1.183796
    121          1           0       15.279367    0.765591   -1.222706
    122          1           0       15.902078   -2.294141   -0.068681
    123          1           0       14.922368   -2.115648   -1.505708
    124          1           0       16.397146   -1.590967   -1.519882
    125          1           0       16.042210    1.392814    0.703121
    126          1           0       16.520916   -0.281038    1.457755
    127          1           0       18.232417   -0.225529   -0.436317
    128          1           0       17.396614    1.227446   -1.148680
    129          1           0       18.410652    2.121336    0.988151
    130          1           0       18.796756    0.774606    1.623148
    131          1           0       20.464554    0.310876   -0.125543
    132          1           0       20.253257    3.324433   -0.731625
    133          1           0       21.295509    1.951013   -1.405920
    134          1           0       19.530532    1.991028   -1.990186
    135          1           0       21.174567    1.055250    2.101819
    136          1           0       22.267303    1.785750    0.749094
    137          1           0       20.983105    2.939179    1.578112
 ---------------------------------------------------------------------

 SCF Done:  E(RCAM-B3LYP) =  -2932.65794003     A.U. after   15 cycles

 Excitation energies and oscillator strengths:

 Excited State   1:      Singlet-A      2.0035 eV  618.83 nm  f=0.2994  <S**2>=0.000
     240 -> 243       -0.23131
     241 -> 242        0.66427
 This state for optimization and/or second-order correction.
 Total Energy, E(TD-HF/TD-KS) =  -2932.58431208
 Copying the excited state density for this state as the 1-particle RhoCI density.

 The electronic state is 1-A.
 Alpha  occ. eigenvalues --  -46.84290 -19.25700 -19.25475 -19.21676 -19.20863
 Alpha  occ. eigenvalues --  -19.20727 -14.41576 -14.40199 -14.39208 -14.39066
 Alpha  occ. eigenvalues --  -10.39760 -10.39499 -10.35690 -10.32938 -10.32232
 Alpha  occ. eigenvalues --  -10.30672 -10.30660 -10.30416 -10.29981 -10.29272
 Alpha  occ. eigenvalues --  -10.29256 -10.29204 -10.28935 -10.28927 -10.28833
 Alpha  occ. eigenvalues --  -10.28789 -10.28769 -10.28267 -10.27949 -10.27897
 Alpha  occ. eigenvalues --  -10.27808 -10.27674 -10.27305 -10.27073 -10.27050
 Alpha  occ. eigenvalues --  -10.26984 -10.26936 -10.26883 -10.26808 -10.26782
 Alpha  occ. eigenvalues --  -10.26766 -10.26712 -10.26708 -10.26642 -10.26631
 Alpha  occ. eigenvalues --  -10.26611 -10.26414 -10.26105 -10.26038 -10.25955
 Alpha  occ. eigenvalues --  -10.25837 -10.25721 -10.25617 -10.25612 -10.25568
 Alpha  occ. eigenvalues --  -10.25494 -10.25437 -10.25272 -10.24693 -10.24601
 Alpha  occ. eigenvalues --  -10.24534 -10.23981 -10.23639 -10.23303 -10.21875
 Alpha  occ. eigenvalues --   -3.13376  -1.88082  -1.87599  -1.87568  -1.16706
 Alpha  occ. eigenvalues --   -1.15679  -1.10248  -1.07647  -1.07409  -1.06393
 Alpha  occ. eigenvalues --   -1.04527  -1.02959  -1.02039  -0.92526  -0.91282
 Alpha  occ. eigenvalues --   -0.90872  -0.90624  -0.90044  -0.89487  -0.89427
 Alpha  occ. eigenvalues --   -0.88530  -0.88077  -0.88033  -0.86749  -0.86509
 Alpha  occ. eigenvalues --   -0.84961  -0.84396  -0.83559  -0.83079  -0.82551
 Alpha  occ. eigenvalues --   -0.81241  -0.80873  -0.80723  -0.79673  -0.78762
 Alpha  occ. eigenvalues --   -0.77676  -0.77289  -0.76790  -0.76436  -0.76068
 Alpha  occ. eigenvalues --   -0.74976  -0.74857  -0.73606  -0.73327  -0.72501
 Alpha  occ. eigenvalues --   -0.71509  -0.70851  -0.70132  -0.68752  -0.68397
 Alpha  occ. eigenvalues --   -0.67313  -0.66219  -0.65542  -0.64565  -0.64223
 Alpha  occ. eigenvalues --   -0.63984  -0.63337  -0.62509  -0.62275  -0.62140
 Alpha  occ. eigenvalues --   -0.61718  -0.61399  -0.59893  -0.59541  -0.59144
 Alpha  occ. eigenvalues --   -0.58660  -0.58318  -0.57721  -0.57642  -0.57166
 Alpha  occ. eigenvalues --   -0.55949  -0.55746  -0.55381  -0.55099  -0.54871
 Alpha  occ. eigenvalues --   -0.54648  -0.53798  -0.53204  -0.53122  -0.52983
 Alpha  occ. eigenvalues --   -0.52747  -0.52538  -0.52103  -0.51987  -0.51546
 Alpha  occ. eigenvalues --   -0.51460  -0.51179  -0.50875  -0.50672  -0.50358
 Alpha  occ. eigenvalues --   -0.50296  -0.49911  -0.49737  -0.49605  -0.49493
 Alpha  occ. eigenvalues --   -0.49154  -0.48993  -0.48572  -0.48427  -0.48256
 Alpha  occ. eigenvalues --   -0.48065  -0.47892  -0.47750  -0.47333  -0.46917
 Alpha  occ. eigenvalues --   -0.46447  -0.46204  -0.45848  -0.45740  -0.45439
 Alpha  occ. eigenvalues --   -0.45209  -0.45198  -0.45038  -0.44857  -0.44666
 Alpha  occ. eigenvalues --   -0.44631  -0.44581  -0.44454  -0.44197  -0.43980
 Alpha  occ. eigenvalues --   -0.43839  -0.43678  -0.43468  -0.43331  -0.43112
 Alpha  occ. eigenvalues --   -0.43060  -0.42783  -0.42675  -0.42537  -0.42283
 Alpha  occ. eigenvalues --   -0.42149  -0.42021  -0.41924  -0.41838  -0.41515
 Alpha  occ. eigenvalues --   -0.41293  -0.41022  -0.40879  -0.40631  -0.40237
 Alpha  occ. eigenvalues --   -0.39946  -0.39826  -0.39717  -0.39383  -0.39086
 Alpha  occ. eigenvalues --   -0.38885  -0.38779  -0.38283  -0.38255  -0.38158
 Alpha  occ. eigenvalues --   -0.37889  -0.37601  -0.37189  -0.36896  -0.36591
 Alpha  occ. eigenvalues --   -0.36350  -0.36074  -0.35820  -0.35743  -0.35445
 Alpha  occ. eigenvalues --   -0.35295  -0.35291  -0.35018  -0.34065  -0.33739
 Alpha  occ. eigenvalues --   -0.33471  -0.33144  -0.32283  -0.31606  -0.30058
 Alpha  occ. eigenvalues --   -0.29669  -0.28677  -0.28483  -0.27875  -0.23366
 Alpha  occ. eigenvalues --   -0.21009
 Alpha virt. eigenvalues --   -0.06727  -0.02600   0.01445   0.03346   0.03935
 Alpha virt. eigenvalues --    0.05057   0.05316   0.05990   0.06669   0.07135
 Alpha virt. eigenvalues --    0.08453   0.10102   0.10852   0.11655   0.11713

 Mulliken charges:
               1
     1  Mg   0.820843
     2  C    0.083043
     3  C   -0.220519
     4  C   -0.151367
     5  C   -0.187880
     6  N   -0.642094
     7  C    0.320978
     8  C   -0.162101
     9  C   -0.119248
    10  C    0.334488
    11  C   -0.280320
    12  C   -0.166388
    13  C   -0.241317
    14  C    0.605780
    15  O   -0.474031
    16  O   -0.505102
    17  N   -0.698390
    18  C    0.299855
    19  C    0.013798
    20  C    0.011866
    21  C    0.317958
    22  C   -0.378170
    23  C   -0.083201
    24  C   -0.255633
    25  N   -0.719089
    26  C    0.355287
    27  C   -0.015747
    28  C    0.063178
    29  C    0.265072
    30  C   -0.370043
    31  C   -0.207400
    32  C   -0.313917
    33  N   -0.724241
    34  C    0.270125
    35  C    0.020543
    36  C    0.066372
    37  C    0.261086
    38  C   -0.400954
    39  C    0.341904
    40  O   -0.456396
    41  C   -0.367835
    42  C    0.644623
    43  O   -0.488846
    44  O   -0.465958
    45  C   -0.071250
    46  C    0.013719
    47  C   -0.140240
    48  C    0.146817
    49  C   -0.344594
    50  C   -0.235244
    51  C   -0.178077
    52  C   -0.156245
    53  C   -0.066768
    54  C   -0.317940
    55  C   -0.174626
    56  C   -0.170505
    57  C   -0.159533
    58  C   -0.064563
    59  C   -0.310032
    60  C   -0.154530
    61  C   -0.182599
    62  C   -0.143991
    63  C   -0.077903
    64  C   -0.288977
    65  C   -0.294049
    66  H    0.082849
    67  H    0.066370
    68  H    0.081936
    69  H    0.126059
    70  H    0.111059
    71  H    0.085279
    72  H    0.094481
    73  H    0.115181
    74  H    0.093407
    75  H    0.118686
    76  H    0.114930
    77  H    0.156549
    78  H    0.121767
    79  H    0.133645
    80  H    0.117383
    81  H    0.092476
    82  H    0.112640
    83  H    0.100506
    84  H    0.107871
    85  H    0.107731
    86  H    0.105607
    87  H    0.120111
    88  H    0.116095
    89  H    0.112355
    90  H    0.085777
    91  H    0.114355
    92  H    0.138654
    93  H    0.132388
    94  H    0.119884
    95  H    0.180144
    96  H    0.114812
    97  H    0.157080
    98  H    0.127012
    99  H    0.120376
   100  H    0.141075
   101  H    0.088783
   102  H    0.108673
   103  H    0.117552
   104  H    0.070061
   105  H    0.097734
   106  H    0.101420
   107  H    0.094013
   108  H    0.068042
   109  H    0.092782
   110  H    0.087998
   111  H    0.081719
   112  H    0.087451
   113  H    0.114741
   114  H    0.091070
   115  H    0.093818
   116  H    0.088875
   117  H    0.067614
   118  H    0.092136
   119  H    0.092421
   120  H    0.080074
   121  H    0.057260
   122  H    0.086253
   123  H    0.106238
   124  H    0.116554
   125  H    0.105664
   126  H    0.083456
   127  H    0.096143
   128  H    0.073219
   129  H    0.084809
   130  H    0.077464
   131  H    0.091079
   132  H    0.086779
   133  H    0.092538
   134  H    0.072488
   135  H    0.099280
   136  H    0.088286
   137  H    0.109503
 Sum of Mulliken charges =   0.00000

 Dipole moment (field-independent basis, Debye):
    X=              0.2896    Y=              4.2345    Z=              0.1036  Tot=              4.2457
 Quadrupole moment (field-independent basis, Debye-Ang):
   XX=           -335.7229   YY=           -390.4204   ZZ=           -400.5979
   XY=            -19.7043   XZ=             19.2683   YZ=              0.9357

 Normal termination of Gaussian 09 at Sat Jun 29 18:22:40 2019.
