 Gaussian 09, Revision D.01,
 Gaussian 09:  ES64L-G09RevD.01 24-Apr-2013

 -------------------------------------
 # td=(NStates=1) CAM-B3LYP/6-31G(d,p)
 -------------------------------------

 --
 TD
 --
 Symbolic Z-matrix:
 Charge =  0 Multiplicity = 1

                         Standard orientation:
 ---------------------------------------------------------------------
 Center     Atomic      Atomic             Coordinates (Angstroms)
 Number     Number       Type             X           Y           Z
 ---------------------------------------------------------------------
      1         12           0       -7.230273    0.575366    0.180487
      2          6           0       -4.863190   -1.991621    0.396132
      3          6           0       -4.785248    2.799177    1.123007
      4          6           0       -9.357571    3.091985   -0.272361
      5          6           0       -9.493932   -1.659783   -0.879101
      6          7           0       -5.095868    0.352450    0.719035
      7          6           0       -4.285759   -0.840925    0.713437
      8          6           0       -2.961597   -0.467945    1.143772
      9          6           0       -3.046668    1.087576    1.713246
     10          6           0       -4.330338    1.419307    1.141862
     11          6           0       -2.812888    1.126187    3.189501
     12          6           0       -1.947726   -0.598924   -0.006045
     13          6           0       -0.554499   -0.338781    0.464578
     14          6           0        0.536917   -0.672456   -0.626772
     15          8           0        0.231299   -0.965075   -1.759480
     16          8           0        1.749179   -0.368594   -0.187512
     17          7           0       -7.185053    2.664435    0.470192
     18          6           0       -6.014226    3.327441    0.780832
     19          6           0       -6.309032    4.749111    0.881146
     20          6           0       -7.686386    4.813633    0.583069
     21          6           0       -8.107935    3.563389    0.287356
     22          6           0       -5.496669    5.892969    1.380913
     23          6           0       -8.499683    5.983200    0.353038
     24          6           0       -8.096905    7.310418    0.047564
     25          7           0       -9.152596    0.636948   -0.483247
     26          6           0       -9.788090    1.785504   -0.534134
     27          6           0      -11.173678    1.478602   -1.061546
     28          6           0      -11.163534    0.151543   -1.264834
     29          6           0       -9.894132   -0.382610   -0.865553
     30          6           0      -12.268661    2.389681   -1.407830
     31          6           0      -12.391398   -0.741664   -1.767419
     32          6           0      -12.244945   -1.203266   -3.208124
     33          7           0       -7.231638   -1.401878   -0.181192
     34          6           0       -8.236575   -2.283285   -0.644313
     35          6           0       -7.882222   -3.578349   -0.571061
     36          6           0       -6.476882   -3.623885   -0.112016
     37          6           0       -6.193733   -2.265441    0.046778
     38          6           0       -8.700862   -4.806495   -0.695279
     39          6           0       -5.399184   -4.403190    0.159272
     40          8           0       -5.156643   -5.601708    0.150926
     41          6           0       -4.197978   -3.379623    0.473860
     42          6           0       -3.603976   -3.722909    1.814166
     43          8           0       -3.720636   -3.094466    2.829891
     44          8           0       -2.698115   -4.724024    1.777371
     45          6           0       -2.174864   -5.149607    3.029667
     46          6           0        2.840446   -0.593423   -1.266909
     47          6           0        4.077581   -0.358868   -0.607061
     48          6           0        5.044271    0.501778   -1.034309
     49          6           0        4.977638    1.289009   -2.268253
     50          6           0        6.316796    0.626294   -0.240894
     51          6           0        7.597639   -0.086537   -0.912299
     52          6           0        8.914093    0.020812   -0.135114
     53          6           0       10.169662   -0.455248   -0.933262
     54          6           0       10.050555   -1.991380   -1.275677
     55          6           0       11.422255   -0.174908   -0.114463
     56          6           0       12.768841   -0.441966   -0.694381
     57          6           0       13.980230    0.061199    0.142606
     58          6           0       15.264661   -0.111126   -0.490832
     59          6           0       15.611946   -1.560924   -0.894526
     60          6           0       16.393680    0.318762    0.466844
     61          6           0       17.806957    0.444137   -0.252993
     62          6           0       18.839790    1.012577    0.747811
     63          6           0       20.236379    1.198891    0.224723
     64          6           0       20.376040    2.196962   -0.919661
     65          6           0       21.201775    1.488036    1.374921
     66          1           0       -4.061656    3.832347    1.416542
     67          1           0      -10.311363    3.752362   -0.238728
     68          1           0      -10.247322   -2.497442   -1.220090
     69          1           0       -2.429073   -1.177718    1.917994
     70          1           0       -2.370852    1.783145    1.118806
     71          1           0       -1.867002    0.847521    3.538948
     72          1           0       -3.230645    2.159421    3.920279
     73          1           0       -3.476745    0.348734    3.710059
     74          1           0       -2.154222   -1.539934   -0.477391
     75          1           0       -2.051487    0.091550   -0.751544
     76          1           0       -0.328186    0.807853    0.889554
     77          1           0       -0.333883   -0.877149    1.368754
     78          1           0       -4.872939    6.338678    0.589245
     79          1           0       -5.913778    6.674881    1.688441
     80          1           0       -4.831095    5.612258    2.284394
     81          1           0       -9.493521    5.972691    0.439930
     82          1           0       -8.886533    7.961725   -0.088285
     83          1           0       -6.940644    7.501761    0.126368
     84          1           0      -12.163822    2.995753   -2.325337
     85          1           0      -13.273235    1.800875   -1.682354
     86          1           0      -12.502588    2.928754   -0.329071
     87          1           0      -12.650304   -1.635694   -1.031175
     88          1           0      -13.321903   -0.178726   -1.700294
     89          1           0      -13.155659   -1.660605   -3.384046
     90          1           0      -12.143151   -0.281690   -3.926946
     91          1           0      -11.274511   -1.777790   -3.345380
     92          1           0       -9.256155   -4.979073   -1.779408
     93          1           0       -7.779104   -5.562576   -0.607828
     94          1           0       -9.306271   -4.749698    0.076064
     95          1           0       -3.429582   -3.291217   -0.386659
     96          1           0       -1.748764   -4.291425    3.512769
     97          1           0       -3.111075   -5.559396    3.639119
     98          1           0       -1.509962   -5.894600    2.860758
     99          1           0        2.795617   -1.997487   -1.337091
    100          1           0        2.386124   -0.053768   -2.248236
    101          1           0        4.195262   -0.928578    0.339771
    102          1           0        4.008682    1.733725   -2.516412
    103          1           0        5.466455    2.246345   -2.109275
    104          1           0        5.438911    0.800344   -3.098491
    105          1           0        6.600874    1.730545   -0.082345
    106          1           0        6.160730    0.142677    0.731421
    107          1           0        7.307967   -1.240231   -1.118630
    108          1           0        7.718646    0.344033   -1.882731
    109          1           0        8.952536    0.997042    0.112521
    110          1           0        8.704620   -0.510373    0.729079
    111          1           0       10.374500    0.124705   -1.683386
    112          1           0        9.312339   -2.220528   -2.088142
    113          1           0       10.997928   -2.473640   -1.944399
    114          1           0        9.862681   -2.621062   -0.268805
    115          1           0       11.354428    0.985927    0.199735
    116          1           0       11.494715   -0.689953    0.801469
    117          1           0       12.958575   -1.540453   -1.070836
    118          1           0       12.760628    0.106332   -1.596733
    119          1           0       13.850012    1.114089    0.335781
    120          1           0       13.917142   -0.263232    1.218023
    121          1           0       15.197809    0.537320   -1.460667
    122          1           0       15.617380   -2.111911   -0.037116
    123          1           0       14.697892   -1.806695   -1.513632
    124          1           0       16.663141   -1.626262   -1.442997
    125          1           0       16.101033    1.315898    0.974930
    126          1           0       16.353162   -0.618048    1.093956
    127          1           0       18.204403   -0.612051   -0.546237
    128          1           0       17.513415    0.945930   -1.114505
    129          1           0       18.225420    2.064951    1.097957
    130          1           0       18.848373    0.312054    1.639753
    131          1           0       20.507264    0.190588   -0.208727
    132          1           0       20.333398    3.243249   -0.553365
    133          1           0       21.445276    2.044959   -1.254017
    134          1           0       19.734364    2.086922   -1.876648
    135          1           0       21.308173    0.737689    2.281631
    136          1           0       22.271394    1.523517    1.114834
    137          1           0       21.041354    2.434488    1.891693
 ---------------------------------------------------------------------

 SCF Done:  E(RCAM-B3LYP) =  -2932.60628598     A.U. after   18 cycles

 Excitation energies and oscillator strengths:

 Excited State   1:      Singlet-A      1.9976 eV  620.67 nm  f=0.2834  <S**2>=0.000
     240 -> 243       -0.17628
     241 -> 242        0.67778
 This state for optimization and/or second-order correction.
 Total Energy, E(TD-HF/TD-KS) =  -2932.53287616
 Copying the excited state density for this state as the 1-particle RhoCI density.

 The electronic state is 1-A.
 Alpha  occ. eigenvalues --  -46.85243 -19.26114 -19.24397 -19.20276 -19.19734
 Alpha  occ. eigenvalues --  -19.18448 -14.42702 -14.39262 -14.39168 -14.38702
 Alpha  occ. eigenvalues --  -10.38627 -10.38125 -10.35454 -10.33368 -10.32647
 Alpha  occ. eigenvalues --  -10.30534 -10.30181 -10.29939 -10.29704 -10.29635
 Alpha  occ. eigenvalues --  -10.28929 -10.28813 -10.28366 -10.28200 -10.28181
 Alpha  occ. eigenvalues --  -10.28149 -10.28143 -10.28117 -10.28067 -10.28024
 Alpha  occ. eigenvalues --  -10.27831 -10.27812 -10.27720 -10.27642 -10.27392
 Alpha  occ. eigenvalues --  -10.27310 -10.27240 -10.27198 -10.26929 -10.26848
 Alpha  occ. eigenvalues --  -10.26708 -10.26652 -10.26631 -10.26606 -10.26536
 Alpha  occ. eigenvalues --  -10.26269 -10.26197 -10.26187 -10.26050 -10.25963
 Alpha  occ. eigenvalues --  -10.25862 -10.25692 -10.25574 -10.25571 -10.25531
 Alpha  occ. eigenvalues --  -10.25425 -10.25243 -10.25202 -10.25103 -10.25082
 Alpha  occ. eigenvalues --  -10.25077 -10.24634 -10.24393 -10.24334 -10.24068
 Alpha  occ. eigenvalues --   -3.14118  -1.88834  -1.88345  -1.88292  -1.17717
 Alpha  occ. eigenvalues --   -1.17292  -1.09195  -1.08477  -1.08147  -1.06333
 Alpha  occ. eigenvalues --   -1.05571  -1.03376  -1.02218  -0.92704  -0.91880
 Alpha  occ. eigenvalues --   -0.91402  -0.89971  -0.89827  -0.89684  -0.88968
 Alpha  occ. eigenvalues --   -0.88729  -0.88271  -0.88083  -0.87098  -0.85953
 Alpha  occ. eigenvalues --   -0.85515  -0.84064  -0.83277  -0.83147  -0.82555
 Alpha  occ. eigenvalues --   -0.82007  -0.81633  -0.80742  -0.79864  -0.79602
 Alpha  occ. eigenvalues --   -0.78123  -0.77133  -0.76751  -0.76076  -0.75416
 Alpha  occ. eigenvalues --   -0.75251  -0.75145  -0.73802  -0.73519  -0.72565
 Alpha  occ. eigenvalues --   -0.72037  -0.70514  -0.69273  -0.68755  -0.68621
 Alpha  occ. eigenvalues --   -0.67329  -0.66525  -0.65556  -0.65393  -0.65027
 Alpha  occ. eigenvalues --   -0.64147  -0.63445  -0.62253  -0.62240  -0.61474
 Alpha  occ. eigenvalues --   -0.61365  -0.61119  -0.60901  -0.60113  -0.59356
 Alpha  occ. eigenvalues --   -0.58836  -0.58433  -0.57539  -0.56387  -0.55984
 Alpha  occ. eigenvalues --   -0.55473  -0.55308  -0.55065  -0.54572  -0.54437
 Alpha  occ. eigenvalues --   -0.54042  -0.53991  -0.53585  -0.53151  -0.52992
 Alpha  occ. eigenvalues --   -0.52717  -0.52523  -0.52416  -0.52187  -0.51830
 Alpha  occ. eigenvalues --   -0.51753  -0.51618  -0.51176  -0.50939  -0.50718
 Alpha  occ. eigenvalues --   -0.50644  -0.50437  -0.50197  -0.49922  -0.49797
 Alpha  occ. eigenvalues --   -0.49339  -0.49189  -0.49096  -0.48788  -0.48482
 Alpha  occ. eigenvalues --   -0.48239  -0.48008  -0.47863  -0.47278  -0.47258
 Alpha  occ. eigenvalues --   -0.46934  -0.46782  -0.46426  -0.46331  -0.46069
 Alpha  occ. eigenvalues --   -0.45696  -0.45494  -0.45149  -0.45061  -0.44964
 Alpha  occ. eigenvalues --   -0.44649  -0.44377  -0.44253  -0.43915  -0.43839
 Alpha  occ. eigenvalues --   -0.43571  -0.43376  -0.43321  -0.43004  -0.42665
 Alpha  occ. eigenvalues --   -0.42553  -0.42289  -0.42225  -0.42075  -0.41910
 Alpha  occ. eigenvalues --   -0.41557  -0.41445  -0.41214  -0.41044  -0.40818
 Alpha  occ. eigenvalues --   -0.40722  -0.40387  -0.40309  -0.40221  -0.40161
 Alpha  occ. eigenvalues --   -0.39984  -0.39729  -0.39278  -0.39080  -0.39029
 Alpha  occ. eigenvalues --   -0.38888  -0.38746  -0.38581  -0.38159  -0.38152
 Alpha  occ. eigenvalues --   -0.37518  -0.37333  -0.37316  -0.37081  -0.36858
 Alpha  occ. eigenvalues --   -0.36369  -0.36362  -0.36226  -0.35796  -0.35690
 Alpha  occ. eigenvalues --   -0.35202  -0.35142  -0.34523  -0.33857  -0.33833
 Alpha  occ. eigenvalues --   -0.32967  -0.32902  -0.32300  -0.31261  -0.29463
 Alpha  occ. eigenvalues --   -0.29251  -0.28844  -0.28051  -0.27385  -0.23533
 Alpha  occ. eigenvalues --   -0.21727
 Alpha virt. eigenvalues --   -0.07828  -0.02039   0.00785   0.03353   0.03650
 Alpha virt. eigenvalues --    0.05533   0.06177   0.06611   0.06693   0.07152
 Alpha virt. eigenvalues --    0.08679   0.10418   0.10802   0.11174   0.11590

 Mulliken charges:
               1
     1  Mg   0.831748
     2  C    0.038083
     3  C   -0.196485
     4  C   -0.190619
     5  C   -0.220061
     6  N   -0.630063
     7  C    0.355761
     8  C   -0.223108
     9  C   -0.114781
    10  C    0.328989
    11  C   -0.300080
    12  C   -0.153530
    13  C   -0.275920
    14  C    0.613622
    15  O   -0.477604
    16  O   -0.480726
    17  N   -0.710432
    18  C    0.325298
    19  C    0.012514
    20  C    0.008836
    21  C    0.347431
    22  C   -0.375193
    23  C   -0.090087
    24  C   -0.231990
    25  N   -0.728152
    26  C    0.329976
    27  C    0.009384
    28  C    0.033148
    29  C    0.350643
    30  C   -0.376059
    31  C   -0.230721
    32  C   -0.293310
    33  N   -0.731896
    34  C    0.287191
    35  C    0.003446
    36  C    0.099304
    37  C    0.283815
    38  C   -0.359444
    39  C    0.277709
    40  O   -0.487210
    41  C   -0.333809
    42  C    0.624459
    43  O   -0.472729
    44  O   -0.455701
    45  C   -0.065472
    46  C    0.008719
    47  C   -0.102979
    48  C    0.130907
    49  C   -0.377691
    50  C   -0.234512
    51  C   -0.190380
    52  C   -0.162627
    53  C   -0.034926
    54  C   -0.302829
    55  C   -0.177215
    56  C   -0.186656
    57  C   -0.166355
    58  C   -0.071428
    59  C   -0.298934
    60  C   -0.167174
    61  C   -0.177021
    62  C   -0.137844
    63  C   -0.042298
    64  C   -0.307280
    65  C   -0.322612
    66  H    0.081656
    67  H    0.079759
    68  H    0.089629
    69  H    0.121910
    70  H    0.113803
    71  H    0.130767
    72  H    0.065751
    73  H    0.131920
    74  H    0.122973
    75  H    0.123582
    76  H    0.106898
    77  H    0.122705
    78  H    0.123630
    79  H    0.136851
    80  H    0.110882
    81  H    0.089004
    82  H    0.108790
    83  H    0.089093
    84  H    0.135300
    85  H    0.100548
    86  H    0.100038
    87  H    0.091809
    88  H    0.100911
    89  H    0.116187
    90  H    0.093187
    91  H    0.110730
    92  H    0.096269
    93  H    0.140500
    94  H    0.144088
    95  H    0.158941
    96  H    0.125078
    97  H    0.110012
    98  H    0.127435
    99  H    0.071126
   100  H    0.150766
   101  H    0.109034
   102  H    0.117379
   103  H    0.112837
   104  H    0.139203
   105  H    0.089316
   106  H    0.100290
   107  H    0.077434
   108  H    0.095110
   109  H    0.098444
   110  H    0.103409
   111  H    0.092808
   112  H    0.108659
   113  H    0.071971
   114  H    0.096554
   115  H    0.059344
   116  H    0.093769
   117  H    0.087359
   118  H    0.091100
   119  H    0.095459
   120  H    0.078717
   121  H    0.063070
   122  H    0.110672
   123  H    0.090932
   124  H    0.093790
   125  H    0.076305
   126  H    0.085866
   127  H    0.075991
   128  H    0.107297
   129  H    0.046665
   130  H    0.092746
   131  H    0.085869
   132  H    0.103971
   133  H    0.096649
   134  H    0.101381
   135  H    0.086554
   136  H    0.098124
   137  H    0.108356
 Sum of Mulliken charges =   0.00000

 Dipole moment (field-independent basis, Debye):
    X=              2.2181    Y=              6.9956    Z=              0.7634  Tot=              7.3784
 Quadrupole moment (field-independent basis, Debye-Ang):
   XX=           -334.6557   YY=           -403.8148   ZZ=           -396.6679
   XY=            -29.6953   XZ=              2.3825   YZ=             -2.7822

 Normal termination of Gaussian 09 at Sun Jun 30 15:07:05 2019.
