 Gaussian 09, Revision D.01,
 Gaussian 09:  ES64L-G09RevD.01 24-Apr-2013

 -------------------------------------
 # td=(NStates=1) CAM-B3LYP/6-31G(d,p)
 -------------------------------------

 --
 TD
 --
 Symbolic Z-matrix:
 Charge =  0 Multiplicity = 1

                         Standard orientation:
 ---------------------------------------------------------------------
 Center     Atomic      Atomic             Coordinates (Angstroms)
 Number     Number       Type             X           Y           Z
 ---------------------------------------------------------------------
      1         12           0       -7.179155    0.544140    0.210849
      2          6           0       -4.923842   -1.912237    0.556662
      3          6           0       -4.774068    2.829962    1.267396
      4          6           0       -9.324984    3.147597   -0.374646
      5          6           0       -9.582130   -1.727142   -0.904460
      6          7           0       -5.159881    0.440878    0.748577
      7          6           0       -4.377241   -0.790728    0.838554
      8          6           0       -2.970832   -0.488902    1.320768
      9          6           0       -3.148434    0.943945    1.808270
     10          6           0       -4.481412    1.420244    1.191961
     11          6           0       -2.987914    1.060604    3.349538
     12          6           0       -1.870586   -0.510526    0.076582
     13          6           0       -0.526901   -0.418667    0.476912
     14          6           0        0.464990   -0.582856   -0.724474
     15          8           0        0.168548   -1.039048   -1.883301
     16          8           0        1.759032   -0.390800   -0.338566
     17          7           0       -6.979515    2.625727    0.375749
     18          6           0       -6.000373    3.401217    0.827497
     19          6           0       -6.412107    4.706841    0.859578
     20          6           0       -7.691185    4.933563    0.504606
     21          6           0       -8.038656    3.472675    0.102816
     22          6           0       -5.483220    5.821573    1.395563
     23          6           0       -8.589670    6.056845    0.397563
     24          6           0       -8.097383    7.279204    0.059790
     25          7           0       -9.086144    0.709908   -0.533609
     26          6           0       -9.871112    1.866929   -0.692704
     27          6           0      -11.111893    1.516742   -1.265317
     28          6           0      -11.176326    0.225031   -1.193257
     29          6           0       -9.892141   -0.342930   -0.789019
     30          6           0      -12.230149    2.517003   -1.503771
     31          6           0      -12.411612   -0.663715   -1.675576
     32          6           0      -12.177573   -1.005749   -3.039673
     33          7           0       -7.250579   -1.474861    0.064095
     34          6           0       -8.355490   -2.249729   -0.393425
     35          6           0       -7.887725   -3.542359   -0.397629
     36          6           0       -6.575156   -3.625537   -0.041120
     37          6           0       -6.271477   -2.159901    0.248703
     38          6           0       -8.712958   -4.824249   -0.868797
     39          6           0       -5.397425   -4.410411    0.146730
     40          8           0       -5.234699   -5.624200    0.161654
     41          6           0       -4.268108   -3.305102    0.507052
     42          6           0       -3.511582   -3.753220    1.810565
     43          8           0       -3.725306   -3.315680    2.876881
     44          8           0       -2.742718   -4.759507    1.526776
     45          6           0       -2.085702   -5.402924    2.699817
     46          6           0        2.810796   -0.549169   -1.324461
     47          6           0        4.093015   -0.326966   -0.586099
     48          6           0        5.102263    0.454478   -0.894734
     49          6           0        5.131511    1.292937   -2.154980
     50          6           0        6.425412    0.458977   -0.159665
     51          6           0        7.622378   -0.196775   -0.964924
     52          6           0        8.932126   -0.120335   -0.213615
     53          6           0       10.256012   -0.543938   -1.033678
     54          6           0       10.098967   -1.943132   -1.609053
     55          6           0       11.420408   -0.208381   -0.123748
     56          6           0       12.817416   -0.406647   -0.731396
     57          6           0       13.951933   -0.130036    0.198666
     58          6           0       15.312688   -0.235340   -0.423733
     59          6           0       15.648641   -1.595439   -0.863189
     60          6           0       16.352141    0.360141    0.509183
     61          6           0       17.783590    0.460984   -0.055892
     62          6           0       18.764615    1.274472    0.888997
     63          6           0       20.208701    1.298090    0.373239
     64          6           0       20.348023    2.023561   -1.014546
     65          6           0       21.214192    1.926456    1.316241
     66          1           0       -3.995045    3.494725    1.518878
     67          1           0       -9.952296    3.940795   -0.505170
     68          1           0      -10.374436   -2.415306   -1.165911
     69          1           0       -2.835885   -1.134079    2.073257
     70          1           0       -2.426570    1.624408    1.383058
     71          1           0       -2.037201    0.769369    3.662646
     72          1           0       -3.421381    1.998620    3.813846
     73          1           0       -3.728640    0.310878    3.869111
     74          1           0       -2.024925   -1.384826   -0.536708
     75          1           0       -2.164471    0.235032   -0.669177
     76          1           0       -0.465792    0.513847    0.849596
     77          1           0       -0.258444   -1.122788    1.350813
     78          1           0       -4.811710    6.109886    0.652844
     79          1           0       -6.109828    6.643989    1.624537
     80          1           0       -4.657665    5.639519    2.300299
     81          1           0       -9.659202    5.816245    0.319609
     82          1           0       -9.002053    8.068772    0.035639
     83          1           0       -7.152889    7.663916   -0.006624
     84          1           0      -11.840648    3.266171   -2.435993
     85          1           0      -13.255603    2.041347   -1.897094
     86          1           0      -12.548821    3.158887   -0.638337
     87          1           0      -12.327418   -1.475003   -1.057075
     88          1           0      -13.213748    0.008819   -1.586617
     89          1           0      -12.969856   -1.727062   -3.502005
     90          1           0      -12.271733   -0.146007   -3.909019
     91          1           0      -11.357945   -1.727992   -3.161460
     92          1           0       -9.032119   -4.668462   -1.972642
     93          1           0       -7.761739   -5.567152   -1.106832
     94          1           0       -9.556152   -5.351719   -0.227354
     95          1           0       -3.627810   -3.303310   -0.276546
     96          1           0       -1.354694   -4.673113    3.125782
     97          1           0       -2.836459   -5.886305    3.164930
     98          1           0       -1.443907   -6.044562    2.250869
     99          1           0        2.864319   -1.632710   -1.756489
    100          1           0        2.721789    0.092704   -2.239775
    101          1           0        4.156099   -0.898851    0.152528
    102          1           0        4.217899    1.442757   -2.639377
    103          1           0        5.597124    2.216262   -2.059525
    104          1           0        5.703484    0.843361   -3.048966
    105          1           0        6.752775    1.416485    0.042538
    106          1           0        6.324705   -0.224405    0.861437
    107          1           0        7.573914   -1.284627   -1.277739
    108          1           0        7.881703    0.399509   -1.859941
    109          1           0        9.185873    0.909402    0.108287
    110          1           0        8.855956   -0.638188    0.690641
    111          1           0       10.310030    0.081346   -1.936740
    112          1           0        9.167941   -2.046646   -2.324198
    113          1           0       11.073471   -1.848548   -2.169859
    114          1           0        9.983207   -2.714114   -0.881305
    115          1           0       11.467543    0.673138    0.397591
    116          1           0       11.517283   -0.910204    0.826986
    117          1           0       12.922592   -1.457491   -1.053705
    118          1           0       12.748495    0.361043   -1.663624
    119          1           0       13.881000    0.849478    0.679521
    120          1           0       13.774480   -1.060421    0.863151
    121          1           0       15.178323    0.330596   -1.335900
    122          1           0       15.970654   -2.115274    0.010125
    123          1           0       14.817524   -2.025222   -1.511102
    124          1           0       16.532572   -1.506223   -1.513382
    125          1           0       16.127885    1.472181    0.997744
    126          1           0       16.488894   -0.138267    1.338922
    127          1           0       18.097987   -0.430898   -0.362721
    128          1           0       17.815422    1.105161   -1.046230
    129          1           0       18.349712    2.175051    0.940883
    130          1           0       18.726447    0.713696    1.866441
    131          1           0       20.519363    0.298575    0.274584
    132          1           0       20.232406    3.001293   -0.949147
    133          1           0       21.550730    1.917212   -1.204052
    134          1           0       19.677852    1.782802   -1.703410
    135          1           0       21.021646    1.371009    2.461331
    136          1           0       22.229703    1.711069    1.046846
    137          1           0       20.887416    2.820889    1.481048
 ---------------------------------------------------------------------

 SCF Done:  E(RCAM-B3LYP) =  -2932.61607854     A.U. after   17 cycles

 Excitation energies and oscillator strengths:

 Excited State   1:      Singlet-A      2.0158 eV  615.07 nm  f=0.2866  <S**2>=0.000
     240 -> 243        0.18560
     241 -> 242        0.67586
 This state for optimization and/or second-order correction.
 Total Energy, E(TD-HF/TD-KS) =  -2932.54199976
 Copying the excited state density for this state as the 1-particle RhoCI density.

 The electronic state is 1-A.
 Alpha  occ. eigenvalues --  -46.84526 -19.27201 -19.25641 -19.21215 -19.19795
 Alpha  occ. eigenvalues --  -19.19269 -14.41221 -14.39495 -14.39355 -14.39056
 Alpha  occ. eigenvalues --  -10.40536 -10.37840 -10.34282 -10.32804 -10.30989
 Alpha  occ. eigenvalues --  -10.30377 -10.30317 -10.29422 -10.29404 -10.29181
 Alpha  occ. eigenvalues --  -10.28998 -10.28964 -10.28874 -10.28407 -10.28312
 Alpha  occ. eigenvalues --  -10.28147 -10.28052 -10.27903 -10.27719 -10.27511
 Alpha  occ. eigenvalues --  -10.27357 -10.27268 -10.27240 -10.27046 -10.26855
 Alpha  occ. eigenvalues --  -10.26640 -10.26563 -10.26522 -10.26200 -10.26145
 Alpha  occ. eigenvalues --  -10.26117 -10.26112 -10.26072 -10.25924 -10.25744
 Alpha  occ. eigenvalues --  -10.25560 -10.25557 -10.25386 -10.25184 -10.25166
 Alpha  occ. eigenvalues --  -10.25142 -10.25138 -10.25030 -10.25007 -10.25001
 Alpha  occ. eigenvalues --  -10.24952 -10.24818 -10.24650 -10.24424 -10.24409
 Alpha  occ. eigenvalues --  -10.24395 -10.24117 -10.24006 -10.23941 -10.23430
 Alpha  occ. eigenvalues --   -3.13554  -1.88272  -1.87776  -1.87740  -1.19100
 Alpha  occ. eigenvalues --   -1.16933  -1.09946  -1.09361  -1.06614  -1.06601
 Alpha  occ. eigenvalues --   -1.04808  -1.03858  -1.03087  -0.92166  -0.92003
 Alpha  occ. eigenvalues --   -0.91361  -0.90813  -0.90004  -0.89800  -0.89319
 Alpha  occ. eigenvalues --   -0.88972  -0.88437  -0.87330  -0.86728  -0.86625
 Alpha  occ. eigenvalues --   -0.85651  -0.84515  -0.83838  -0.83507  -0.83286
 Alpha  occ. eigenvalues --   -0.82079  -0.81636  -0.80820  -0.80618  -0.77606
 Alpha  occ. eigenvalues --   -0.77308  -0.76669  -0.76490  -0.76469  -0.76027
 Alpha  occ. eigenvalues --   -0.75523  -0.75500  -0.74446  -0.73962  -0.72782
 Alpha  occ. eigenvalues --   -0.71479  -0.70450  -0.69680  -0.69194  -0.68564
 Alpha  occ. eigenvalues --   -0.67478  -0.66894  -0.66196  -0.65538  -0.64606
 Alpha  occ. eigenvalues --   -0.64344  -0.64062  -0.63966  -0.63374  -0.62406
 Alpha  occ. eigenvalues --   -0.62039  -0.61791  -0.61030  -0.59723  -0.59348
 Alpha  occ. eigenvalues --   -0.59167  -0.58525  -0.57793  -0.57282  -0.57195
 Alpha  occ. eigenvalues --   -0.56734  -0.56030  -0.55404  -0.55199  -0.54606
 Alpha  occ. eigenvalues --   -0.54548  -0.54262  -0.54012  -0.53905  -0.53541
 Alpha  occ. eigenvalues --   -0.53402  -0.53269  -0.53017  -0.52447  -0.52279
 Alpha  occ. eigenvalues --   -0.51985  -0.51441  -0.51320  -0.51100  -0.50898
 Alpha  occ. eigenvalues --   -0.50823  -0.50644  -0.50507  -0.50389  -0.49899
 Alpha  occ. eigenvalues --   -0.49724  -0.49382  -0.49213  -0.48985  -0.48781
 Alpha  occ. eigenvalues --   -0.48518  -0.48257  -0.48100  -0.47476  -0.46990
 Alpha  occ. eigenvalues --   -0.46891  -0.46773  -0.46272  -0.46141  -0.46096
 Alpha  occ. eigenvalues --   -0.45933  -0.45844  -0.45672  -0.45633  -0.45461
 Alpha  occ. eigenvalues --   -0.45039  -0.44648  -0.44484  -0.44335  -0.44138
 Alpha  occ. eigenvalues --   -0.43885  -0.43747  -0.43617  -0.43473  -0.43414
 Alpha  occ. eigenvalues --   -0.43038  -0.42702  -0.42454  -0.42341  -0.42139
 Alpha  occ. eigenvalues --   -0.42089  -0.41768  -0.41647  -0.41470  -0.41458
 Alpha  occ. eigenvalues --   -0.41300  -0.41170  -0.40448  -0.40237  -0.39994
 Alpha  occ. eigenvalues --   -0.39921  -0.39801  -0.39710  -0.39433  -0.39166
 Alpha  occ. eigenvalues --   -0.39046  -0.38756  -0.38108  -0.37837  -0.37705
 Alpha  occ. eigenvalues --   -0.37593  -0.37300  -0.37266  -0.36864  -0.36543
 Alpha  occ. eigenvalues --   -0.36321  -0.36319  -0.35810  -0.35775  -0.35286
 Alpha  occ. eigenvalues --   -0.35168  -0.35035  -0.34668  -0.33840  -0.33462
 Alpha  occ. eigenvalues --   -0.33318  -0.32687  -0.32496  -0.31153  -0.30193
 Alpha  occ. eigenvalues --   -0.30071  -0.29177  -0.28906  -0.28169  -0.23792
 Alpha  occ. eigenvalues --   -0.20817
 Alpha virt. eigenvalues --   -0.06365  -0.02347   0.02029   0.03665   0.04233
 Alpha virt. eigenvalues --    0.05783   0.06557   0.06791   0.07924   0.08654
 Alpha virt. eigenvalues --    0.09227   0.10644   0.11517   0.11694   0.12000

 Mulliken charges:
               1
     1  Mg   0.814390
     2  C    0.103359
     3  C   -0.220942
     4  C   -0.183897
     5  C   -0.137345
     6  N   -0.643817
     7  C    0.242874
     8  C   -0.131520
     9  C   -0.151051
    10  C    0.389281
    11  C   -0.319371
    12  C   -0.192511
    13  C   -0.237518
    14  C    0.597802
    15  O   -0.492375
    16  O   -0.470090
    17  N   -0.708790
    18  C    0.390123
    19  C   -0.046443
    20  C    0.076281
    21  C    0.268604
    22  C   -0.372833
    23  C   -0.092264
    24  C   -0.213226
    25  N   -0.700691
    26  C    0.268836
    27  C    0.087472
    28  C   -0.064177
    29  C    0.315354
    30  C   -0.364710
    31  C   -0.182880
    32  C   -0.294846
    33  N   -0.727492
    34  C    0.244951
    35  C   -0.031542
    36  C    0.056014
    37  C    0.300870
    38  C   -0.376884
    39  C    0.344906
    40  O   -0.474517
    41  C   -0.318702
    42  C    0.596196
    43  O   -0.465482
    44  O   -0.446104
    45  C   -0.081726
    46  C    0.014885
    47  C   -0.105324
    48  C    0.145206
    49  C   -0.379641
    50  C   -0.219418
    51  C   -0.181162
    52  C   -0.181628
    53  C   -0.071279
    54  C   -0.301050
    55  C   -0.160702
    56  C   -0.189007
    57  C   -0.161233
    58  C   -0.041653
    59  C   -0.319778
    60  C   -0.170925
    61  C   -0.191095
    62  C   -0.170956
    63  C   -0.064804
    64  C   -0.304478
    65  C   -0.282823
    66  H    0.074716
    67  H    0.063000
    68  H    0.109445
    69  H    0.126134
    70  H    0.101158
    71  H    0.122190
    72  H    0.112071
    73  H    0.106507
    74  H    0.126115
    75  H    0.117273
    76  H    0.140111
    77  H    0.133129
    78  H    0.130440
    79  H    0.113481
    80  H    0.090274
    81  H    0.114674
    82  H    0.085629
    83  H    0.123228
    84  H    0.090826
    85  H    0.099950
    86  H    0.125807
    87  H    0.111848
    88  H    0.103157
    89  H    0.077412
    90  H    0.094839
    91  H    0.110847
    92  H    0.108490
    93  H    0.125149
    94  H    0.122715
    95  H    0.155591
    96  H    0.127208
    97  H    0.154396
    98  H    0.136769
    99  H    0.120811
   100  H    0.120393
   101  H    0.073335
   102  H    0.113564
   103  H    0.117240
   104  H    0.110370
   105  H    0.113138
   106  H    0.074743
   107  H    0.092538
   108  H    0.092926
   109  H    0.076184
   110  H    0.094600
   111  H    0.086669
   112  H    0.094941
   113  H    0.102727
   114  H    0.111147
   115  H    0.107618
   116  H    0.060688
   117  H    0.098827
   118  H    0.053557
   119  H    0.090646
   120  H    0.075106
   121  H    0.087701
   122  H    0.106461
   123  H    0.101951
   124  H    0.104939
   125  H    0.054446
   126  H    0.108031
   127  H    0.103470
   128  H    0.061961
   129  H    0.101216
   130  H    0.079932
   131  H    0.093360
   132  H    0.111860
   133  H    0.071121
   134  H    0.109018
   135  H    0.043322
   136  H    0.110525
   137  H    0.117643
 Sum of Mulliken charges =   0.00000

 Dipole moment (field-independent basis, Debye):
    X=              2.2458    Y=              5.2908    Z=              0.8182  Tot=              5.8056
 Quadrupole moment (field-independent basis, Debye-Ang):
   XX=           -340.7140   YY=           -390.7920   ZZ=           -401.0042
   XY=            -31.0392   XZ=              5.8387   YZ=             -5.9035

 Normal termination of Gaussian 09 at Sun Jun 30 23:53:09 2019.
