 Gaussian 09, Revision D.01,
 Gaussian 09:  ES64L-G09RevD.01 24-Apr-2013

 -------------------------------------
 # td=(NStates=1) CAM-B3LYP/6-31G(d,p)
 -------------------------------------

 --
 TD
 --
 Symbolic Z-matrix:
 Charge =  0 Multiplicity = 1

                         Standard orientation:
 ---------------------------------------------------------------------
 Center     Atomic      Atomic             Coordinates (Angstroms)
 Number     Number       Type             X           Y           Z
 ---------------------------------------------------------------------
      1         12           0       -7.183980    0.567766   -0.032424
      2          6           0       -4.867739   -1.924652    0.567503
      3          6           0       -4.817653    2.834185    1.104664
      4          6           0       -9.429464    2.955077   -0.288746
      5          6           0       -9.580308   -1.779543   -0.694079
      6          7           0       -5.135826    0.409145    0.802061
      7          6           0       -4.347230   -0.666175    0.863595
      8          6           0       -2.997095   -0.375304    1.261410
      9          6           0       -3.110063    1.078833    1.680448
     10          6           0       -4.498467    1.510541    1.275670
     11          6           0       -3.061847    1.255315    3.196684
     12          6           0       -1.902755   -0.589403    0.172734
     13          6           0       -0.454373   -0.429437    0.476160
     14          6           0        0.486235   -0.562191   -0.725350
     15          8           0        0.263532   -0.743257   -1.873297
     16          8           0        1.821079   -0.519588   -0.229222
     17          7           0       -7.083887    2.550138    0.219245
     18          6           0       -6.119855    3.332139    0.691540
     19          6           0       -6.452520    4.726328    0.872251
     20          6           0       -7.732136    4.868229    0.380522
     21          6           0       -8.148001    3.494524    0.125452
     22          6           0       -5.582034    5.815800    1.346240
     23          6           0       -8.704612    5.947138    0.426430
     24          6           0       -8.213937    7.166855    0.208863
     25          7           0       -9.111445    0.608070   -0.510795
     26          6           0       -9.850119    1.766618   -0.662902
     27          6           0      -11.177313    1.474281   -1.077016
     28          6           0      -11.338927    0.066905   -1.165511
     29          6           0      -10.028165   -0.471441   -0.730503
     30          6           0      -12.245798    2.471560   -1.438853
     31          6           0      -12.430099   -0.764366   -1.582622
     32          6           0      -12.351761   -0.936017   -3.136251
     33          7           0       -7.237624   -1.443675   -0.090184
     34          6           0       -8.296271   -2.226735   -0.492621
     35          6           0       -7.838963   -3.599958   -0.430400
     36          6           0       -6.500630   -3.551834   -0.133183
     37          6           0       -6.208300   -2.108110    0.064370
     38          6           0       -8.678308   -4.838184   -0.736418
     39          6           0       -5.299940   -4.384397    0.131826
     40          8           0       -5.129801   -5.548727    0.127033
     41          6           0       -4.117353   -3.214290    0.444459
     42          6           0       -3.487820   -3.590755    1.858735
     43          8           0       -3.682590   -3.236724    2.992321
     44          8           0       -2.666596   -4.601597    1.661561
     45          6           0       -1.992955   -5.356260    2.782535
     46          6           0        2.782980   -0.631750   -1.260362
     47          6           0        4.095401   -0.509938   -0.604641
     48          6           0        5.095693    0.320614   -1.000365
     49          6           0        5.094216    1.225240   -2.149327
     50          6           0        6.423266    0.394583   -0.240101
     51          6           0        7.598873   -0.106131   -1.046362
     52          6           0        8.939219   -0.073283   -0.342134
     53          6           0       10.218197   -0.470179   -1.040625
     54          6           0       10.152645   -1.842478   -1.451162
     55          6           0       11.435658   -0.352052   -0.074180
     56          6           0       12.783508   -0.412494   -0.695461
     57          6           0       13.954632   -0.165249    0.195983
     58          6           0       15.406571   -0.123672   -0.466924
     59          6           0       15.639190   -1.558831   -0.888008
     60          6           0       16.383542    0.423579    0.331044
     61          6           0       17.857360    0.583769   -0.153513
     62          6           0       18.734352    1.171204    0.899290
     63          6           0       20.211375    1.334738    0.275767
     64          6           0       20.445737    2.201398   -0.880988
     65          6           0       21.148375    1.746406    1.461446
     66          1           0       -4.078170    3.703726    1.482057
     67          1           0      -10.248216    3.665263   -0.146585
     68          1           0      -10.411736   -2.458929   -0.905895
     69          1           0       -2.517281   -1.047059    1.997770
     70          1           0       -2.254974    1.791761    1.419307
     71          1           0       -2.159859    0.748951    3.528277
     72          1           0       -2.910750    2.493065    3.308996
     73          1           0       -3.996355    0.784960    3.638586
     74          1           0       -2.156865   -1.519325   -0.453800
     75          1           0       -2.143128    0.201739   -0.674002
     76          1           0       -0.125254    0.498091    1.060933
     77          1           0       -0.061806   -1.301143    1.241497
     78          1           0       -5.193131    6.406374    0.487111
     79          1           0       -6.223621    6.651359    2.139329
     80          1           0       -4.565447    5.380377    1.860368
     81          1           0       -9.826186    5.750200    0.607045
     82          1           0       -8.886932    8.101752    0.321021
     83          1           0       -7.237434    7.355510   -0.311991
     84          1           0      -11.890849    2.964919   -2.460724
     85          1           0      -13.064326    1.691027   -1.633692
     86          1           0      -12.392104    3.061355   -0.566884
     87          1           0      -12.291487   -1.828001   -1.084177
     88          1           0      -13.327480   -0.229708   -1.130070
     89          1           0      -13.135813   -1.725830   -3.508261
     90          1           0      -12.487231   -0.041052   -3.661313
     91          1           0      -11.376514   -1.398489   -3.335780
     92          1           0       -9.057808   -4.923182   -1.880746
     93          1           0       -8.118609   -5.666070   -0.959209
     94          1           0       -9.475932   -5.208876    0.032049
     95          1           0       -3.210096   -3.238797   -0.230417
     96          1           0       -1.366004   -4.773177    3.414873
     97          1           0       -2.612760   -5.693863    3.544344
     98          1           0       -1.292273   -6.137886    2.198662
     99          1           0        2.684014   -1.564329   -1.830215
    100          1           0        2.653598    0.164579   -2.060463
    101          1           0        4.437759   -1.411033    0.185243
    102          1           0        4.009253    1.399052   -2.466553
    103          1           0        5.783512    2.184486   -1.780036
    104          1           0        5.619980    0.868177   -2.988625
    105          1           0        6.700193    1.506708    0.000419
    106          1           0        6.381273   -0.213011    0.444135
    107          1           0        7.130974   -1.150094   -1.221024
    108          1           0        7.473581    0.204546   -2.122427
    109          1           0        9.204110    0.949817   -0.043284
    110          1           0        8.837078   -0.500477    0.595819
    111          1           0       10.389659    0.065006   -2.012929
    112          1           0        9.179465   -2.074030   -1.969822
    113          1           0       11.010545   -2.271424   -2.296178
    114          1           0       10.368582   -2.479109   -0.457651
    115          1           0       11.500155    0.668060    0.447072
    116          1           0       11.480014   -0.982508    0.793880
    117          1           0       12.751779   -1.586379   -1.104538
    118          1           0       13.005924    0.508644   -1.516591
    119          1           0       13.668138    0.828729    0.871181
    120          1           0       14.145734   -1.178696    0.943028
    121          1           0       15.357900    0.483932   -1.437131
    122          1           0       15.815627   -2.181112    0.022782
    123          1           0       14.828255   -2.070042   -1.500048
    124          1           0       16.615240   -1.540212   -1.508730
    125          1           0       15.955259    1.480953    0.687873
    126          1           0       16.621230   -0.100665    1.479038
    127          1           0       18.256462   -0.302470   -0.627483
    128          1           0       17.617963    1.389069   -0.972070
    129          1           0       18.361081    2.072892    1.308456
    130          1           0       18.760019    0.365006    1.803217
    131          1           0       20.482130    0.389885   -0.143773
    132          1           0       20.284688    3.222218   -0.509075
    133          1           0       21.462247    2.072430   -0.960446
    134          1           0       20.003940    1.870147   -1.732933
    135          1           0       21.339781    0.684949    2.268264
    136          1           0       22.244928    1.700714    1.180641
    137          1           0       20.873347    2.682276    1.869843
 ---------------------------------------------------------------------

 SCF Done:  E(RCAM-B3LYP) =  -2932.56023808     A.U. after   16 cycles

 Excitation energies and oscillator strengths:

 Excited State   1:      Singlet-A      2.0308 eV  610.53 nm  f=0.2564  <S**2>=0.000
     240 -> 243        0.24591
     241 -> 242        0.65637
 This state for optimization and/or second-order correction.
 Total Energy, E(TD-HF/TD-KS) =  -2932.48560878
 Copying the excited state density for this state as the 1-particle RhoCI density.

 The electronic state is 1-A.
 Alpha  occ. eigenvalues --  -46.84151 -19.25181 -19.24924 -19.22737 -19.21742
 Alpha  occ. eigenvalues --  -19.19412 -14.41099 -14.39995 -14.39420 -14.38931
 Alpha  occ. eigenvalues --  -10.40043 -10.37982 -10.36209 -10.31793 -10.31347
 Alpha  occ. eigenvalues --  -10.30161 -10.30123 -10.29939 -10.29822 -10.29705
 Alpha  occ. eigenvalues --  -10.29256 -10.29158 -10.29044 -10.29017 -10.29004
 Alpha  occ. eigenvalues --  -10.28718 -10.28273 -10.28199 -10.28096 -10.27848
 Alpha  occ. eigenvalues --  -10.27724 -10.27399 -10.27398 -10.27327 -10.27309
 Alpha  occ. eigenvalues --  -10.27284 -10.27193 -10.27106 -10.27047 -10.27031
 Alpha  occ. eigenvalues --  -10.27010 -10.26809 -10.26743 -10.26723 -10.26657
 Alpha  occ. eigenvalues --  -10.26596 -10.26583 -10.26464 -10.26408 -10.26368
 Alpha  occ. eigenvalues --  -10.26356 -10.26342 -10.26291 -10.26167 -10.26059
 Alpha  occ. eigenvalues --  -10.25969 -10.25596 -10.25559 -10.25530 -10.25519
 Alpha  occ. eigenvalues --  -10.25308 -10.25110 -10.25063 -10.24502 -10.22586
 Alpha  occ. eigenvalues --   -3.13351  -1.88038  -1.87592  -1.87541  -1.18189
 Alpha  occ. eigenvalues --   -1.17315  -1.13888  -1.10258  -1.07061  -1.06895
 Alpha  occ. eigenvalues --   -1.05066  -1.03717  -1.01303  -0.92389  -0.91531
 Alpha  occ. eigenvalues --   -0.91442  -0.90626  -0.90327  -0.90076  -0.89698
 Alpha  occ. eigenvalues --   -0.89113  -0.88685  -0.87754  -0.87176  -0.86470
 Alpha  occ. eigenvalues --   -0.85574  -0.84480  -0.83876  -0.83556  -0.82901
 Alpha  occ. eigenvalues --   -0.82064  -0.81092  -0.80814  -0.80049  -0.78097
 Alpha  occ. eigenvalues --   -0.77496  -0.76886  -0.76427  -0.75781  -0.75607
 Alpha  occ. eigenvalues --   -0.75148  -0.74400  -0.73691  -0.73066  -0.72644
 Alpha  occ. eigenvalues --   -0.71051  -0.69917  -0.69794  -0.68299  -0.68020
 Alpha  occ. eigenvalues --   -0.66922  -0.66460  -0.64806  -0.64567  -0.64176
 Alpha  occ. eigenvalues --   -0.63185  -0.63093  -0.62602  -0.62102  -0.61737
 Alpha  occ. eigenvalues --   -0.60658  -0.60443  -0.60026  -0.59302  -0.59186
 Alpha  occ. eigenvalues --   -0.58616  -0.58250  -0.57387  -0.56782  -0.56378
 Alpha  occ. eigenvalues --   -0.55694  -0.55602  -0.55232  -0.54935  -0.54793
 Alpha  occ. eigenvalues --   -0.54602  -0.54099  -0.53801  -0.53462  -0.53153
 Alpha  occ. eigenvalues --   -0.52926  -0.52581  -0.52062  -0.52005  -0.51917
 Alpha  occ. eigenvalues --   -0.51596  -0.51297  -0.51220  -0.51013  -0.50842
 Alpha  occ. eigenvalues --   -0.50499  -0.50252  -0.50061  -0.49784  -0.49671
 Alpha  occ. eigenvalues --   -0.49252  -0.49115  -0.48973  -0.48770  -0.48546
 Alpha  occ. eigenvalues --   -0.48416  -0.48035  -0.47751  -0.47438  -0.47374
 Alpha  occ. eigenvalues --   -0.47066  -0.46888  -0.46511  -0.46444  -0.46171
 Alpha  occ. eigenvalues --   -0.46109  -0.45767  -0.45615  -0.45533  -0.45279
 Alpha  occ. eigenvalues --   -0.45052  -0.44836  -0.44624  -0.44445  -0.44320
 Alpha  occ. eigenvalues --   -0.44001  -0.43820  -0.43576  -0.43475  -0.43304
 Alpha  occ. eigenvalues --   -0.43152  -0.43065  -0.43007  -0.42661  -0.42111
 Alpha  occ. eigenvalues --   -0.41797  -0.41666  -0.41561  -0.41371  -0.41138
 Alpha  occ. eigenvalues --   -0.40840  -0.40626  -0.40421  -0.40381  -0.40303
 Alpha  occ. eigenvalues --   -0.39829  -0.39609  -0.39294  -0.39268  -0.38854
 Alpha  occ. eigenvalues --   -0.38567  -0.38465  -0.37826  -0.37388  -0.37272
 Alpha  occ. eigenvalues --   -0.37072  -0.37004  -0.36816  -0.36457  -0.36321
 Alpha  occ. eigenvalues --   -0.35750  -0.35703  -0.35617  -0.35354  -0.35224
 Alpha  occ. eigenvalues --   -0.34947  -0.34853  -0.34333  -0.34213  -0.33405
 Alpha  occ. eigenvalues --   -0.33061  -0.32457  -0.31595  -0.31132  -0.30214
 Alpha  occ. eigenvalues --   -0.30011  -0.29349  -0.28287  -0.27528  -0.22686
 Alpha  occ. eigenvalues --   -0.21246
 Alpha virt. eigenvalues --   -0.06613  -0.02686   0.02015   0.03994   0.04990
 Alpha virt. eigenvalues --    0.05540   0.05648   0.05976   0.07656   0.08022
 Alpha virt. eigenvalues --    0.08255   0.09737   0.10399   0.10686   0.11201

 Mulliken charges:
               1
     1  Mg   0.830440
     2  C    0.083371
     3  C   -0.199290
     4  C   -0.204688
     5  C   -0.178895
     6  N   -0.650901
     7  C    0.346360
     8  C   -0.140452
     9  C   -0.178950
    10  C    0.355729
    11  C   -0.277255
    12  C   -0.184788
    13  C   -0.260145
    14  C    0.617910
    15  O   -0.435844
    16  O   -0.500012
    17  N   -0.683078
    18  C    0.336070
    19  C    0.038263
    20  C    0.044633
    21  C    0.216528
    22  C   -0.365351
    23  C   -0.062374
    24  C   -0.249314
    25  N   -0.722292
    26  C    0.368533
    27  C   -0.029363
    28  C    0.065590
    29  C    0.257441
    30  C   -0.339919
    31  C   -0.270945
    32  C   -0.298630
    33  N   -0.715880
    34  C    0.266162
    35  C    0.024035
    36  C   -0.031010
    37  C    0.335181
    38  C   -0.380929
    39  C    0.397663
    40  O   -0.410029
    41  C   -0.360620
    42  C    0.589859
    43  O   -0.481336
    44  O   -0.452952
    45  C   -0.085895
    46  C    0.019786
    47  C   -0.130708
    48  C    0.113985
    49  C   -0.350985
    50  C   -0.177559
    51  C   -0.202480
    52  C   -0.156897
    53  C   -0.047231
    54  C   -0.276946
    55  C   -0.184894
    56  C   -0.136005
    57  C   -0.147486
    58  C   -0.041993
    59  C   -0.307606
    60  C   -0.141543
    61  C   -0.171523
    62  C   -0.150404
    63  C   -0.072707
    64  C   -0.286940
    65  C   -0.298364
    66  H    0.071672
    67  H    0.070380
    68  H    0.092602
    69  H    0.130389
    70  H    0.101468
    71  H    0.105606
    72  H    0.073588
    73  H    0.123920
    74  H    0.113310
    75  H    0.100187
    76  H    0.143835
    77  H    0.124046
    78  H    0.130197
    79  H    0.096781
    80  H    0.090540
    81  H    0.111801
    82  H    0.091521
    83  H    0.115268
    84  H    0.122507
    85  H    0.100840
    86  H    0.130628
    87  H    0.099490
    88  H    0.107275
    89  H    0.090792
    90  H    0.124134
    91  H    0.120551
    92  H    0.096627
    93  H    0.149855
    94  H    0.123024
    95  H    0.149108
    96  H    0.128128
    97  H    0.147462
    98  H    0.122795
    99  H    0.122666
   100  H    0.102901
   101  H    0.074987
   102  H    0.103126
   103  H    0.087284
   104  H    0.139750
   105  H    0.085483
   106  H    0.094387
   107  H    0.080099
   108  H    0.086813
   109  H    0.095752
   110  H    0.103240
   111  H    0.093987
   112  H    0.101107
   113  H    0.064011
   114  H    0.077492
   115  H    0.067561
   116  H    0.105980
   117  H    0.074288
   118  H    0.063088
   119  H    0.060186
   120  H    0.050863
   121  H    0.078276
   122  H    0.101906
   123  H    0.106673
   124  H    0.083142
   125  H    0.072213
   126  H    0.037532
   127  H    0.101806
   128  H    0.077306
   129  H    0.096581
   130  H    0.074057
   131  H    0.086261
   132  H    0.090699
   133  H    0.111784
   134  H    0.110656
   135  H    0.049712
   136  H    0.095413
   137  H    0.116477
 Sum of Mulliken charges =   0.00000

 Dipole moment (field-independent basis, Debye):
    X=             -0.1624    Y=              3.5651    Z=             -1.3002  Tot=              3.7983
 Quadrupole moment (field-independent basis, Debye-Ang):
   XX=           -336.1227   YY=           -389.5262   ZZ=           -403.8917
   XY=            -15.9000   XZ=              7.8367   YZ=             -0.8616

 Normal termination of Gaussian 09 at Fri Jun 28 12:00:12 2019.
