 Gaussian 09, Revision D.01,
 Gaussian 09:  ES64L-G09RevD.01 24-Apr-2013

 -------------------------------------
 # td=(NStates=1) CAM-B3LYP/6-31G(d,p)
 -------------------------------------

 --
 TD
 --
 Symbolic Z-matrix:
 Charge =  0 Multiplicity = 1

                         Standard orientation:
 ---------------------------------------------------------------------
 Center     Atomic      Atomic             Coordinates (Angstroms)
 Number     Number       Type             X           Y           Z
 ---------------------------------------------------------------------
      1         12           0       -7.214255    0.631472    0.149831
      2          6           0       -4.861905   -1.961392    0.498437
      3          6           0       -4.827397    2.823692    1.312170
      4          6           0       -9.445136    3.063828   -0.366333
      5          6           0       -9.542359   -1.793267   -0.858814
      6          7           0       -5.050353    0.462657    0.802645
      7          6           0       -4.357253   -0.701575    0.844306
      8          6           0       -2.838263   -0.385867    1.310941
      9          6           0       -2.987357    1.064801    1.734999
     10          6           0       -4.441890    1.514297    1.314365
     11          6           0       -2.874578    1.252924    3.264359
     12          6           0       -2.028217   -0.568993    0.072934
     13          6           0       -0.504197   -0.309869    0.454721
     14          6           0        0.444149   -0.517538   -0.711068
     15          8           0        0.187932   -0.933058   -1.769261
     16          8           0        1.700335   -0.378104   -0.264308
     17          7           0       -7.175697    2.552643    0.453345
     18          6           0       -6.095355    3.329915    0.949688
     19          6           0       -6.369227    4.758224    0.901772
     20          6           0       -7.663352    4.824458    0.487641
     21          6           0       -8.161785    3.418803    0.163657
     22          6           0       -5.565266    5.991723    1.228532
     23          6           0       -8.566878    5.987045    0.222083
     24          6           0       -8.191481    7.245487    0.104564
     25          7           0       -9.164675    0.612070   -0.413674
     26          6           0       -9.851355    1.760880   -0.602987
     27          6           0      -11.245432    1.353194   -1.121217
     28          6           0      -11.154338    0.005128   -1.329260
     29          6           0       -9.901424   -0.422501   -0.848993
     30          6           0      -12.224586    2.309902   -1.553680
     31          6           0      -12.325979   -0.879233   -1.769860
     32          6           0      -12.206992   -1.223137   -3.270349
     33          7           0       -7.185942   -1.423534   -0.212820
     34          6           0       -8.217335   -2.230327   -0.587561
     35          6           0       -7.808083   -3.612734   -0.562514
     36          6           0       -6.463838   -3.521527   -0.068931
     37          6           0       -6.135251   -2.143027    0.192414
     38          6           0       -8.505681   -4.797001   -1.084617
     39          6           0       -5.224715   -4.339538    0.140074
     40          8           0       -4.990206   -5.580455    0.015276
     41          6           0       -4.139538   -3.294746    0.625593
     42          6           0       -3.663081   -3.662184    1.959006
     43          8           0       -3.736088   -3.061190    3.037141
     44          8           0       -2.819459   -4.784495    1.862961
     45          6           0       -2.248023   -5.235702    3.133273
     46          6           0        2.783246   -0.599787   -1.236125
     47          6           0        4.173960   -0.451291   -0.612004
     48          6           0        5.109374    0.442031   -1.056926
     49          6           0        5.093198    1.317069   -2.194400
     50          6           0        6.423263    0.463939   -0.314090
     51          6           0        7.614044   -0.121298   -1.094306
     52          6           0        8.977410   -0.105471   -0.208737
     53          6           0       10.266077   -0.479176   -0.942166
     54          6           0       10.054890   -2.063501   -1.317933
     55          6           0       11.520202   -0.325461   -0.063511
     56          6           0       12.745313   -0.641284   -0.775126
     57          6           0       13.978632   -0.036589    0.040538
     58          6           0       15.345122   -0.325520   -0.461913
     59          6           0       15.739941   -1.835513   -0.776424
     60          6           0       16.347494    0.402796    0.411975
     61          6           0       17.728541    0.513428   -0.220229
     62          6           0       18.678206    1.338937    0.685873
     63          6           0       20.094753    1.357353    0.278049
     64          6           0       20.419744    2.162764   -0.950004
     65          6           0       20.942272    1.820375    1.344351
     66          1           0       -4.006775    3.310016    1.641157
     67          1           0      -10.070941    4.022550   -0.414546
     68          1           0      -10.430216   -2.417106   -0.919251
     69          1           0       -2.692030   -1.060947    2.068315
     70          1           0       -2.196367    1.613624    1.258982
     71          1           0       -1.869602    0.944647    3.822779
     72          1           0       -2.845323    2.391491    3.566907
     73          1           0       -3.650534    0.838998    3.948744
     74          1           0       -2.079445   -1.381825   -0.398100
     75          1           0       -2.106481    0.208149   -0.744965
     76          1           0       -0.346659    0.662117    0.964178
     77          1           0       -0.105960   -0.830581    1.474961
     78          1           0       -4.982638    6.197416    0.391232
     79          1           0       -6.385072    6.691362    1.610850
     80          1           0       -4.866020    5.611099    1.862524
     81          1           0       -9.609234    6.005541    0.339146
     82          1           0       -8.982493    7.902420   -0.274776
     83          1           0       -7.254593    7.535442    0.244892
     84          1           0      -11.666621    3.160688   -2.074962
     85          1           0      -13.156633    1.784924   -1.682511
     86          1           0      -12.655706    2.904932   -0.674701
     87          1           0      -12.506787   -1.623696   -1.037062
     88          1           0      -13.342781   -0.133263   -1.764404
     89          1           0      -13.096539   -1.513638   -3.706359
     90          1           0      -12.052649   -0.160298   -3.745218
     91          1           0      -11.350609   -1.773179   -3.624347
     92          1           0       -8.741120   -4.582851   -2.270594
     93          1           0       -7.858460   -5.737335   -0.763245
     94          1           0       -9.378317   -4.889733   -0.461933
     95          1           0       -3.337881   -3.170915   -0.193577
     96          1           0       -1.548953   -4.511318    3.600912
     97          1           0       -2.990440   -5.678053    3.738180
     98          1           0       -1.537085   -6.040872    2.731568
     99          1           0        2.671778   -1.744718   -1.580423
    100          1           0        2.589076    0.136837   -2.019991
    101          1           0        4.429476   -0.942388    0.239044
    102          1           0        4.084021    1.400817   -2.783505
    103          1           0        5.132273    2.344246   -1.925889
    104          1           0        5.676062    1.209179   -3.008111
    105          1           0        6.660441    1.450101   -0.034354
    106          1           0        6.257096   -0.218514    0.614831
    107          1           0        7.398432   -1.167796   -1.154255
    108          1           0        7.776484    0.431776   -1.844055
    109          1           0        9.278885    1.029008    0.139880
    110          1           0        8.841587   -0.603088    0.845495
    111          1           0       10.109441    0.218732   -1.885413
    112          1           0        9.072379   -2.094119   -1.948514
    113          1           0       10.942266   -2.530023   -1.784644
    114          1           0        9.702007   -2.529982   -0.319362
    115          1           0       11.516907    0.635019    0.411392
    116          1           0       11.410368   -1.027151    1.088975
    117          1           0       12.876342   -1.727546   -0.980764
    118          1           0       12.835255   -0.022061   -1.762237
    119          1           0       13.745348    1.050320    0.277702
    120          1           0       13.820313   -0.397715    1.113145
    121          1           0       15.530275    0.316265   -1.289046
    122          1           0       15.940120   -2.414022   -0.017911
    123          1           0       14.807135   -2.251650   -1.321822
    124          1           0       16.810230   -1.813959   -1.207198
    125          1           0       15.798209    1.261103    0.651309
    126          1           0       16.436683   -0.018967    1.422877
    127          1           0       18.184292   -0.456090   -0.507253
    128          1           0       17.515578    0.835492   -1.232255
    129          1           0       18.204281    2.280628    0.678943
    130          1           0       18.703760    0.941396    1.805291
    131          1           0       20.451055    0.257472    0.055992
    132          1           0       20.265905    3.323022   -0.699818
    133          1           0       21.548301    2.095956   -1.251574
    134          1           0       19.752199    2.098806   -1.880499
    135          1           0       21.017830    1.026410    2.236439
    136          1           0       22.078664    1.924159    1.238176
    137          1           0       20.644143    2.679473    1.548280
 ---------------------------------------------------------------------

 SCF Done:  E(RCAM-B3LYP) =  -2932.59891190     A.U. after   16 cycles

 Excitation energies and oscillator strengths:

 Excited State   1:      Singlet-A      1.9500 eV  635.83 nm  f=0.2710  <S**2>=0.000
     240 -> 243        0.24932
     241 -> 242        0.65900
 This state for optimization and/or second-order correction.
 Total Energy, E(TD-HF/TD-KS) =  -2932.52725245
 Copying the excited state density for this state as the 1-particle RhoCI density.

 The electronic state is 1-A.
 Alpha  occ. eigenvalues --  -46.84561 -19.24924 -19.24741 -19.21348 -19.20702
 Alpha  occ. eigenvalues --  -19.20220 -14.41716 -14.40349 -14.39318 -14.39090
 Alpha  occ. eigenvalues --  -10.39627 -10.38304 -10.35669 -10.32709 -10.31007
 Alpha  occ. eigenvalues --  -10.30776 -10.30740 -10.30285 -10.30037 -10.29473
 Alpha  occ. eigenvalues --  -10.29455 -10.29285 -10.28428 -10.28095 -10.28049
 Alpha  occ. eigenvalues --  -10.28017 -10.27949 -10.27735 -10.27670 -10.27622
 Alpha  occ. eigenvalues --  -10.27557 -10.27519 -10.27339 -10.27284 -10.27250
 Alpha  occ. eigenvalues --  -10.27127 -10.27113 -10.27073 -10.26727 -10.26701
 Alpha  occ. eigenvalues --  -10.26567 -10.26278 -10.26222 -10.26126 -10.26099
 Alpha  occ. eigenvalues --  -10.26035 -10.26033 -10.25910 -10.25842 -10.25768
 Alpha  occ. eigenvalues --  -10.25672 -10.25660 -10.25597 -10.25595 -10.25375
 Alpha  occ. eigenvalues --  -10.25362 -10.25272 -10.25168 -10.25081 -10.25047
 Alpha  occ. eigenvalues --  -10.24915 -10.24896 -10.24753 -10.23602 -10.23474
 Alpha  occ. eigenvalues --   -3.13644  -1.88347  -1.87893  -1.87812  -1.18704
 Alpha  occ. eigenvalues --   -1.15600  -1.09814  -1.07815  -1.07165  -1.04851
 Alpha  occ. eigenvalues --   -1.04017  -1.03620  -1.02637  -0.93563  -0.91834
 Alpha  occ. eigenvalues --   -0.91601  -0.90422  -0.90353  -0.90150  -0.89108
 Alpha  occ. eigenvalues --   -0.88788  -0.88575  -0.87450  -0.86990  -0.85741
 Alpha  occ. eigenvalues --   -0.85526  -0.84484  -0.83623  -0.83235  -0.82841
 Alpha  occ. eigenvalues --   -0.81880  -0.81243  -0.80500  -0.80284  -0.78821
 Alpha  occ. eigenvalues --   -0.78192  -0.77755  -0.76363  -0.75937  -0.75908
 Alpha  occ. eigenvalues --   -0.75201  -0.74978  -0.74065  -0.73037  -0.72571
 Alpha  occ. eigenvalues --   -0.71342  -0.71100  -0.69878  -0.69276  -0.67927
 Alpha  occ. eigenvalues --   -0.67450  -0.67117  -0.66047  -0.65848  -0.64768
 Alpha  occ. eigenvalues --   -0.64144  -0.64045  -0.62685  -0.62238  -0.61950
 Alpha  occ. eigenvalues --   -0.61810  -0.61209  -0.60922  -0.59876  -0.59314
 Alpha  occ. eigenvalues --   -0.59033  -0.58719  -0.58186  -0.57563  -0.56647
 Alpha  occ. eigenvalues --   -0.56108  -0.55692  -0.55445  -0.55010  -0.54755
 Alpha  occ. eigenvalues --   -0.54559  -0.54046  -0.53800  -0.53564  -0.53218
 Alpha  occ. eigenvalues --   -0.52964  -0.52759  -0.52590  -0.52172  -0.51914
 Alpha  occ. eigenvalues --   -0.51598  -0.51508  -0.51315  -0.51215  -0.50636
 Alpha  occ. eigenvalues --   -0.50524  -0.50334  -0.50144  -0.49876  -0.49737
 Alpha  occ. eigenvalues --   -0.49438  -0.49380  -0.49215  -0.48882  -0.48811
 Alpha  occ. eigenvalues --   -0.48617  -0.48167  -0.47903  -0.47505  -0.47390
 Alpha  occ. eigenvalues --   -0.47120  -0.46893  -0.46807  -0.46685  -0.46231
 Alpha  occ. eigenvalues --   -0.46164  -0.46046  -0.45846  -0.45215  -0.45120
 Alpha  occ. eigenvalues --   -0.44528  -0.44412  -0.44402  -0.44151  -0.44103
 Alpha  occ. eigenvalues --   -0.43775  -0.43626  -0.43418  -0.43127  -0.43028
 Alpha  occ. eigenvalues --   -0.42841  -0.42723  -0.42578  -0.42412  -0.42352
 Alpha  occ. eigenvalues --   -0.42139  -0.41825  -0.41593  -0.41493  -0.41468
 Alpha  occ. eigenvalues --   -0.41077  -0.41030  -0.40428  -0.40380  -0.40175
 Alpha  occ. eigenvalues --   -0.39986  -0.39798  -0.39599  -0.39148  -0.38924
 Alpha  occ. eigenvalues --   -0.38605  -0.38325  -0.37992  -0.37684  -0.37565
 Alpha  occ. eigenvalues --   -0.37315  -0.37272  -0.36984  -0.36338  -0.36192
 Alpha  occ. eigenvalues --   -0.36067  -0.35932  -0.35709  -0.35653  -0.35553
 Alpha  occ. eigenvalues --   -0.35354  -0.34787  -0.34435  -0.33876  -0.33666
 Alpha  occ. eigenvalues --   -0.33316  -0.32783  -0.32241  -0.31529  -0.29771
 Alpha  occ. eigenvalues --   -0.29671  -0.28774  -0.28390  -0.27987  -0.23250
 Alpha  occ. eigenvalues --   -0.20641
 Alpha virt. eigenvalues --   -0.06551  -0.03133   0.00949   0.04153   0.04969
 Alpha virt. eigenvalues --    0.05361   0.06077   0.06524   0.07068   0.07292
 Alpha virt. eigenvalues --    0.08789   0.10436   0.10819   0.11133   0.11677

 Mulliken charges:
               1
     1  Mg   0.836587
     2  C    0.033481
     3  C   -0.136812
     4  C   -0.176819
     5  C   -0.168640
     6  N   -0.613578
     7  C    0.240346
     8  C   -0.118578
     9  C   -0.153091
    10  C    0.312007
    11  C   -0.320325
    12  C   -0.156761
    13  C   -0.300981
    14  C    0.610171
    15  O   -0.448448
    16  O   -0.491181
    17  N   -0.732880
    18  C    0.264105
    19  C    0.018429
    20  C   -0.008544
    21  C    0.305829
    22  C   -0.348177
    23  C   -0.084009
    24  C   -0.246137
    25  N   -0.707975
    26  C    0.301241
    27  C    0.034848
    28  C    0.021017
    29  C    0.307810
    30  C   -0.390484
    31  C   -0.237944
    32  C   -0.307186
    33  N   -0.717178
    34  C    0.281569
    35  C    0.021516
    36  C   -0.037331
    37  C    0.343382
    38  C   -0.370782
    39  C    0.359066
    40  O   -0.481024
    41  C   -0.301932
    42  C    0.636291
    43  O   -0.478967
    44  O   -0.471241
    45  C   -0.074975
    46  C    0.028632
    47  C   -0.127141
    48  C    0.145357
    49  C   -0.392507
    50  C   -0.239922
    51  C   -0.150201
    52  C   -0.187918
    53  C   -0.050181
    54  C   -0.311371
    55  C   -0.136029
    56  C   -0.167593
    57  C   -0.207574
    58  C   -0.048192
    59  C   -0.309535
    60  C   -0.178763
    61  C   -0.193712
    62  C   -0.156237
    63  C   -0.040222
    64  C   -0.299644
    65  C   -0.285838
    66  H    0.070795
    67  H    0.094006
    68  H    0.103988
    69  H    0.137293
    70  H    0.107369
    71  H    0.089918
    72  H    0.085703
    73  H    0.132351
    74  H    0.122638
    75  H    0.116950
    76  H    0.130366
    77  H    0.118181
    78  H    0.140958
    79  H    0.129972
    80  H    0.120997
    81  H    0.104250
    82  H    0.097395
    83  H    0.098924
    84  H    0.137169
    85  H    0.115427
    86  H    0.105831
    87  H    0.116023
    88  H    0.068117
    89  H    0.115216
    90  H    0.098165
    91  H    0.119294
    92  H    0.120621
    93  H    0.143675
    94  H    0.131187
    95  H    0.183164
    96  H    0.124463
    97  H    0.139158
    98  H    0.116422
    99  H    0.111186
   100  H    0.121525
   101  H    0.088924
   102  H    0.089939
   103  H    0.128549
   104  H    0.141426
   105  H    0.105213
   106  H    0.082037
   107  H    0.116385
   108  H    0.101148
   109  H    0.047657
   110  H    0.079062
   111  H    0.078317
   112  H    0.092478
   113  H    0.104850
   114  H    0.097653
   115  H    0.099953
   116  H    0.037206
   117  H    0.104174
   118  H    0.088997
   119  H    0.088316
   120  H    0.078323
   121  H    0.090551
   122  H    0.122690
   123  H    0.091579
   124  H    0.091161
   125  H    0.090595
   126  H    0.080838
   127  H    0.089742
   128  H    0.093860
   129  H    0.100981
   130  H    0.081500
   131  H    0.070202
   132  H    0.069936
   133  H    0.096884
   134  H    0.096517
   135  H    0.076667
   136  H    0.087388
   137  H    0.112479
 Sum of Mulliken charges =   0.00000

 Dipole moment (field-independent basis, Debye):
    X=              1.1713    Y=              6.0942    Z=              0.3491  Tot=              6.2156
 Quadrupole moment (field-independent basis, Debye-Ang):
   XX=           -338.7872   YY=           -397.5714   ZZ=           -399.4218
   XY=            -18.0672   XZ=              6.4781   YZ=             -6.2363

 Normal termination of Gaussian 09 at Fri Jun 28 07:21:03 2019.
