 Gaussian 09, Revision D.01,
 Gaussian 09:  ES64L-G09RevD.01 24-Apr-2013

 -------------------------------------
 # td=(NStates=1) CAM-B3LYP/6-31G(d,p)
 -------------------------------------

 --
 TD
 --
 Symbolic Z-matrix:
 Charge =  0 Multiplicity = 1

                         Standard orientation:
 ---------------------------------------------------------------------
 Center     Atomic      Atomic             Coordinates (Angstroms)
 Number     Number       Type             X           Y           Z
 ---------------------------------------------------------------------
      1         12           0       -7.093323    0.591994   -0.007309
      2          6           0       -4.782226   -1.926205    0.400098
      3          6           0       -4.760105    2.836205    1.155316
      4          6           0       -9.399491    3.107121   -0.393369
      5          6           0       -9.452148   -1.779675   -0.837066
      6          7           0       -5.001255    0.445821    0.517676
      7          6           0       -4.288384   -0.696568    0.658434
      8          6           0       -2.867283   -0.311205    1.210452
      9          6           0       -3.119518    1.205248    1.625010
     10          6           0       -4.420517    1.504889    1.092537
     11          6           0       -2.894144    1.301895    3.122944
     12          6           0       -1.885702   -0.494858    0.023844
     13          6           0       -0.489391   -0.362914    0.448937
     14          6           0        0.533664   -0.584588   -0.702655
     15          8           0        0.126179   -0.875129   -1.856695
     16          8           0        1.837011   -0.487770   -0.287535
     17          7           0       -7.136972    2.539661    0.409523
     18          6           0       -6.137501    3.349888    0.762508
     19          6           0       -6.515693    4.660436    0.898163
     20          6           0       -7.798361    4.771868    0.354894
     21          6           0       -8.215269    3.472487    0.063668
     22          6           0       -5.586839    5.798070    1.286777
     23          6           0       -8.666312    5.994301    0.266424
     24          6           0       -8.255061    7.270554    0.221663
     25          7           0       -9.088604    0.684363   -0.466107
     26          6           0       -9.910964    1.760214   -0.590881
     27          6           0      -11.212094    1.428094   -0.848614
     28          6           0      -11.192343    0.002795   -1.233745
     29          6           0       -9.785180   -0.456025   -0.879686
     30          6           0      -12.362808    2.364922   -1.176938
     31          6           0      -12.330065   -0.814004   -1.677770
     32          6           0      -12.220333   -1.174494   -3.126077
     33          7           0       -7.227542   -1.399192   -0.072738
     34          6           0       -8.148312   -2.199594   -0.414745
     35          6           0       -7.835680   -3.684935   -0.433468
     36          6           0       -6.475778   -3.587630   -0.123275
     37          6           0       -6.141904   -2.222588    0.090659
     38          6           0       -8.606950   -4.811842   -0.908740
     39          6           0       -5.279482   -4.354060    0.240372
     40          8           0       -5.155348   -5.587271    0.331619
     41          6           0       -4.080099   -3.357583    0.523607
     42          6           0       -3.508282   -3.531971    1.848133
     43          8           0       -3.669165   -2.876262    2.870587
     44          8           0       -2.697548   -4.677146    1.792731
     45          6           0       -2.079320   -5.145984    3.113873
     46          6           0        2.859745   -0.762889   -1.254444
     47          6           0        4.109060   -0.405221   -0.578184
     48          6           0        5.125110    0.415836   -1.025774
     49          6           0        4.997989    1.131277   -2.298950
     50          6           0        6.341293    0.501757   -0.288317
     51          6           0        7.551827   -0.173016   -0.917082
     52          6           0        8.847435   -0.128193   -0.198553
     53          6           0       10.086208   -0.622070   -0.813413
     54          6           0        9.900641   -2.143661   -1.187163
     55          6           0       11.416140   -0.319825    0.027666
     56          6           0       12.659746   -0.424538   -0.652262
     57          6           0       13.951647   -0.162707    0.200751
     58          6           0       15.301469   -0.229927   -0.394614
     59          6           0       15.710898   -1.600833   -0.850140
     60          6           0       16.370030    0.326967    0.502900
     61          6           0       17.808115    0.459997   -0.134974
     62          6           0       18.757242    1.291812    0.728504
     63          6           0       20.239698    1.427467    0.255981
     64          6           0       20.439695    2.142178   -1.120987
     65          6           0       21.162221    2.092333    1.264483
     66          1           0       -4.124670    3.635110    1.672611
     67          1           0      -10.165348    3.968176   -0.571269
     68          1           0      -10.102054   -2.600687   -1.120456
     69          1           0       -2.684062   -0.940470    1.938813
     70          1           0       -2.521192    1.817703    0.976654
     71          1           0       -1.815020    0.879996    3.378138
     72          1           0       -2.917894    2.350365    3.419253
     73          1           0       -3.686239    0.712991    3.679887
     74          1           0       -2.165729   -1.597866   -0.390162
     75          1           0       -2.337285    0.015936   -0.870195
     76          1           0       -0.297422    0.629048    0.789115
     77          1           0       -0.214712   -1.044444    1.275706
     78          1           0       -5.479315    6.416072    0.137037
     79          1           0       -6.116253    6.403099    2.070631
     80          1           0       -4.385132    5.528755    1.672685
     81          1           0       -9.838296    5.548682    0.296671
     82          1           0       -9.067368    8.161847    0.116091
     83          1           0       -7.322518    7.454677    0.333352
     84          1           0      -12.192850    2.885696   -2.127475
     85          1           0      -13.456096    1.879696   -0.956185
     86          1           0      -12.270071    3.240463   -0.474153
     87          1           0      -12.337628   -1.824987   -1.234758
     88          1           0      -13.260065   -0.393306   -1.354351
     89          1           0      -12.862027   -1.845955   -3.353342
     90          1           0      -12.366132   -0.179028   -3.846724
     91          1           0      -11.132366   -1.658418   -3.247813
     92          1           0       -8.862638   -4.872313   -1.966342
     93          1           0       -7.829523   -5.706483   -0.867141
     94          1           0       -9.645303   -5.096477   -0.461857
     95          1           0       -3.430502   -3.488824   -0.302857
     96          1           0       -1.626767   -4.122703    3.415112
     97          1           0       -2.754397   -5.192381    3.883534
     98          1           0       -1.617336   -5.940466    2.945180
     99          1           0        2.781240   -1.774762   -1.432003
    100          1           0        2.657334   -0.120078   -2.039793
    101          1           0        4.043450   -0.695215    0.538866
    102          1           0        4.162489    0.969755   -3.036256
    103          1           0        5.090056    2.160146   -2.283545
    104          1           0        5.863886    0.758814   -2.989224
    105          1           0        6.666811    1.450139   -0.299079
    106          1           0        6.187898   -0.175158    0.662690
    107          1           0        7.218553   -1.124379   -1.325684
    108          1           0        7.762866    0.437792   -1.916412
    109          1           0        9.013206    0.871168    0.001824
    110          1           0        8.843304   -0.663496    0.811508
    111          1           0       10.126851   -0.165994   -1.756247
    112          1           0        9.009080   -2.384601   -1.821660
    113          1           0       10.785711   -2.429455   -1.908508
    114          1           0        9.984841   -2.750345   -0.278895
    115          1           0       11.104608    0.782017    0.420025
    116          1           0       11.425933   -0.916304    0.740377
    117          1           0       12.706650   -1.558140   -1.073220
    118          1           0       12.808037    0.192346   -1.539807
    119          1           0       13.879343    0.929760    0.682507
    120          1           0       13.985671   -0.772126    1.136526
    121          1           0       15.300970    0.564014   -1.349380
    122          1           0       15.867269   -2.386292   -0.065213
    123          1           0       14.783505   -2.108257   -1.232915
    124          1           0       16.701779   -1.759316   -1.507833
    125          1           0       16.113444    1.175332    1.009204
    126          1           0       16.331681   -0.289465    1.597236
    127          1           0       18.082882   -0.597928   -0.248035
    128          1           0       18.041355    1.089740   -1.018155
    129          1           0       18.122440    2.176041    0.894257
    130          1           0       18.845331    0.656358    1.675088
    131          1           0       20.645311    0.324783    0.299464
    132          1           0       20.023873    3.052345   -1.029656
    133          1           0       21.554621    2.279566   -1.408187
    134          1           0       19.894436    1.586331   -1.759762
    135          1           0       21.170801    1.468308    2.290594
    136          1           0       22.177654    1.641161    0.782529
    137          1           0       21.092488    3.217964    1.524684
 ---------------------------------------------------------------------

 SCF Done:  E(RCAM-B3LYP) =  -2932.55404383     A.U. after   18 cycles

 Excitation energies and oscillator strengths:

 Excited State   1:      Singlet-A      2.0188 eV  614.15 nm  f=0.3221  <S**2>=0.000
     240 -> 242       -0.12090
     240 -> 243        0.19809
     241 -> 242        0.65730
 This state for optimization and/or second-order correction.
 Total Energy, E(TD-HF/TD-KS) =  -2932.47985469
 Copying the excited state density for this state as the 1-particle RhoCI density.

 The electronic state is 1-A.
 Alpha  occ. eigenvalues --  -46.83715 -19.26146 -19.24778 -19.21406 -19.20571
 Alpha  occ. eigenvalues --  -19.20213 -14.40487 -14.39782 -14.39125 -14.38994
 Alpha  occ. eigenvalues --  -10.39496 -10.39314 -10.35426 -10.30574 -10.30224
 Alpha  occ. eigenvalues --  -10.29731 -10.29730 -10.29726 -10.29535 -10.29519
 Alpha  occ. eigenvalues --  -10.29262 -10.28878 -10.28873 -10.28816 -10.28790
 Alpha  occ. eigenvalues --  -10.28762 -10.28494 -10.28087 -10.27638 -10.27513
 Alpha  occ. eigenvalues --  -10.27462 -10.27461 -10.27442 -10.27349 -10.27220
 Alpha  occ. eigenvalues --  -10.27053 -10.26985 -10.26826 -10.26824 -10.26782
 Alpha  occ. eigenvalues --  -10.26738 -10.26499 -10.26400 -10.26397 -10.26364
 Alpha  occ. eigenvalues --  -10.26283 -10.26234 -10.26221 -10.26007 -10.25805
 Alpha  occ. eigenvalues --  -10.25768 -10.25766 -10.25748 -10.25741 -10.25740
 Alpha  occ. eigenvalues --  -10.25589 -10.25587 -10.25555 -10.25465 -10.25298
 Alpha  occ. eigenvalues --  -10.25210 -10.25159 -10.24921 -10.24611 -10.23652
 Alpha  occ. eigenvalues --   -3.12893  -1.87587  -1.87137  -1.87080  -1.16669
 Alpha  occ. eigenvalues --   -1.15146  -1.09416  -1.07464  -1.07097  -1.06349
 Alpha  occ. eigenvalues --   -1.04120  -1.03331  -1.01723  -0.93014  -0.92495
 Alpha  occ. eigenvalues --   -0.91440  -0.90241  -0.89621  -0.89554  -0.88870
 Alpha  occ. eigenvalues --   -0.88607  -0.88326  -0.87943  -0.87290  -0.86687
 Alpha  occ. eigenvalues --   -0.85888  -0.84810  -0.83855  -0.83368  -0.83001
 Alpha  occ. eigenvalues --   -0.82431  -0.81703  -0.80797  -0.80022  -0.78156
 Alpha  occ. eigenvalues --   -0.77685  -0.77235  -0.76845  -0.75958  -0.75670
 Alpha  occ. eigenvalues --   -0.75357  -0.74639  -0.74479  -0.73524  -0.72315
 Alpha  occ. eigenvalues --   -0.71880  -0.70112  -0.69545  -0.69084  -0.68574
 Alpha  occ. eigenvalues --   -0.67415  -0.66899  -0.65701  -0.64965  -0.64499
 Alpha  occ. eigenvalues --   -0.63706  -0.63632  -0.63526  -0.62249  -0.61768
 Alpha  occ. eigenvalues --   -0.61080  -0.60700  -0.60551  -0.59398  -0.59107
 Alpha  occ. eigenvalues --   -0.58517  -0.58191  -0.57913  -0.57479  -0.57058
 Alpha  occ. eigenvalues --   -0.56672  -0.55992  -0.55408  -0.54662  -0.54429
 Alpha  occ. eigenvalues --   -0.54148  -0.54048  -0.53900  -0.53749  -0.53235
 Alpha  occ. eigenvalues --   -0.52579  -0.52531  -0.52299  -0.52233  -0.51974
 Alpha  occ. eigenvalues --   -0.51603  -0.51457  -0.51407  -0.50844  -0.50716
 Alpha  occ. eigenvalues --   -0.50531  -0.50229  -0.50076  -0.49949  -0.49803
 Alpha  occ. eigenvalues --   -0.49738  -0.49412  -0.48917  -0.48776  -0.48543
 Alpha  occ. eigenvalues --   -0.48320  -0.48157  -0.47913  -0.47524  -0.47317
 Alpha  occ. eigenvalues --   -0.46818  -0.46524  -0.46447  -0.46331  -0.46026
 Alpha  occ. eigenvalues --   -0.45855  -0.45761  -0.45437  -0.45182  -0.45157
 Alpha  occ. eigenvalues --   -0.44900  -0.44557  -0.44460  -0.44241  -0.44133
 Alpha  occ. eigenvalues --   -0.43927  -0.43660  -0.43631  -0.43543  -0.43372
 Alpha  occ. eigenvalues --   -0.43074  -0.42889  -0.42727  -0.42494  -0.42211
 Alpha  occ. eigenvalues --   -0.42090  -0.41936  -0.41505  -0.41382  -0.41097
 Alpha  occ. eigenvalues --   -0.40773  -0.40547  -0.40302  -0.40256  -0.40010
 Alpha  occ. eigenvalues --   -0.39884  -0.39588  -0.39521  -0.39316  -0.39117
 Alpha  occ. eigenvalues --   -0.38782  -0.38472  -0.38350  -0.37557  -0.37292
 Alpha  occ. eigenvalues --   -0.37237  -0.37135  -0.36878  -0.36451  -0.36253
 Alpha  occ. eigenvalues --   -0.36063  -0.35638  -0.35616  -0.35446  -0.35311
 Alpha  occ. eigenvalues --   -0.34749  -0.34645  -0.34300  -0.33921  -0.33693
 Alpha  occ. eigenvalues --   -0.33041  -0.32601  -0.32439  -0.30881  -0.30042
 Alpha  occ. eigenvalues --   -0.29904  -0.28733  -0.27922  -0.26850  -0.23388
 Alpha  occ. eigenvalues --   -0.20766
 Alpha virt. eigenvalues --   -0.06619  -0.03269   0.01486   0.04508   0.04985
 Alpha virt. eigenvalues --    0.05437   0.05697   0.06254   0.06951   0.07813
 Alpha virt. eigenvalues --    0.09103   0.09995   0.10465   0.11438   0.11589

 Mulliken charges:
               1
     1  Mg   0.824699
     2  C    0.016247
     3  C   -0.207840
     4  C   -0.215202
     5  C   -0.139326
     6  N   -0.649186
     7  C    0.254254
     8  C   -0.126885
     9  C   -0.159086
    10  C    0.383494
    11  C   -0.295278
    12  C   -0.168406
    13  C   -0.255235
    14  C    0.600222
    15  O   -0.490708
    16  O   -0.495608
    17  N   -0.711974
    18  C    0.328193
    19  C    0.008070
    20  C    0.021092
    21  C    0.322373
    22  C   -0.349241
    23  C   -0.044431
    24  C   -0.239997
    25  N   -0.702367
    26  C    0.327345
    27  C   -0.009042
    28  C    0.014707
    29  C    0.294531
    30  C   -0.365497
    31  C   -0.249450
    32  C   -0.274272
    33  N   -0.688782
    34  C    0.251899
    35  C    0.075239
    36  C    0.005170
    37  C    0.260833
    38  C   -0.420692
    39  C    0.350626
    40  O   -0.467627
    41  C   -0.287012
    42  C    0.653074
    43  O   -0.483029
    44  O   -0.503045
    45  C   -0.065110
    46  C    0.052173
    47  C   -0.176337
    48  C    0.157526
    49  C   -0.393273
    50  C   -0.200895
    51  C   -0.196815
    52  C   -0.136911
    53  C   -0.077063
    54  C   -0.320247
    55  C   -0.129034
    56  C   -0.172501
    57  C   -0.184896
    58  C   -0.012210
    59  C   -0.316053
    60  C   -0.167904
    61  C   -0.171766
    62  C   -0.185476
    63  C   -0.062689
    64  C   -0.309041
    65  C   -0.284011
    66  H    0.076429
    67  H    0.090006
    68  H    0.097859
    69  H    0.113059
    70  H    0.117799
    71  H    0.093788
    72  H    0.103291
    73  H    0.128397
    74  H    0.086470
    75  H    0.124749
    76  H    0.138648
    77  H    0.138539
    78  H    0.096592
    79  H    0.134486
    80  H    0.094974
    81  H    0.078977
    82  H    0.103383
    83  H    0.096524
    84  H    0.132938
    85  H    0.104078
    86  H    0.103111
    87  H    0.102873
    88  H    0.106442
    89  H    0.114712
    90  H    0.081316
    91  H    0.089626
    92  H    0.138918
    93  H    0.143450
    94  H    0.120000
    95  H    0.181650
    96  H    0.122400
    97  H    0.144890
    98  H    0.128703
    99  H    0.132635
   100  H    0.124717
   101  H    0.094959
   102  H    0.119369
   103  H    0.133163
   104  H    0.104643
   105  H    0.100835
   106  H    0.099563
   107  H    0.098837
   108  H    0.062216
   109  H    0.092389
   110  H    0.071407
   111  H    0.086046
   112  H    0.107220
   113  H    0.082867
   114  H    0.101604
   115  H    0.064799
   116  H    0.103715
   117  H    0.075957
   118  H    0.098862
   119  H    0.073523
   120  H    0.084589
   121  H    0.058983
   122  H    0.097681
   123  H    0.092467
   124  H    0.100858
   125  H    0.094201
   126  H    0.045666
   127  H    0.097977
   128  H    0.091607
   129  H    0.091479
   130  H    0.079418
   131  H    0.076891
   132  H    0.117353
   133  H    0.094094
   134  H    0.115061
   135  H    0.077722
   136  H    0.083663
   137  H    0.101569
 Sum of Mulliken charges =   0.00000

 Dipole moment (field-independent basis, Debye):
    X=              1.2428    Y=              4.3054    Z=             -0.0736  Tot=              4.4818
 Quadrupole moment (field-independent basis, Debye-Ang):
   XX=           -347.1482   YY=           -388.8263   ZZ=           -399.7459
   XY=            -15.8530   XZ=             10.6188   YZ=             -1.9588

 Normal termination of Gaussian 09 at Thu Jun 27 19:56:55 2019.
