 Gaussian 09, Revision D.01,
 Gaussian 09:  ES64L-G09RevD.01 24-Apr-2013

 -------------------------------------
 # td=(NStates=1) CAM-B3LYP/6-31G(d,p)
 -------------------------------------

 --
 TD
 --
 Symbolic Z-matrix:
 Charge =  0 Multiplicity = 1

                         Standard orientation:
 ---------------------------------------------------------------------
 Center     Atomic      Atomic             Coordinates (Angstroms)
 Number     Number       Type             X           Y           Z
 ---------------------------------------------------------------------
      1         12           0       -7.115569    0.717896    0.020828
      2          6           0       -4.851161   -1.917881    0.521274
      3          6           0       -4.682456    2.844726    1.004522
      4          6           0       -9.417187    3.091510   -0.419511
      5          6           0       -9.630978   -1.760864   -0.926860
      6          7           0       -5.091850    0.509214    0.711748
      7          6           0       -4.327782   -0.660238    0.779588
      8          6           0       -2.838926   -0.371220    1.145660
      9          6           0       -2.891667    1.105608    1.716154
     10          6           0       -4.325655    1.526363    1.177527
     11          6           0       -2.923487    1.154612    3.321908
     12          6           0       -1.877642   -0.518649   -0.014072
     13          6           0       -0.438874   -0.538861    0.442882
     14          6           0        0.557432   -0.785377   -0.665774
     15          8           0        0.170417   -1.312788   -1.694831
     16          8           0        1.774488   -0.450503   -0.245763
     17          7           0       -7.039907    2.631712    0.323117
     18          6           0       -5.967931    3.357768    0.912035
     19          6           0       -6.351754    4.820381    0.896742
     20          6           0       -7.662297    4.870377    0.573385
     21          6           0       -8.086771    3.517297    0.162088
     22          6           0       -5.510702    5.938270    1.515730
     23          6           0       -8.544971    6.047642    0.351238
     24          6           0       -8.274161    7.283647    0.162080
     25          7           0       -9.120325    0.648294   -0.478719
     26          6           0       -9.869651    1.802184   -0.684048
     27          6           0      -11.171583    1.537042   -1.136396
     28          6           0      -11.216749    0.113257   -1.253295
     29          6           0       -9.888972   -0.324344   -0.920441
     30          6           0      -12.058071    2.644425   -1.328184
     31          6           0      -12.345503   -0.746514   -1.777392
     32          6           0      -12.461092   -1.067592   -3.228252
     33          7           0       -7.326129   -1.348231   -0.216436
     34          6           0       -8.319946   -2.197242   -0.575751
     35          6           0       -7.867740   -3.623402   -0.440295
     36          6           0       -6.596616   -3.498941   -0.077617
     37          6           0       -6.276250   -2.169006    0.071499
     38          6           0       -8.662860   -4.854334   -0.779978
     39          6           0       -5.399355   -4.397987    0.180248
     40          8           0       -5.318962   -5.536996    0.065624
     41          6           0       -4.281704   -3.268829    0.585378
     42          6           0       -3.534080   -3.776012    1.880795
     43          8           0       -3.645337   -3.089204    2.869402
     44          8           0       -2.855529   -4.972444    1.786156
     45          6           0       -2.377336   -5.387967    3.059872
     46          6           0        2.893735   -0.832412   -1.205309
     47          6           0        4.102654   -0.535469   -0.542493
     48          6           0        5.098924    0.331579   -0.928113
     49          6           0        5.073824    1.189793   -2.196101
     50          6           0        6.422622    0.290357   -0.150643
     51          6           0        7.666975   -0.115264   -0.965804
     52          6           0        8.919811    0.006998   -0.209585
     53          6           0       10.264815   -0.435002   -0.972051
     54          6           0       10.028085   -1.970527   -1.401267
     55          6           0       11.420742   -0.297410   -0.045055
     56          6           0       12.754307   -0.395019   -0.726583
     57          6           0       13.993055   -0.168832    0.200435
     58          6           0       15.323638   -0.240755   -0.385851
     59          6           0       15.622055   -1.694643   -0.772525
     60          6           0       16.431900    0.283329    0.411248
     61          6           0       17.791302    0.530499   -0.183482
     62          6           0       18.820786    1.174025    0.847225
     63          6           0       20.263275    1.324384    0.222671
     64          6           0       20.196058    2.213509   -1.061910
     65          6           0       21.168536    1.978588    1.253638
     66          1           0       -3.879490    3.444085    1.428019
     67          1           0      -10.191757    3.848474   -0.341700
     68          1           0      -10.385179   -2.431004   -1.150028
     69          1           0       -2.430165   -1.102999    1.877017
     70          1           0       -2.069436    1.632309    1.272923
     71          1           0       -1.872967    0.668046    3.417157
     72          1           0       -2.743359    2.274139    3.435625
     73          1           0       -3.844646    0.804177    3.774739
     74          1           0       -2.202821   -1.557583   -0.617673
     75          1           0       -2.179237    0.208690   -0.771713
     76          1           0       -0.193203    0.514526    0.948239
     77          1           0       -0.399485   -1.456857    1.279152
     78          1           0       -4.790057    6.321836    0.922245
     79          1           0       -6.405422    6.691845    1.589905
     80          1           0       -5.010248    5.636113    2.504816
     81          1           0       -9.706721    5.890873    0.673579
     82          1           0       -8.736534    8.049143   -0.055867
     83          1           0       -7.232429    7.706773   -0.057066
     84          1           0      -11.752088    3.248133   -2.225044
     85          1           0      -13.128321    2.341669   -1.527099
     86          1           0      -12.210412    3.299233   -0.383993
     87          1           0      -12.404305   -1.765164   -1.180563
     88          1           0      -13.180476   -0.314591   -1.744660
     89          1           0      -13.111269   -1.813162   -3.548748
     90          1           0      -12.436338   -0.001819   -3.606423
     91          1           0      -11.521246   -1.311670   -3.512768
     92          1           0       -8.898864   -4.984522   -1.688766
     93          1           0       -7.847973   -5.696549   -0.527254
     94          1           0       -9.549701   -5.048146    0.017390
     95          1           0       -3.467376   -3.268007   -0.079515
     96          1           0       -1.758171   -4.566101    3.479795
     97          1           0       -3.195767   -5.829818    3.516071
     98          1           0       -1.698286   -6.108231    2.827878
     99          1           0        3.082621   -1.972190   -1.479539
    100          1           0        2.802432   -0.211842   -2.236126
    101          1           0        4.189222   -1.170202    0.365097
    102          1           0        4.125487    1.269227   -2.751522
    103          1           0        5.368527    2.235817   -1.931963
    104          1           0        5.883964    0.791941   -2.864585
    105          1           0        6.566546    1.262542    0.397627
    106          1           0        6.333423   -0.329648    0.653799
    107          1           0        7.738661   -1.181256   -1.197087
    108          1           0        7.780489    0.596016   -1.925584
    109          1           0        9.179971    1.056756    0.175139
    110          1           0        8.833568   -0.724738    0.632395
    111          1           0       10.271338    0.120061   -1.906865
    112          1           0        9.195890   -2.203447   -2.109958
    113          1           0       10.883866   -2.245769   -2.004202
    114          1           0        9.805042   -2.568442   -0.573319
    115          1           0       11.184445    0.708048    0.275670
    116          1           0       11.062775   -0.852483    0.651136
    117          1           0       12.877546   -1.326195   -1.198119
    118          1           0       12.782024    0.356160   -1.486351
    119          1           0       13.886818    0.945561    0.450279
    120          1           0       13.703992   -0.845913    0.997670
    121          1           0       15.368707    0.408244   -1.353042
    122          1           0       15.683207   -2.285844    0.110502
    123          1           0       14.830774   -1.971943   -1.533054
    124          1           0       16.590588   -1.789991   -1.235072
    125          1           0       15.943457    1.249399    0.782393
    126          1           0       16.405856    0.005456    1.485346
    127          1           0       18.322031   -0.445833   -0.641326
    128          1           0       17.790149    1.381612   -1.073123
    129          1           0       18.614771    2.190307    1.006597
    130          1           0       18.864550    0.635543    1.930374
    131          1           0       20.762279    0.410616    0.010146
    132          1           0       19.797313    3.294329   -0.841725
    133          1           0       21.155097    2.296535   -1.592691
    134          1           0       19.570249    1.859159   -1.883535
    135          1           0       21.384304    1.204697    2.019579
    136          1           0       22.202824    2.161615    0.814239
    137          1           0       20.746904    2.990600    1.715420
 ---------------------------------------------------------------------

 SCF Done:  E(RCAM-B3LYP) =  -2932.62954699     A.U. after   17 cycles

 Excitation energies and oscillator strengths:

 Excited State   1:      Singlet-A      1.9123 eV  648.34 nm  f=0.2266  <S**2>=0.000
     240 -> 243        0.22658
     241 -> 242        0.65893
 This state for optimization and/or second-order correction.
 Total Energy, E(TD-HF/TD-KS) =  -2932.55927030
 Copying the excited state density for this state as the 1-particle RhoCI density.

 The electronic state is 1-A.
 Alpha  occ. eigenvalues --  -46.83951 -19.27814 -19.26407 -19.22407 -19.20800
 Alpha  occ. eigenvalues --  -19.20727 -14.41505 -14.39441 -14.39319 -14.38287
 Alpha  occ. eigenvalues --  -10.39327 -10.39190 -10.36038 -10.33907 -10.30563
 Alpha  occ. eigenvalues --  -10.30253 -10.30027 -10.29904 -10.29892 -10.29372
 Alpha  occ. eigenvalues --  -10.28882 -10.28747 -10.28693 -10.28096 -10.28062
 Alpha  occ. eigenvalues --  -10.28002 -10.27947 -10.27937 -10.27358 -10.27319
 Alpha  occ. eigenvalues --  -10.27239 -10.27139 -10.27126 -10.27082 -10.27025
 Alpha  occ. eigenvalues --  -10.27013 -10.26961 -10.26904 -10.26854 -10.26607
 Alpha  occ. eigenvalues --  -10.26326 -10.26307 -10.26188 -10.26172 -10.26155
 Alpha  occ. eigenvalues --  -10.26152 -10.26150 -10.25901 -10.25899 -10.25876
 Alpha  occ. eigenvalues --  -10.25644 -10.25479 -10.25292 -10.25261 -10.24955
 Alpha  occ. eigenvalues --  -10.24844 -10.24802 -10.24656 -10.24492 -10.24376
 Alpha  occ. eigenvalues --  -10.24302 -10.24125 -10.23561 -10.23454 -10.23159
 Alpha  occ. eigenvalues --   -3.13031  -1.87728  -1.87305  -1.87186  -1.17846
 Alpha  occ. eigenvalues --   -1.17748  -1.16270  -1.09622  -1.09299  -1.04205
 Alpha  occ. eigenvalues --   -1.02962  -1.02522  -1.00968  -0.92231  -0.91614
 Alpha  occ. eigenvalues --   -0.91385  -0.90380  -0.89437  -0.88944  -0.88736
 Alpha  occ. eigenvalues --   -0.88408  -0.87908  -0.87464  -0.86909  -0.86285
 Alpha  occ. eigenvalues --   -0.84544  -0.84146  -0.83794  -0.83277  -0.82281
 Alpha  occ. eigenvalues --   -0.81842  -0.80679  -0.80266  -0.79868  -0.77816
 Alpha  occ. eigenvalues --   -0.77586  -0.76883  -0.76607  -0.76395  -0.76005
 Alpha  occ. eigenvalues --   -0.75234  -0.75072  -0.74273  -0.72532  -0.71796
 Alpha  occ. eigenvalues --   -0.70748  -0.70349  -0.69240  -0.68642  -0.68007
 Alpha  occ. eigenvalues --   -0.66945  -0.66213  -0.65295  -0.64451  -0.64061
 Alpha  occ. eigenvalues --   -0.63590  -0.63364  -0.62804  -0.62664  -0.62048
 Alpha  occ. eigenvalues --   -0.61607  -0.60606  -0.60532  -0.59881  -0.58897
 Alpha  occ. eigenvalues --   -0.58705  -0.57960  -0.57338  -0.57133  -0.56437
 Alpha  occ. eigenvalues --   -0.56379  -0.56028  -0.55280  -0.55114  -0.54808
 Alpha  occ. eigenvalues --   -0.54419  -0.53954  -0.53689  -0.53657  -0.53431
 Alpha  occ. eigenvalues --   -0.53270  -0.52783  -0.52617  -0.52378  -0.52087
 Alpha  occ. eigenvalues --   -0.51664  -0.51528  -0.51157  -0.51068  -0.50568
 Alpha  occ. eigenvalues --   -0.50142  -0.49946  -0.49815  -0.49731  -0.49702
 Alpha  occ. eigenvalues --   -0.49387  -0.49269  -0.48836  -0.48812  -0.48743
 Alpha  occ. eigenvalues --   -0.48235  -0.48020  -0.47951  -0.47163  -0.47039
 Alpha  occ. eigenvalues --   -0.46735  -0.46689  -0.46641  -0.46243  -0.46069
 Alpha  occ. eigenvalues --   -0.46002  -0.45902  -0.45732  -0.45434  -0.45318
 Alpha  occ. eigenvalues --   -0.45039  -0.44603  -0.44342  -0.44255  -0.44002
 Alpha  occ. eigenvalues --   -0.43920  -0.43805  -0.43591  -0.43573  -0.43432
 Alpha  occ. eigenvalues --   -0.43249  -0.42649  -0.42572  -0.42220  -0.42027
 Alpha  occ. eigenvalues --   -0.41898  -0.41643  -0.41499  -0.41346  -0.41276
 Alpha  occ. eigenvalues --   -0.41057  -0.40865  -0.40580  -0.40375  -0.40281
 Alpha  occ. eigenvalues --   -0.40015  -0.39707  -0.39439  -0.39008  -0.38681
 Alpha  occ. eigenvalues --   -0.38618  -0.38602  -0.38183  -0.38113  -0.37886
 Alpha  occ. eigenvalues --   -0.37602  -0.37459  -0.37029  -0.36878  -0.36715
 Alpha  occ. eigenvalues --   -0.36604  -0.36389  -0.36241  -0.35584  -0.35319
 Alpha  occ. eigenvalues --   -0.34938  -0.34797  -0.34506  -0.33530  -0.33397
 Alpha  occ. eigenvalues --   -0.33360  -0.32835  -0.31743  -0.30340  -0.29846
 Alpha  occ. eigenvalues --   -0.29696  -0.29599  -0.28474  -0.27344  -0.22770
 Alpha  occ. eigenvalues --   -0.19927
 Alpha virt. eigenvalues --   -0.05968  -0.02911   0.02685   0.04867   0.04953
 Alpha virt. eigenvalues --    0.05692   0.05950   0.06739   0.07357   0.07718
 Alpha virt. eigenvalues --    0.08772   0.10622   0.11470   0.11815   0.11957

 Mulliken charges:
               1
     1  Mg   0.836032
     2  C    0.102182
     3  C   -0.174296
     4  C   -0.182862
     5  C   -0.138529
     6  N   -0.607155
     7  C    0.277047
     8  C   -0.133951
     9  C   -0.161815
    10  C    0.291946
    11  C   -0.287795
    12  C   -0.160735
    13  C   -0.254030
    14  C    0.637451
    15  O   -0.473547
    16  O   -0.469525
    17  N   -0.697790
    18  C    0.249935
    19  C   -0.010703
    20  C    0.025644
    21  C    0.279542
    22  C   -0.358971
    23  C   -0.062558
    24  C   -0.227111
    25  N   -0.673633
    26  C    0.296589
    27  C    0.070899
    28  C   -0.021680
    29  C    0.290228
    30  C   -0.407513
    31  C   -0.223726
    32  C   -0.307785
    33  N   -0.689745
    34  C    0.241194
    35  C   -0.003124
    36  C    0.002862
    37  C    0.264591
    38  C   -0.371906
    39  C    0.405664
    40  O   -0.385577
    41  C   -0.364140
    42  C    0.597366
    43  O   -0.456031
    44  O   -0.467260
    45  C   -0.078077
    46  C    0.002394
    47  C   -0.130452
    48  C    0.115845
    49  C   -0.370438
    50  C   -0.217986
    51  C   -0.160687
    52  C   -0.185903
    53  C   -0.094076
    54  C   -0.339648
    55  C   -0.128164
    56  C   -0.194269
    57  C   -0.169553
    58  C   -0.045986
    59  C   -0.305837
    60  C   -0.170724
    61  C   -0.160394
    62  C   -0.159542
    63  C   -0.059096
    64  C   -0.317492
    65  C   -0.299341
    66  H    0.070182
    67  H    0.087670
    68  H    0.095344
    69  H    0.107982
    70  H    0.108041
    71  H    0.109011
    72  H    0.101908
    73  H    0.144661
    74  H    0.095312
    75  H    0.113535
    76  H    0.108471
    77  H    0.115595
    78  H    0.131701
    79  H    0.111444
    80  H    0.112380
    81  H    0.080725
    82  H    0.098211
    83  H    0.081352
    84  H    0.130030
    85  H    0.103078
    86  H    0.116962
    87  H    0.073393
    88  H    0.113197
    89  H    0.115979
    90  H    0.093156
    91  H    0.114032
    92  H    0.141354
    93  H    0.126919
    94  H    0.108044
    95  H    0.158387
    96  H    0.128918
    97  H    0.138672
    98  H    0.127026
    99  H    0.130595
   100  H    0.111634
   101  H    0.095393
   102  H    0.115445
   103  H    0.118063
   104  H    0.127320
   105  H    0.097971
   106  H    0.108353
   107  H    0.106431
   108  H    0.073769
   109  H    0.076242
   110  H    0.080239
   111  H    0.083048
   112  H    0.098363
   113  H    0.104218
   114  H    0.106647
   115  H    0.089661
   116  H    0.093950
   117  H    0.103247
   118  H    0.096091
   119  H    0.075746
   120  H    0.096751
   121  H    0.067663
   122  H    0.103739
   123  H    0.089592
   124  H    0.097428
   125  H    0.072271
   126  H    0.090439
   127  H    0.081255
   128  H    0.080277
   129  H    0.105219
   130  H    0.070547
   131  H    0.094399
   132  H    0.086659
   133  H    0.099451
   134  H    0.104994
   135  H    0.099607
   136  H    0.091888
   137  H    0.086469
 Sum of Mulliken charges =   0.00000

 Dipole moment (field-independent basis, Debye):
    X=              4.3818    Y=              2.5190    Z=              0.4188  Tot=              5.0715
 Quadrupole moment (field-independent basis, Debye-Ang):
   XX=           -351.5867   YY=           -386.7006   ZZ=           -398.8993
   XY=            -12.7475   XZ=              4.1770   YZ=             -7.5730

 Normal termination of Gaussian 09 at Thu Jun 27 08:46:28 2019.
