 Gaussian 09, Revision D.01,
 Gaussian 09:  ES64L-G09RevD.01 24-Apr-2013

 -------------------------------------
 # td=(NStates=1) CAM-B3LYP/6-31G(d,p)
 -------------------------------------

 --
 TD
 --
 Symbolic Z-matrix:
 Charge =  0 Multiplicity = 1

                         Standard orientation:
 ---------------------------------------------------------------------
 Center     Atomic      Atomic             Coordinates (Angstroms)
 Number     Number       Type             X           Y           Z
 ---------------------------------------------------------------------
      1         12           0       -7.177509    0.638923    0.201369
      2          6           0       -4.910452   -1.958698    0.587246
      3          6           0       -4.834242    2.820029    1.233227
      4          6           0       -9.427475    3.216071   -0.297189
      5          6           0       -9.607493   -1.772437   -1.000560
      6          7           0       -5.202061    0.472015    0.749596
      7          6           0       -4.446637   -0.701331    0.802975
      8          6           0       -2.971594   -0.360392    1.228719
      9          6           0       -3.034718    1.063704    1.723551
     10          6           0       -4.476728    1.473179    1.236993
     11          6           0       -2.887145    1.167907    3.294397
     12          6           0       -1.952519   -0.607678    0.050265
     13          6           0       -0.467308   -0.431045    0.547107
     14          6           0        0.510916   -0.700496   -0.555469
     15          8           0        0.329240   -0.958897   -1.795568
     16          8           0        1.782397   -0.555527   -0.116796
     17          7           0       -7.043052    2.533024    0.387108
     18          6           0       -6.090612    3.351581    0.796398
     19          6           0       -6.465280    4.712616    0.900800
     20          6           0       -7.741529    4.841920    0.400374
     21          6           0       -8.158477    3.450319    0.149744
     22          6           0       -5.570298    5.751675    1.414563
     23          6           0       -8.580420    5.971560    0.235620
     24          6           0       -8.180866    7.280738    0.010875
     25          7           0       -9.077383    0.638200   -0.492434
     26          6           0       -9.828435    1.839750   -0.651938
     27          6           0      -11.226129    1.481151   -1.104060
     28          6           0      -11.281940    0.113702   -1.283972
     29          6           0       -9.901552   -0.369140   -0.890306
     30          6           0      -12.404693    2.531122   -1.277299
     31          6           0      -12.348265   -0.719546   -1.933202
     32          6           0      -12.293280   -0.932131   -3.355111
     33          7           0       -7.287266   -1.358047   -0.229176
     34          6           0       -8.322252   -2.222997   -0.708180
     35          6           0       -7.882805   -3.624007   -0.567031
     36          6           0       -6.539499   -3.532216   -0.100361
     37          6           0       -6.273903   -2.167675    0.147851
     38          6           0       -8.573055   -4.876255   -0.961915
     39          6           0       -5.383920   -4.381742    0.240545
     40          8           0       -5.275866   -5.526832    0.057857
     41          6           0       -4.195656   -3.329946    0.621173
     42          6           0       -3.616046   -3.620708    2.007166
     43          8           0       -3.811632   -3.061524    2.940208
     44          8           0       -2.675379   -4.648328    1.780930
     45          6           0       -2.098855   -5.191207    2.963581
     46          6           0        2.931109   -0.701708   -1.119645
     47          6           0        4.139501   -0.523088   -0.436286
     48          6           0        5.147546    0.202673   -0.833069
     49          6           0        5.091750    1.114509   -2.151973
     50          6           0        6.464713    0.353484   -0.153021
     51          6           0        7.709507   -0.122076   -0.836907
     52          6           0        8.997027   -0.187800    0.048060
     53          6           0       10.212557   -0.643274   -0.824243
     54          6           0       10.053322   -2.086821   -1.308861
     55          6           0       11.462042   -0.388412   -0.025720
     56          6           0       12.790500   -0.453825   -0.815728
     57          6           0       13.967088   -0.203656    0.164651
     58          6           0       15.274552   -0.094926   -0.544582
     59          6           0       15.744409   -1.495755   -1.286054
     60          6           0       16.439139    0.420501    0.435262
     61          6           0       17.853313    0.727651   -0.327718
     62          6           0       18.821506    1.222887    0.711568
     63          6           0       20.233859    1.351229    0.276910
     64          6           0       20.296609    2.344002   -1.041867
     65          6           0       21.255980    1.878594    1.307091
     66          1           0       -3.958838    3.443948    1.452688
     67          1           0       -9.979732    4.038475   -0.602864
     68          1           0      -10.320406   -2.393559   -1.276282
     69          1           0       -2.639830   -0.917476    2.078209
     70          1           0       -2.318948    1.738763    1.043131
     71          1           0       -1.955687    0.810188    3.545291
     72          1           0       -2.931454    2.206172    3.708616
     73          1           0       -3.575636    0.379169    3.790757
     74          1           0       -1.889468   -1.708228   -0.285913
     75          1           0       -2.104827   -0.079019   -0.941176
     76          1           0       -0.071766    0.587068    0.864438
     77          1           0        0.042127   -1.026726    1.372082
     78          1           0       -4.925709    6.205067    0.608677
     79          1           0       -6.340056    6.389840    1.910023
     80          1           0       -4.889235    5.525040    2.248727
     81          1           0       -9.492443    5.972612    0.344076
     82          1           0       -9.048521    7.872054   -0.053968
     83          1           0       -6.952255    7.369823   -0.101224
     84          1           0      -12.043763    3.196051   -1.981173
     85          1           0      -13.337825    2.019930   -1.454133
     86          1           0      -12.441945    3.144390   -0.386039
     87          1           0      -12.491204   -1.739697   -1.250963
     88          1           0      -13.156122   -0.115863   -1.627624
     89          1           0      -13.118970   -1.475678   -3.872520
     90          1           0      -12.444858    0.123239   -3.855200
     91          1           0      -11.437810   -1.514323   -3.914958
     92          1           0       -9.054732   -4.719374   -1.858684
     93          1           0       -7.826814   -5.675523   -1.020882
     94          1           0       -9.527945   -5.224398   -0.374630
     95          1           0       -3.601926   -3.738367   -0.216156
     96          1           0       -1.295784   -4.591593    3.582733
     97          1           0       -2.892433   -5.515722    3.535388
     98          1           0       -1.730734   -6.272492    2.742356
     99          1           0        2.756320   -1.764683   -1.453548
    100          1           0        2.692535    0.075544   -1.990073
    101          1           0        4.365596   -0.915387    0.522144
    102          1           0        4.156002    1.095375   -2.654916
    103          1           0        5.218346    2.263034   -2.080891
    104          1           0        5.770833    0.823047   -2.992837
    105          1           0        6.594289    1.400371   -0.010469
    106          1           0        6.519343   -0.174714    0.701897
    107          1           0        7.609719   -1.160155   -1.223340
    108          1           0        7.785268    0.514386   -1.836656
    109          1           0        9.087114    0.650839    0.683666
    110          1           0        9.060281   -0.951191    0.872951
    111          1           0       10.320801    0.068046   -1.541167
    112          1           0        9.253824   -2.041951   -2.093055
    113          1           0       11.064404   -2.420580   -1.695423
    114          1           0        9.811036   -2.815096   -0.329968
    115          1           0       11.333654    0.619460    0.407562
    116          1           0       11.492660   -1.072577    1.030328
    117          1           0       12.699204   -1.329741   -1.129262
    118          1           0       12.667895    0.039601   -1.893854
    119          1           0       13.908835    0.668647    0.993992
    120          1           0       13.771421   -1.022353    0.931440
    121          1           0       15.103212    0.672412   -1.205996
    122          1           0       16.049410   -2.213681   -0.572570
    123          1           0       15.007013   -1.989641   -1.948194
    124          1           0       16.777788   -1.281898   -1.853928
    125          1           0       16.224614    1.378145    0.939710
    126          1           0       16.706445   -0.683783    1.107114
    127          1           0       18.249194   -0.163114   -0.748437
    128          1           0       17.618004    1.383841   -1.198675
    129          1           0       18.436955    2.310046    1.162287
    130          1           0       18.783969    0.669673    1.693094
    131          1           0       20.540262    0.316390   -0.133574
    132          1           0       19.760743    3.180118   -0.837025
    133          1           0       21.210549    2.375706   -1.418481
    134          1           0       19.632355    1.928067   -1.879003
    135          1           0       21.150627    1.231594    2.201225
    136          1           0       22.393777    1.722345    1.242435
    137          1           0       21.242413    2.956136    1.356893
 ---------------------------------------------------------------------

 SCF Done:  E(RCAM-B3LYP) =  -2932.60288135     A.U. after   17 cycles

 Excitation energies and oscillator strengths:

 Excited State   1:      Singlet-A      2.0443 eV  606.49 nm  f=0.2484  <S**2>=0.000
     240 -> 243       -0.23147
     241 -> 242        0.66080
 This state for optimization and/or second-order correction.
 Total Energy, E(TD-HF/TD-KS) =  -2932.52775497
 Copying the excited state density for this state as the 1-particle RhoCI density.

 The electronic state is 1-A.
 Alpha  occ. eigenvalues --  -46.82479 -19.24715 -19.24666 -19.22684 -19.20671
 Alpha  occ. eigenvalues --  -19.19069 -14.41000 -14.40043 -14.39630 -14.39053
 Alpha  occ. eigenvalues --  -10.38700 -10.38447 -10.34785 -10.32634 -10.30989
 Alpha  occ. eigenvalues --  -10.30362 -10.30325 -10.30038 -10.29700 -10.29621
 Alpha  occ. eigenvalues --  -10.28746 -10.28645 -10.28579 -10.28538 -10.28533
 Alpha  occ. eigenvalues --  -10.28313 -10.28243 -10.28109 -10.28058 -10.27992
 Alpha  occ. eigenvalues --  -10.27869 -10.27322 -10.27281 -10.27200 -10.27182
 Alpha  occ. eigenvalues --  -10.27031 -10.27028 -10.26837 -10.26699 -10.26622
 Alpha  occ. eigenvalues --  -10.26594 -10.26525 -10.26503 -10.26502 -10.26424
 Alpha  occ. eigenvalues --  -10.26296 -10.26276 -10.26256 -10.26153 -10.25909
 Alpha  occ. eigenvalues --  -10.25900 -10.25898 -10.25831 -10.25618 -10.25560
 Alpha  occ. eigenvalues --  -10.25396 -10.25384 -10.25088 -10.25020 -10.25010
 Alpha  occ. eigenvalues --  -10.24720 -10.24637 -10.24447 -10.24229 -10.22944
 Alpha  occ. eigenvalues --   -3.11977  -1.86640  -1.86276  -1.86154  -1.21285
 Alpha  occ. eigenvalues --   -1.14849  -1.14152  -1.11259  -1.04208  -1.04079
 Alpha  occ. eigenvalues --   -1.02938  -1.01928  -1.00474  -0.92217  -0.91266
 Alpha  occ. eigenvalues --   -0.90803  -0.90641  -0.89271  -0.89136  -0.88773
 Alpha  occ. eigenvalues --   -0.87909  -0.87874  -0.86645  -0.86384  -0.86038
 Alpha  occ. eigenvalues --   -0.84993  -0.84573  -0.83393  -0.83009  -0.82853
 Alpha  occ. eigenvalues --   -0.80731  -0.80401  -0.79981  -0.79304  -0.78010
 Alpha  occ. eigenvalues --   -0.77796  -0.77084  -0.76205  -0.75901  -0.75453
 Alpha  occ. eigenvalues --   -0.74726  -0.74490  -0.74171  -0.73411  -0.71914
 Alpha  occ. eigenvalues --   -0.71448  -0.70774  -0.69932  -0.69179  -0.68214
 Alpha  occ. eigenvalues --   -0.66763  -0.66475  -0.65502  -0.64735  -0.64441
 Alpha  occ. eigenvalues --   -0.63841  -0.63559  -0.62516  -0.62015  -0.61580
 Alpha  occ. eigenvalues --   -0.61339  -0.61014  -0.60015  -0.59163  -0.59121
 Alpha  occ. eigenvalues --   -0.58685  -0.58200  -0.57179  -0.56858  -0.55968
 Alpha  occ. eigenvalues --   -0.55811  -0.55507  -0.55061  -0.54937  -0.54190
 Alpha  occ. eigenvalues --   -0.53986  -0.53865  -0.53608  -0.53415  -0.52958
 Alpha  occ. eigenvalues --   -0.52781  -0.52706  -0.51975  -0.51578  -0.51443
 Alpha  occ. eigenvalues --   -0.51378  -0.50824  -0.50701  -0.50393  -0.50356
 Alpha  occ. eigenvalues --   -0.50248  -0.49824  -0.49709  -0.49292  -0.49183
 Alpha  occ. eigenvalues --   -0.48955  -0.48807  -0.48650  -0.48592  -0.48389
 Alpha  occ. eigenvalues --   -0.48097  -0.47831  -0.47537  -0.47439  -0.47339
 Alpha  occ. eigenvalues --   -0.46906  -0.46664  -0.46523  -0.46477  -0.46451
 Alpha  occ. eigenvalues --   -0.46016  -0.45909  -0.45489  -0.45129  -0.44961
 Alpha  occ. eigenvalues --   -0.44844  -0.44687  -0.44637  -0.44380  -0.44230
 Alpha  occ. eigenvalues --   -0.44194  -0.44002  -0.43831  -0.43383  -0.43248
 Alpha  occ. eigenvalues --   -0.43055  -0.42846  -0.42568  -0.42498  -0.42204
 Alpha  occ. eigenvalues --   -0.41959  -0.41703  -0.41690  -0.41487  -0.41007
 Alpha  occ. eigenvalues --   -0.40941  -0.40852  -0.40559  -0.40450  -0.40348
 Alpha  occ. eigenvalues --   -0.40194  -0.39960  -0.39826  -0.39231  -0.38531
 Alpha  occ. eigenvalues --   -0.38334  -0.38324  -0.38109  -0.37917  -0.37514
 Alpha  occ. eigenvalues --   -0.37371  -0.37095  -0.36992  -0.36667  -0.36149
 Alpha  occ. eigenvalues --   -0.36092  -0.35767  -0.35741  -0.35552  -0.35327
 Alpha  occ. eigenvalues --   -0.35031  -0.34557  -0.34522  -0.34352  -0.33208
 Alpha  occ. eigenvalues --   -0.32976  -0.31994  -0.31863  -0.30471  -0.30328
 Alpha  occ. eigenvalues --   -0.29350  -0.28788  -0.28123  -0.27831  -0.23122
 Alpha  occ. eigenvalues --   -0.20791
 Alpha virt. eigenvalues --   -0.06039  -0.02778   0.02504   0.03973   0.05829
 Alpha virt. eigenvalues --    0.06122   0.06764   0.07259   0.07878   0.08049
 Alpha virt. eigenvalues --    0.08726   0.11325   0.11408   0.11525   0.11954

 Mulliken charges:
               1
     1  Mg   0.823081
     2  C    0.039858
     3  C   -0.229061
     4  C   -0.163420
     5  C   -0.100841
     6  N   -0.636065
     7  C    0.278876
     8  C   -0.143062
     9  C   -0.141317
    10  C    0.345476
    11  C   -0.320768
    12  C   -0.187706
    13  C   -0.267003
    14  C    0.599748
    15  O   -0.529655
    16  O   -0.515534
    17  N   -0.730523
    18  C    0.355281
    19  C    0.015320
    20  C    0.049124
    21  C    0.271975
    22  C   -0.389441
    23  C   -0.083408
    24  C   -0.235262
    25  N   -0.663722
    26  C    0.243370
    27  C   -0.021329
    28  C    0.008980
    29  C    0.269686
    30  C   -0.362106
    31  C   -0.215332
    32  C   -0.294456
    33  N   -0.709383
    34  C    0.235862
    35  C    0.025669
    36  C   -0.031912
    37  C    0.328085
    38  C   -0.389350
    39  C    0.342387
    40  O   -0.412975
    41  C   -0.326641
    42  C    0.623275
    43  O   -0.370679
    44  O   -0.489544
    45  C   -0.085929
    46  C    0.011656
    47  C   -0.096636
    48  C    0.122856
    49  C   -0.385826
    50  C   -0.216110
    51  C   -0.181790
    52  C   -0.183146
    53  C   -0.059811
    54  C   -0.294676
    55  C   -0.185310
    56  C   -0.169638
    57  C   -0.164285
    58  C   -0.045567
    59  C   -0.327296
    60  C   -0.177457
    61  C   -0.180010
    62  C   -0.144952
    63  C   -0.058281
    64  C   -0.321825
    65  C   -0.315661
    66  H    0.073733
    67  H    0.098592
    68  H    0.079276
    69  H    0.120351
    70  H    0.100617
    71  H    0.122539
    72  H    0.113671
    73  H    0.124425
    74  H    0.127481
    75  H    0.136841
    76  H    0.138575
    77  H    0.142258
    78  H    0.121938
    79  H    0.124700
    80  H    0.120032
    81  H    0.079429
    82  H    0.111515
    83  H    0.112326
    84  H    0.132840
    85  H    0.116020
    86  H    0.121380
    87  H    0.075368
    88  H    0.113733
    89  H    0.106879
    90  H    0.095550
    91  H    0.104159
    92  H    0.131259
    93  H    0.151262
    94  H    0.109971
    95  H    0.176510
    96  H    0.106856
    97  H    0.128608
    98  H    0.110416
    99  H    0.138559
   100  H    0.134742
   101  H    0.096149
   102  H    0.108943
   103  H    0.106551
   104  H    0.117239
   105  H    0.112967
   106  H    0.099262
   107  H    0.098381
   108  H    0.075742
   109  H    0.095183
   110  H    0.084589
   111  H    0.102971
   112  H    0.112621
   113  H    0.100272
   114  H    0.083281
   115  H    0.091257
   116  H    0.043002
   117  H    0.116570
   118  H    0.068310
   119  H    0.072303
   120  H    0.089413
   121  H    0.101705
   122  H    0.115233
   123  H    0.106016
   124  H    0.084607
   125  H    0.102113
   126  H    0.051602
   127  H    0.103332
   128  H    0.097953
   129  H    0.049327
   130  H    0.092660
   131  H    0.074567
   132  H    0.113587
   133  H    0.110983
   134  H    0.079916
   135  H    0.098415
   136  H    0.092017
   137  H    0.112693
 Sum of Mulliken charges =   0.00000

 Dipole moment (field-independent basis, Debye):
    X=              1.0483    Y=              4.5332    Z=              1.2917  Tot=              4.8288
 Quadrupole moment (field-independent basis, Debye-Ang):
   XX=           -333.4559   YY=           -387.8864   ZZ=           -395.8051
   XY=            -26.1150   XZ=              6.0566   YZ=             -3.5067

 Normal termination of Gaussian 09 at Fri Jun 28 17:10:23 2019.
