 Gaussian 09, Revision D.01,
 Gaussian 09:  ES64L-G09RevD.01 24-Apr-2013

 -------------------------------------
 # td=(NStates=1) CAM-B3LYP/6-31G(d,p)
 -------------------------------------

 --
 TD
 --
 Symbolic Z-matrix:
 Charge =  0 Multiplicity = 1

                         Standard orientation:
 ---------------------------------------------------------------------
 Center     Atomic      Atomic             Coordinates (Angstroms)
 Number     Number       Type             X           Y           Z
 ---------------------------------------------------------------------
      1         12           0       -7.139101    0.611879    0.229372
      2          6           0       -4.890134   -2.035017    0.606227
      3          6           0       -4.826763    2.792254    1.241899
      4          6           0       -9.387224    3.154869   -0.255111
      5          6           0       -9.590232   -1.732035   -0.869273
      6          7           0       -5.127240    0.440773    0.715937
      7          6           0       -4.328098   -0.701647    0.831458
      8          6           0       -2.956368   -0.454434    1.268339
      9          6           0       -2.951726    1.016664    1.736908
     10          6           0       -4.345770    1.480264    1.217494
     11          6           0       -2.842606    1.073808    3.188979
     12          6           0       -2.067329   -0.572799   -0.001569
     13          6           0       -0.629392   -0.544842    0.359103
     14          6           0        0.386228   -0.579279   -0.732318
     15          8           0        0.138766   -0.736261   -1.878331
     16          8           0        1.670840   -0.345783   -0.262314
     17          7           0       -7.148058    2.605951    0.446836
     18          6           0       -6.097650    3.329525    0.895697
     19          6           0       -6.439398    4.772850    0.978992
     20          6           0       -7.739755    4.857586    0.495537
     21          6           0       -8.101257    3.484596    0.171425
     22          6           0       -5.482464    5.913215    1.362312
     23          6           0       -8.654546    6.040803    0.364874
     24          6           0       -8.295637    7.255552    0.045759
     25          7           0       -9.105712    0.676285   -0.472447
     26          6           0       -9.845179    1.836936   -0.543228
     27          6           0      -11.208176    1.449880   -1.056576
     28          6           0      -11.233104    0.112523   -1.173192
     29          6           0       -9.936371   -0.343274   -0.819996
     30          6           0      -12.288784    2.456633   -1.320809
     31          6           0      -12.404614   -0.661509   -1.624936
     32          6           0      -12.354190   -0.984185   -3.193357
     33          7           0       -7.255470   -1.330272   -0.190097
     34          6           0       -8.322589   -2.194240   -0.574575
     35          6           0       -7.845560   -3.597375   -0.643231
     36          6           0       -6.541986   -3.497122   -0.225198
     37          6           0       -6.179823   -2.161934    0.073987
     38          6           0       -8.467916   -4.900880   -0.912632
     39          6           0       -5.339777   -4.318442    0.222201
     40          8           0       -5.264139   -5.586231    0.253223
     41          6           0       -4.259891   -3.301753    0.573290
     42          6           0       -3.410257   -3.681600    1.875236
     43          8           0       -3.677351   -3.292383    3.057454
     44          8           0       -2.641476   -4.782074    1.692350
     45          6           0       -1.934418   -5.419136    2.738469
     46          6           0        2.671645   -0.523145   -1.356658
     47          6           0        4.036309   -0.377758   -0.698688
     48          6           0        5.112382    0.313296   -1.059927
     49          6           0        5.247477    1.129798   -2.377904
     50          6           0        6.461003    0.318809   -0.292030
     51          6           0        7.652094   -0.308666   -1.109072
     52          6           0        8.970441   -0.255441   -0.311205
     53          6           0       10.236394   -0.579223   -0.915795
     54          6           0       10.196412   -2.159833   -1.387379
     55          6           0       11.476758   -0.401875    0.073480
     56          6           0       12.801493   -0.637133   -0.624238
     57          6           0       13.936996   -0.047367    0.142794
     58          6           0       15.326662   -0.147623   -0.391296
     59          6           0       15.692910   -1.573718   -0.596984
     60          6           0       16.426951    0.611392    0.385261
     61          6           0       17.797982    0.747675   -0.239504
     62          6           0       18.715896    1.289309    0.830186
     63          6           0       20.203472    1.441956    0.317601
     64          6           0       20.395988    2.248325   -1.021253
     65          6           0       21.174156    2.012750    1.403904
     66          1           0       -4.090997    3.384593    1.581262
     67          1           0      -10.058397    3.946707   -0.646022
     68          1           0      -10.374267   -2.308729   -1.425911
     69          1           0       -2.671526   -1.255969    1.903135
     70          1           0       -2.003175    1.567594    1.313404
     71          1           0       -1.832883    1.008091    3.480177
     72          1           0       -3.050799    2.094631    3.743854
     73          1           0       -3.446611    0.493600    3.695208
     74          1           0       -2.276417   -1.564284   -0.488660
     75          1           0       -2.258961    0.244547   -0.621184
     76          1           0       -0.461598    0.230168    1.007826
     77          1           0       -0.448063   -1.416472    1.195196
     78          1           0       -4.952681    6.195820    0.440446
     79          1           0       -6.058101    6.854956    1.527661
     80          1           0       -4.934542    5.526600    2.147870
     81          1           0       -9.703888    5.899596    0.596398
     82          1           0       -8.963842    8.099345    0.016697
     83          1           0       -7.266176    7.503106   -0.256490
     84          1           0      -12.154454    3.040002   -2.216690
     85          1           0      -13.165368    1.863249   -1.553728
     86          1           0      -12.715484    3.366582   -0.617400
     87          1           0      -12.168632   -1.586409   -1.237195
     88          1           0      -13.370459   -0.315490   -1.302922
     89          1           0      -13.269206   -1.374815   -3.533834
     90          1           0      -12.320616   -0.074566   -3.681520
     91          1           0      -11.454054   -1.637164   -3.330427
     92          1           0       -8.628961   -5.099136   -1.996639
     93          1           0       -7.806105   -5.649471   -0.415271
     94          1           0       -9.616529   -4.632952   -0.571364
     95          1           0       -3.418296   -3.603908   -0.299276
     96          1           0       -1.287096   -4.809226    3.239463
     97          1           0       -2.454711   -5.703006    3.543309
     98          1           0       -1.353159   -6.256504    2.340620
     99          1           0        2.616978   -1.557173   -1.762270
    100          1           0        2.669061    0.109991   -2.293269
    101          1           0        3.994616   -0.734896    0.478300
    102          1           0        4.234251    1.272501   -2.845470
    103          1           0        5.539255    2.077600   -2.206076
    104          1           0        5.851472    0.786284   -3.125827
    105          1           0        6.728706    1.312381   -0.019427
    106          1           0        6.230944   -0.427624    0.751339
    107          1           0        7.567983   -1.299736   -1.608339
    108          1           0        7.931873    0.444650   -1.954957
    109          1           0        8.977586    0.691905    0.132938
    110          1           0        8.839078   -0.867897    0.607063
    111          1           0       10.513503   -0.205638   -1.979083
    112          1           0        9.338557   -2.377359   -2.008452
    113          1           0       11.115451   -2.691745   -1.840545
    114          1           0        9.691971   -2.680902   -0.479009
    115          1           0       11.344056    0.535046    0.553132
    116          1           0       11.313197   -1.274853    0.792227
    117          1           0       12.986192   -1.817312   -0.896963
    118          1           0       12.747052   -0.211950   -1.692080
    119          1           0       13.901241    0.955291    0.397669
    120          1           0       14.157910   -0.458122    1.271635
    121          1           0       15.433850    0.435176   -1.419711
    122          1           0       15.649081   -2.186857    0.264372
    123          1           0       14.868176   -1.915542   -1.448224
    124          1           0       16.634470   -1.911877   -0.956564
    125          1           0       15.771663    1.449398    0.902572
    126          1           0       16.493626   -0.207876    1.215166
    127          1           0       18.005093   -0.193516   -0.409496
    128          1           0       17.688731    1.317998   -1.265159
    129          1           0       18.376905    2.263753    1.083856
    130          1           0       19.020226    0.510713    1.763078
    131          1           0       20.525702    0.456007    0.002743
    132          1           0       19.899099    3.191279   -0.797569
    133          1           0       21.420059    2.296873   -1.522174
    134          1           0       19.810210    1.585552   -1.659863
    135          1           0       21.148811    1.433912    2.249762
    136          1           0       22.090717    1.959065    0.878873
    137          1           0       20.896154    3.066682    1.673815
 ---------------------------------------------------------------------

 SCF Done:  E(RCAM-B3LYP) =  -2932.68313187     A.U. after   17 cycles

 Excitation energies and oscillator strengths:

 Excited State   1:      Singlet-A      1.9699 eV  629.39 nm  f=0.2171  <S**2>=0.000
     240 -> 243       -0.25708
     241 -> 242        0.65477
 This state for optimization and/or second-order correction.
 Total Energy, E(TD-HF/TD-KS) =  -2932.61073951
 Copying the excited state density for this state as the 1-particle RhoCI density.

 The electronic state is 1-A.
 Alpha  occ. eigenvalues --  -46.83930 -19.27179 -19.26676 -19.21880 -19.21244
 Alpha  occ. eigenvalues --  -19.20715 -14.42675 -14.39915 -14.39541 -14.39091
 Alpha  occ. eigenvalues --  -10.40927 -10.39628 -10.36210 -10.32874 -10.32161
 Alpha  occ. eigenvalues --  -10.31424 -10.31191 -10.30391 -10.30040 -10.29917
 Alpha  occ. eigenvalues --  -10.29536 -10.29169 -10.28689 -10.28576 -10.28537
 Alpha  occ. eigenvalues --  -10.28425 -10.28411 -10.28086 -10.27968 -10.27736
 Alpha  occ. eigenvalues --  -10.27537 -10.27359 -10.27301 -10.27203 -10.27196
 Alpha  occ. eigenvalues --  -10.27182 -10.27148 -10.27117 -10.27094 -10.27086
 Alpha  occ. eigenvalues --  -10.26908 -10.26866 -10.26465 -10.26292 -10.26017
 Alpha  occ. eigenvalues --  -10.25847 -10.25814 -10.25787 -10.25662 -10.25623
 Alpha  occ. eigenvalues --  -10.25557 -10.25502 -10.25390 -10.25302 -10.25290
 Alpha  occ. eigenvalues --  -10.25270 -10.25177 -10.24802 -10.24790 -10.24648
 Alpha  occ. eigenvalues --  -10.24626 -10.24597 -10.24329 -10.24253 -10.23253
 Alpha  occ. eigenvalues --   -3.13124  -1.87814  -1.87367  -1.87316  -1.18274
 Alpha  occ. eigenvalues --   -1.17717  -1.09847  -1.08436  -1.07005  -1.05071
 Alpha  occ. eigenvalues --   -1.03729  -1.02787  -1.01745  -0.93804  -0.92165
 Alpha  occ. eigenvalues --   -0.91530  -0.90624  -0.89275  -0.89258  -0.88989
 Alpha  occ. eigenvalues --   -0.88433  -0.88312  -0.87551  -0.87275  -0.86492
 Alpha  occ. eigenvalues --   -0.85273  -0.84612  -0.83751  -0.83351  -0.82853
 Alpha  occ. eigenvalues --   -0.82359  -0.81953  -0.80919  -0.79662  -0.78850
 Alpha  occ. eigenvalues --   -0.78152  -0.77576  -0.76696  -0.76262  -0.75549
 Alpha  occ. eigenvalues --   -0.75275  -0.74982  -0.74300  -0.73765  -0.72256
 Alpha  occ. eigenvalues --   -0.71915  -0.71168  -0.70629  -0.69514  -0.68427
 Alpha  occ. eigenvalues --   -0.67137  -0.66964  -0.66247  -0.65771  -0.64600
 Alpha  occ. eigenvalues --   -0.64481  -0.63534  -0.63003  -0.62638  -0.62333
 Alpha  occ. eigenvalues --   -0.61411  -0.61167  -0.60240  -0.59876  -0.59275
 Alpha  occ. eigenvalues --   -0.58425  -0.58193  -0.58039  -0.57052  -0.56611
 Alpha  occ. eigenvalues --   -0.56149  -0.55709  -0.55170  -0.54925  -0.54762
 Alpha  occ. eigenvalues --   -0.54579  -0.54337  -0.54062  -0.53963  -0.53293
 Alpha  occ. eigenvalues --   -0.53083  -0.52768  -0.52495  -0.52239  -0.51992
 Alpha  occ. eigenvalues --   -0.51856  -0.51605  -0.51368  -0.51208  -0.50707
 Alpha  occ. eigenvalues --   -0.50584  -0.50361  -0.50169  -0.49848  -0.49555
 Alpha  occ. eigenvalues --   -0.49497  -0.49071  -0.48822  -0.48644  -0.48536
 Alpha  occ. eigenvalues --   -0.48223  -0.48047  -0.47819  -0.47741  -0.47181
 Alpha  occ. eigenvalues --   -0.47107  -0.46701  -0.46553  -0.46361  -0.46093
 Alpha  occ. eigenvalues --   -0.46077  -0.45866  -0.45750  -0.45465  -0.45252
 Alpha  occ. eigenvalues --   -0.44974  -0.44911  -0.44873  -0.44544  -0.44423
 Alpha  occ. eigenvalues --   -0.44053  -0.43966  -0.43860  -0.43501  -0.43409
 Alpha  occ. eigenvalues --   -0.43359  -0.42844  -0.42671  -0.42487  -0.42400
 Alpha  occ. eigenvalues --   -0.42240  -0.42074  -0.42033  -0.41981  -0.41718
 Alpha  occ. eigenvalues --   -0.41701  -0.41546  -0.40900  -0.40857  -0.40777
 Alpha  occ. eigenvalues --   -0.40486  -0.40387  -0.40211  -0.40141  -0.40067
 Alpha  occ. eigenvalues --   -0.39468  -0.38878  -0.38656  -0.37971  -0.37639
 Alpha  occ. eigenvalues --   -0.37485  -0.36998  -0.36798  -0.36725  -0.36671
 Alpha  occ. eigenvalues --   -0.36590  -0.36008  -0.35707  -0.35360  -0.35191
 Alpha  occ. eigenvalues --   -0.35037  -0.34607  -0.34582  -0.34502  -0.33499
 Alpha  occ. eigenvalues --   -0.33327  -0.32819  -0.32173  -0.30811  -0.30401
 Alpha  occ. eigenvalues --   -0.30117  -0.29356  -0.28501  -0.27921  -0.23303
 Alpha  occ. eigenvalues --   -0.20712
 Alpha virt. eigenvalues --   -0.06200  -0.03394   0.01046   0.02874   0.04489
 Alpha virt. eigenvalues --    0.04891   0.05746   0.06638   0.06712   0.06956
 Alpha virt. eigenvalues --    0.07746   0.10725   0.11033   0.11277   0.11733

 Mulliken charges:
               1
     1  Mg   0.824035
     2  C    0.106177
     3  C   -0.195306
     4  C   -0.173122
     5  C   -0.172374
     6  N   -0.631238
     7  C    0.313934
     8  C   -0.160398
     9  C   -0.141987
    10  C    0.305204
    11  C   -0.294863
    12  C   -0.166551
    13  C   -0.273377
    14  C    0.628601
    15  O   -0.445062
    16  O   -0.502614
    17  N   -0.698210
    18  C    0.311658
    19  C   -0.014440
    20  C    0.000897
    21  C    0.314733
    22  C   -0.353950
    23  C   -0.066529
    24  C   -0.244008
    25  N   -0.678186
    26  C    0.261304
    27  C    0.020827
    28  C    0.049887
    29  C    0.282146
    30  C   -0.388957
    31  C   -0.263429
    32  C   -0.311761
    33  N   -0.737800
    34  C    0.256238
    35  C    0.040987
    36  C   -0.023735
    37  C    0.294566
    38  C   -0.375765
    39  C    0.402227
    40  O   -0.492803
    41  C   -0.318089
    42  C    0.597939
    43  O   -0.490813
    44  O   -0.438923
    45  C   -0.078595
    46  C    0.016519
    47  C   -0.145725
    48  C    0.115662
    49  C   -0.369843
    50  C   -0.201092
    51  C   -0.180644
    52  C   -0.173180
    53  C   -0.066824
    54  C   -0.336869
    55  C   -0.159140
    56  C   -0.175320
    57  C   -0.145703
    58  C   -0.063878
    59  C   -0.299262
    60  C   -0.184523
    61  C   -0.154150
    62  C   -0.156366
    63  C   -0.098903
    64  C   -0.309669
    65  C   -0.296763
    66  H    0.060961
    67  H    0.103158
    68  H    0.096902
    69  H    0.127086
    70  H    0.103062
    71  H    0.114407
    72  H    0.083636
    73  H    0.142031
    74  H    0.117023
    75  H    0.128858
    76  H    0.137694
    77  H    0.110718
    78  H    0.129786
    79  H    0.120145
    80  H    0.125443
    81  H    0.101776
    82  H    0.104880
    83  H    0.096885
    84  H    0.126611
    85  H    0.106358
    86  H    0.097463
    87  H    0.109889
    88  H    0.112659
    89  H    0.109449
    90  H    0.120437
    91  H    0.103872
    92  H    0.134744
    93  H    0.164888
    94  H    0.098052
    95  H    0.146315
    96  H    0.121925
    97  H    0.140934
    98  H    0.127615
    99  H    0.133632
   100  H    0.126070
   101  H    0.081021
   102  H    0.092617
   103  H    0.125386
   104  H    0.134247
   105  H    0.114812
   106  H    0.059580
   107  H    0.105714
   108  H    0.084927
   109  H    0.092847
   110  H    0.090538
   111  H    0.080835
   112  H    0.101481
   113  H    0.103133
   114  H    0.081198
   115  H    0.099746
   116  H    0.099162
   117  H    0.090474
   118  H    0.091076
   119  H    0.099589
   120  H    0.060082
   121  H    0.050604
   122  H    0.104051
   123  H    0.071483
   124  H    0.100797
   125  H    0.067676
   126  H    0.067477
   127  H    0.112867
   128  H    0.096951
   129  H    0.102898
   130  H    0.080731
   131  H    0.081973
   132  H    0.100181
   133  H    0.096416
   134  H    0.100820
   135  H    0.101341
   136  H    0.105962
   137  H    0.091142
 Sum of Mulliken charges =   0.00000

 Dipole moment (field-independent basis, Debye):
    X=              1.9821    Y=              4.1692    Z=             -0.2110  Tot=              4.6212
 Quadrupole moment (field-independent basis, Debye-Ang):
   XX=           -361.1096   YY=           -391.9985   ZZ=           -400.2677
   XY=            -29.7398   XZ=             10.8381   YZ=              0.3552

 Normal termination of Gaussian 09 at Sun Jun 30 07:31:11 2019.
