 Gaussian 09, Revision D.01,
 Gaussian 09:  ES64L-G09RevD.01 24-Apr-2013

 -------------------------------------
 # td=(NStates=1) CAM-B3LYP/6-31G(d,p)
 -------------------------------------

 --
 TD
 --
 Symbolic Z-matrix:
 Charge =  0 Multiplicity = 1

                         Standard orientation:
 ---------------------------------------------------------------------
 Center     Atomic      Atomic             Coordinates (Angstroms)
 Number     Number       Type             X           Y           Z
 ---------------------------------------------------------------------
      1         12           0       -7.163375    0.626509    0.098562
      2          6           0       -4.860392   -1.957407    0.520814
      3          6           0       -4.782902    2.927547    0.963984
      4          6           0       -9.558957    2.998793   -0.290006
      5          6           0       -9.454437   -1.815069   -0.794514
      6          7           0       -5.172350    0.438746    0.797561
      7          6           0       -4.360255   -0.685592    0.839710
      8          6           0       -2.863856   -0.404748    1.217518
      9          6           0       -3.018434    1.159117    1.627416
     10          6           0       -4.303340    1.566635    1.123254
     11          6           0       -2.987130    1.364740    3.172592
     12          6           0       -1.895175   -0.751526    0.085161
     13          6           0       -0.577986   -0.348007    0.525289
     14          6           0        0.540979   -0.632158   -0.656921
     15          8           0        0.146069   -1.101419   -1.762317
     16          8           0        1.803842   -0.371272   -0.335209
     17          7           0       -7.182676    2.672846    0.367531
     18          6           0       -6.119398    3.445437    0.757369
     19          6           0       -6.533897    4.760764    0.818057
     20          6           0       -7.754316    4.808287    0.428654
     21          6           0       -8.273197    3.378382    0.179530
     22          6           0       -5.547939    5.812623    1.224544
     23          6           0       -8.697762    5.982756    0.348206
     24          6           0       -8.381053    7.268165    0.104623
     25          7           0       -9.110077    0.602206   -0.357840
     26          6           0       -9.923282    1.640634   -0.496755
     27          6           0      -11.169089    1.392284   -1.080424
     28          6           0      -11.209371   -0.001366   -1.213553
     29          6           0       -9.960524   -0.519486   -0.846542
     30          6           0      -12.377376    2.365256   -1.235328
     31          6           0      -12.441441   -0.790811   -1.793626
     32          6           0      -12.430364   -1.068785   -3.346123
     33          7           0       -7.217826   -1.413570   -0.238806
     34          6           0       -8.238861   -2.329235   -0.506136
     35          6           0       -7.744623   -3.698154   -0.480650
     36          6           0       -6.431861   -3.521796   -0.069197
     37          6           0       -6.170794   -2.209522    0.073578
     38          6           0       -8.527459   -4.896317   -0.803725
     39          6           0       -5.257592   -4.416498    0.237113
     40          8           0       -5.221198   -5.607568    0.205191
     41          6           0       -4.116951   -3.284356    0.528833
     42          6           0       -3.446326   -3.594206    1.851090
     43          8           0       -3.646715   -3.160906    2.993380
     44          8           0       -2.611189   -4.672184    1.752210
     45          6           0       -1.963547   -5.100193    2.923428
     46          6           0        2.815044   -0.568108   -1.231476
     47          6           0        4.115947   -0.407789   -0.579838
     48          6           0        5.144428    0.409073   -0.963096
     49          6           0        5.039179    1.257960   -2.275516
     50          6           0        6.415016    0.541537   -0.196002
     51          6           0        7.638654   -0.003144   -0.903824
     52          6           0        8.924563    0.101281   -0.111784
     53          6           0       10.166843   -0.442203   -0.859046
     54          6           0       10.007041   -1.974876   -1.292429
     55          6           0       11.474087   -0.242980   -0.069747
     56          6           0       12.786709   -0.621763   -0.849534
     57          6           0       13.966840   -0.200699   -0.012489
     58          6           0       15.416282   -0.241127   -0.555571
     59          6           0       15.809057   -1.655096   -0.923557
     60          6           0       16.375371    0.531507    0.397510
     61          6           0       17.762163    0.485211   -0.158550
     62          6           0       18.704218    1.270432    0.769709
     63          6           0       20.228202    1.238931    0.364537
     64          6           0       20.496551    1.957730   -0.954784
     65          6           0       21.104085    1.850551    1.445728
     66          1           0       -3.899459    3.568492    1.083771
     67          1           0      -10.307326    3.778667   -0.496393
     68          1           0      -10.209821   -2.455145   -0.818920
     69          1           0       -2.464123   -0.934303    2.175835
     70          1           0       -2.296485    1.518092    1.061271
     71          1           0       -1.929056    1.128778    3.655674
     72          1           0       -3.236092    2.304263    3.579786
     73          1           0       -3.665951    0.512341    3.568774
     74          1           0       -2.105071   -1.796502   -0.193556
     75          1           0       -2.302969   -0.202877   -0.893408
     76          1           0       -0.369030    0.723804    0.832146
     77          1           0       -0.033967   -1.033951    1.426919
     78          1           0       -5.178889    6.359503    0.157663
     79          1           0       -5.862816    6.611760    1.942034
     80          1           0       -4.466569    5.299208    1.600349
     81          1           0       -9.704699    5.538931    0.593568
     82          1           0       -9.227636    8.051503    0.194526
     83          1           0       -7.329123    7.526688   -0.070766
     84          1           0      -12.295348    3.011277   -1.973770
     85          1           0      -13.344485    1.790070   -1.345983
     86          1           0      -12.476142    2.891821   -0.291585
     87          1           0      -12.409270   -1.641863   -1.170200
     88          1           0      -13.357431   -0.084092   -1.452814
     89          1           0      -13.300303   -1.540815   -3.633402
     90          1           0      -12.103242   -0.080881   -3.974669
     91          1           0      -11.485867   -1.661883   -3.558078
     92          1           0       -8.938255   -4.621402   -1.850458
     93          1           0       -7.840317   -5.681677   -0.899661
     94          1           0       -9.298109   -5.183068   -0.071687
     95          1           0       -3.446231   -3.277303   -0.269483
     96          1           0       -1.461239   -4.514096    3.425325
     97          1           0       -2.756407   -5.494269    3.712475
     98          1           0       -1.425815   -5.858022    2.515322
     99          1           0        2.737064   -1.555032   -1.749394
    100          1           0        2.727564    0.172755   -2.099593
    101          1           0        4.463879   -0.927707    0.394438
    102          1           0        4.068319    1.236773   -2.587281
    103          1           0        5.373044    2.301390   -2.210337
    104          1           0        5.778558    0.963431   -3.079490
    105          1           0        6.456254    1.635340    0.176797
    106          1           0        6.169073   -0.050685    0.819577
    107          1           0        7.505621   -0.931263   -1.097585
    108          1           0        7.809986    0.476749   -1.772331
    109          1           0        9.011153    1.074335    0.361596
    110          1           0        8.805397   -0.615073    0.818580
    111          1           0       10.233449    0.308390   -1.656381
    112          1           0        9.253565   -1.906601   -1.952478
    113          1           0       10.703076   -2.271212   -1.850015
    114          1           0        9.780674   -2.836184   -0.426173
    115          1           0       11.783449    0.775034    0.299062
    116          1           0       11.337411   -0.904169    0.872295
    117          1           0       12.893895   -1.736714   -0.979579
    118          1           0       12.773999    0.041532   -1.748052
    119          1           0       14.059676    0.866308    0.251330
    120          1           0       14.002687   -0.669242    0.903001
    121          1           0       15.348788    0.340425   -1.525248
    122          1           0       15.970581   -2.179138    0.056215
    123          1           0       15.094471   -2.042676   -1.547820
    124          1           0       16.858152   -1.735621   -1.484722
    125          1           0       16.051256    1.627765    0.487679
    126          1           0       16.438048    0.195696    1.533757
    127          1           0       18.039970   -0.533275   -0.259382
    128          1           0       17.649731    1.046490   -1.037976
    129          1           0       18.292617    2.444793    0.747973
    130          1           0       18.560803    0.954604    1.762733
    131          1           0       20.590459    0.163421    0.252540
    132          1           0       19.978575    2.912508   -0.945602
    133          1           0       21.481685    1.888532   -1.223515
    134          1           0       19.965058    1.547244   -1.768499
    135          1           0       20.822144    1.684730    2.634787
    136          1           0       22.196651    1.594579    1.028788
    137          1           0       21.127050    2.980103    1.186781
 ---------------------------------------------------------------------

 SCF Done:  E(RCAM-B3LYP) =  -2932.64921359     A.U. after   18 cycles

 Excitation energies and oscillator strengths:

 Excited State   1:      Singlet-A      2.0619 eV  601.32 nm  f=0.1731  <S**2>=0.000
     240 -> 242       -0.15866
     240 -> 243        0.26824
     241 -> 242        0.61613
     241 -> 243        0.12388
 This state for optimization and/or second-order correction.
 Total Energy, E(TD-HF/TD-KS) =  -2932.57344111
 Copying the excited state density for this state as the 1-particle RhoCI density.

 The electronic state is 1-A.
 Alpha  occ. eigenvalues --  -46.83798 -19.28100 -19.25247 -19.22100 -19.20897
 Alpha  occ. eigenvalues --  -19.20364 -14.41935 -14.39290 -14.38480 -14.38437
 Alpha  occ. eigenvalues --  -10.40465 -10.39107 -10.36340 -10.32904 -10.31950
 Alpha  occ. eigenvalues --  -10.30893 -10.30840 -10.30383 -10.29574 -10.29073
 Alpha  occ. eigenvalues --  -10.28888 -10.28694 -10.28566 -10.28326 -10.28117
 Alpha  occ. eigenvalues --  -10.28004 -10.27924 -10.27887 -10.27866 -10.27609
 Alpha  occ. eigenvalues --  -10.27525 -10.27486 -10.27483 -10.27398 -10.27355
 Alpha  occ. eigenvalues --  -10.27234 -10.27103 -10.26946 -10.26924 -10.26783
 Alpha  occ. eigenvalues --  -10.26683 -10.26568 -10.26324 -10.26283 -10.26270
 Alpha  occ. eigenvalues --  -10.26138 -10.25932 -10.25926 -10.25895 -10.25858
 Alpha  occ. eigenvalues --  -10.25852 -10.25749 -10.25700 -10.25683 -10.25576
 Alpha  occ. eigenvalues --  -10.25460 -10.25435 -10.25432 -10.24607 -10.24456
 Alpha  occ. eigenvalues --  -10.24377 -10.23583 -10.23520 -10.23458 -10.23173
 Alpha  occ. eigenvalues --   -3.12823  -1.87530  -1.87076  -1.86988  -1.20349
 Alpha  occ. eigenvalues --   -1.17394  -1.13371  -1.07914  -1.07246  -1.05177
 Alpha  occ. eigenvalues --   -1.03776  -1.01716  -1.01191  -0.92604  -0.91688
 Alpha  occ. eigenvalues --   -0.90813  -0.90516  -0.89532  -0.89449  -0.88329
 Alpha  occ. eigenvalues --   -0.88202  -0.87858  -0.87141  -0.86929  -0.86411
 Alpha  occ. eigenvalues --   -0.85780  -0.84529  -0.83711  -0.83015  -0.82270
 Alpha  occ. eigenvalues --   -0.81942  -0.81390  -0.80666  -0.80038  -0.77778
 Alpha  occ. eigenvalues --   -0.77711  -0.77289  -0.76870  -0.76187  -0.75944
 Alpha  occ. eigenvalues --   -0.75624  -0.75199  -0.74527  -0.73465  -0.72495
 Alpha  occ. eigenvalues --   -0.72302  -0.70900  -0.70005  -0.69339  -0.68037
 Alpha  occ. eigenvalues --   -0.67138  -0.66545  -0.65449  -0.64846  -0.64586
 Alpha  occ. eigenvalues --   -0.64393  -0.64045  -0.62898  -0.62422  -0.62291
 Alpha  occ. eigenvalues --   -0.61142  -0.60890  -0.60090  -0.59479  -0.58786
 Alpha  occ. eigenvalues --   -0.58736  -0.58573  -0.58136  -0.57357  -0.56938
 Alpha  occ. eigenvalues --   -0.56201  -0.55677  -0.55359  -0.55247  -0.54936
 Alpha  occ. eigenvalues --   -0.54291  -0.54153  -0.54034  -0.53841  -0.53363
 Alpha  occ. eigenvalues --   -0.53184  -0.52939  -0.52310  -0.51701  -0.51523
 Alpha  occ. eigenvalues --   -0.51402  -0.51153  -0.50936  -0.50737  -0.50542
 Alpha  occ. eigenvalues --   -0.50390  -0.50263  -0.49917  -0.49844  -0.49630
 Alpha  occ. eigenvalues --   -0.49477  -0.49404  -0.49107  -0.48949  -0.48844
 Alpha  occ. eigenvalues --   -0.48638  -0.48023  -0.47998  -0.47519  -0.47231
 Alpha  occ. eigenvalues --   -0.46930  -0.46646  -0.46214  -0.46095  -0.45858
 Alpha  occ. eigenvalues --   -0.45630  -0.45585  -0.45476  -0.45325  -0.45125
 Alpha  occ. eigenvalues --   -0.44946  -0.44647  -0.44551  -0.44358  -0.44265
 Alpha  occ. eigenvalues --   -0.44046  -0.43941  -0.43872  -0.43663  -0.43263
 Alpha  occ. eigenvalues --   -0.42974  -0.42906  -0.42734  -0.42682  -0.42333
 Alpha  occ. eigenvalues --   -0.42115  -0.41787  -0.41574  -0.41351  -0.41094
 Alpha  occ. eigenvalues --   -0.41028  -0.40848  -0.40798  -0.40636  -0.40273
 Alpha  occ. eigenvalues --   -0.40085  -0.39881  -0.39369  -0.39123  -0.39001
 Alpha  occ. eigenvalues --   -0.38694  -0.38624  -0.38250  -0.38022  -0.37928
 Alpha  occ. eigenvalues --   -0.37413  -0.37285  -0.37257  -0.36974  -0.36737
 Alpha  occ. eigenvalues --   -0.36577  -0.36074  -0.36001  -0.35949  -0.35839
 Alpha  occ. eigenvalues --   -0.35435  -0.35354  -0.34716  -0.33599  -0.33503
 Alpha  occ. eigenvalues --   -0.33204  -0.32931  -0.32392  -0.30862  -0.30393
 Alpha  occ. eigenvalues --   -0.29754  -0.29247  -0.28255  -0.27736  -0.22671
 Alpha  occ. eigenvalues --   -0.21199
 Alpha virt. eigenvalues --   -0.06130  -0.03422   0.01975   0.04285   0.05548
 Alpha virt. eigenvalues --    0.05672   0.05791   0.06257   0.07042   0.07484
 Alpha virt. eigenvalues --    0.08699   0.10888   0.11286   0.11629   0.12153

 Mulliken charges:
               1
     1  Mg   0.810365
     2  C    0.025318
     3  C   -0.221468
     4  C   -0.171452
     5  C   -0.199453
     6  N   -0.623060
     7  C    0.308241
     8  C   -0.174326
     9  C   -0.123971
    10  C    0.295123
    11  C   -0.304748
    12  C   -0.152360
    13  C   -0.258371
    14  C    0.579456
    15  O   -0.491111
    16  O   -0.423279
    17  N   -0.714055
    18  C    0.316862
    19  C    0.104537
    20  C   -0.070519
    21  C    0.325080
    22  C   -0.366899
    23  C   -0.047844
    24  C   -0.264637
    25  N   -0.697322
    26  C    0.337040
    27  C    0.006299
    28  C   -0.013525
    29  C    0.244918
    30  C   -0.362906
    31  C   -0.209477
    32  C   -0.297986
    33  N   -0.726195
    34  C    0.267573
    35  C    0.047645
    36  C   -0.049786
    37  C    0.358933
    38  C   -0.371109
    39  C    0.400198
    40  O   -0.422279
    41  C   -0.341134
    42  C    0.616422
    43  O   -0.491492
    44  O   -0.458711
    45  C   -0.052334
    46  C    0.005180
    47  C   -0.133464
    48  C    0.115543
    49  C   -0.361627
    50  C   -0.235784
    51  C   -0.147083
    52  C   -0.180450
    53  C   -0.079455
    54  C   -0.299690
    55  C   -0.164800
    56  C   -0.178874
    57  C   -0.174934
    58  C   -0.072991
    59  C   -0.299762
    60  C   -0.186948
    61  C   -0.156042
    62  C   -0.169388
    63  C   -0.049258
    64  C   -0.317346
    65  C   -0.289354
    66  H    0.083751
    67  H    0.100156
    68  H    0.072495
    69  H    0.126025
    70  H    0.103316
    71  H    0.089940
    72  H    0.127441
    73  H    0.132886
    74  H    0.132000
    75  H    0.117514
    76  H    0.143447
    77  H    0.114495
    78  H    0.093259
    79  H    0.131113
    80  H    0.090406
    81  H    0.091208
    82  H    0.104181
    83  H    0.108332
    84  H    0.134013
    85  H    0.106610
    86  H    0.122986
    87  H    0.112801
    88  H    0.080148
    89  H    0.123638
    90  H    0.096286
    91  H    0.108368
    92  H    0.116713
    93  H    0.150450
    94  H    0.134476
    95  H    0.173047
    96  H    0.126570
    97  H    0.101196
    98  H    0.121492
    99  H    0.131999
   100  H    0.111882
   101  H    0.082640
   102  H    0.112023
   103  H    0.110980
   104  H    0.113467
   105  H    0.098882
   106  H    0.074373
   107  H    0.117619
   108  H    0.099862
   109  H    0.093621
   110  H    0.064729
   111  H    0.084373
   112  H    0.112378
   113  H    0.117432
   114  H    0.085564
   115  H    0.087506
   116  H    0.074909
   117  H    0.098830
   118  H    0.090205
   119  H    0.081454
   120  H    0.096758
   121  H    0.071977
   122  H    0.095869
   123  H    0.111369
   124  H    0.079642
   125  H    0.084190
   126  H    0.068870
   127  H    0.104851
   128  H    0.103203
   129  H    0.049956
   130  H    0.092295
   131  H    0.078345
   132  H    0.103546
   133  H    0.107958
   134  H    0.106125
   135  H    0.090270
   136  H    0.080813
   137  H    0.092800
 Sum of Mulliken charges =   0.00000

 Dipole moment (field-independent basis, Debye):
    X=              2.4723    Y=              4.1714    Z=             -0.7527  Tot=              4.9071
 Quadrupole moment (field-independent basis, Debye-Ang):
   XX=           -356.7563   YY=           -396.8854   ZZ=           -399.9160
   XY=            -19.0779   XZ=              0.2415   YZ=              0.2578

 Normal termination of Gaussian 09 at Sat Jun 29 23:13:41 2019.
