 Gaussian 09, Revision D.01,
 Gaussian 09:  ES64L-G09RevD.01 24-Apr-2013

 -------------------------------------
 # td=(NStates=1) CAM-B3LYP/6-31G(d,p)
 -------------------------------------

 --
 TD
 --
 Symbolic Z-matrix:
 Charge =  0 Multiplicity = 1

                         Standard orientation:
 ---------------------------------------------------------------------
 Center     Atomic      Atomic             Coordinates (Angstroms)
 Number     Number       Type             X           Y           Z
 ---------------------------------------------------------------------
      1         12           0       -7.104628    0.568337    0.120855
      2          6           0       -4.862999   -1.968057    0.479882
      3          6           0       -4.779376    2.810125    1.247059
      4          6           0       -9.450549    3.087205   -0.298339
      5          6           0       -9.513576   -1.685636   -0.918695
      6          7           0       -5.124169    0.551655    0.718771
      7          6           0       -4.359780   -0.650898    0.771943
      8          6           0       -2.830307   -0.357210    1.171410
      9          6           0       -2.987052    1.070448    1.618807
     10          6           0       -4.265687    1.501666    1.104064
     11          6           0       -2.709338    1.321486    3.161147
     12          6           0       -1.933088   -0.672605    0.032781
     13          6           0       -0.504668   -0.579234    0.505595
     14          6           0        0.506870   -0.899111   -0.514578
     15          8           0        0.289741   -1.202024   -1.661790
     16          8           0        1.741739   -0.525178   -0.157307
     17          7           0       -7.109877    2.543827    0.410637
     18          6           0       -6.016631    3.327662    0.830826
     19          6           0       -6.456964    4.734045    0.960978
     20          6           0       -7.717194    4.879868    0.436621
     21          6           0       -8.141133    3.448060    0.208760
     22          6           0       -5.453929    5.823949    1.350801
     23          6           0       -8.669682    5.982778    0.294733
     24          6           0       -8.366362    7.293308   -0.050330
     25          7           0       -9.161813    0.664512   -0.516629
     26          6           0       -9.895727    1.838685   -0.626483
     27          6           0      -11.183593    1.464289   -1.171124
     28          6           0      -11.184547    0.099243   -1.274739
     29          6           0       -9.846684   -0.320226   -0.889521
     30          6           0      -12.262174    2.424485   -1.382132
     31          6           0      -12.370992   -0.725010   -1.726771
     32          6           0      -12.333894   -1.227579   -3.223894
     33          7           0       -7.311127   -1.394887   -0.173214
     34          6           0       -8.286242   -2.278693   -0.515550
     35          6           0       -7.811240   -3.613757   -0.449211
     36          6           0       -6.516391   -3.557719   -0.116786
     37          6           0       -6.195013   -2.199548    0.120727
     38          6           0       -8.573326   -4.816532   -0.926632
     39          6           0       -5.303862   -4.359544    0.114284
     40          8           0       -5.215146   -5.563337    0.093789
     41          6           0       -4.196528   -3.335059    0.573801
     42          6           0       -3.617105   -3.681275    1.895297
     43          8           0       -3.692408   -2.997989    2.966980
     44          8           0       -2.750597   -4.785797    1.842641
     45          6           0       -1.857745   -5.101357    3.013965
     46          6           0        2.788567   -0.668225   -1.124002
     47          6           0        4.086128   -0.352902   -0.536771
     48          6           0        5.061060    0.496578   -0.855079
     49          6           0        4.868711    1.293886   -2.146165
     50          6           0        6.391657    0.627708   -0.193494
     51          6           0        7.572008    0.016626   -0.942873
     52          6           0        8.841736   -0.091225   -0.127835
     53          6           0       10.158330   -0.498533   -0.910394
     54          6           0       10.051513   -2.038060   -1.225961
     55          6           0       11.431031   -0.232213   -0.060109
     56          6           0       12.666682   -0.482354   -0.743911
     57          6           0       13.949617   -0.083072    0.097252
     58          6           0       15.374912   -0.243253   -0.596779
     59          6           0       15.602852   -1.812339   -0.790101
     60          6           0       16.388876    0.382166    0.433575
     61          6           0       17.737592    0.532373   -0.308281
     62          6           0       18.813070    1.295169    0.661285
     63          6           0       20.295713    1.355737    0.159475
     64          6           0       20.384567    2.144877   -1.074346
     65          6           0       21.201666    1.865390    1.242546
     66          1           0       -4.029334    3.506363    1.491365
     67          1           0      -10.146064    3.881388   -0.640055
     68          1           0      -10.353442   -2.546757   -1.101323
     69          1           0       -2.694065   -1.011742    1.992497
     70          1           0       -2.063352    1.483949    1.161473
     71          1           0       -1.642898    1.402029    3.364796
     72          1           0       -3.022970    2.321976    3.255833
     73          1           0       -3.305041    0.652909    3.745029
     74          1           0       -2.237041   -1.650766   -0.328478
     75          1           0       -1.824501    0.071198   -0.833301
     76          1           0       -0.236212    0.383502    0.862231
     77          1           0       -0.346053   -1.193510    1.257276
     78          1           0       -4.712567    6.202914    0.538217
     79          1           0       -5.943466    6.795461    1.883214
     80          1           0       -4.824887    5.526792    2.170046
     81          1           0       -9.778640    5.802928    0.328154
     82          1           0       -9.139519    8.136743   -0.023534
     83          1           0       -7.033169    7.589255    0.324424
     84          1           0      -12.020511    3.180358   -2.266537
     85          1           0      -13.228994    2.023782   -1.530444
     86          1           0      -12.441993    3.253997   -0.554604
     87          1           0      -12.484969   -1.790732   -1.271789
     88          1           0      -13.375833   -0.222893   -1.460920
     89          1           0      -13.667824   -1.583086   -3.343595
     90          1           0      -12.446773   -0.503848   -3.924468
     91          1           0      -11.555704   -1.868643   -3.420900
     92          1           0       -9.081970   -4.785146   -2.002179
     93          1           0       -7.974536   -5.801585   -0.996206
     94          1           0       -9.482039   -5.105709   -0.061299
     95          1           0       -3.360134   -3.593820   -0.190472
     96          1           0       -1.429638   -4.106211    3.174990
     97          1           0       -2.593578   -5.225054    3.825521
     98          1           0       -1.051858   -5.994182    2.882471
     99          1           0        2.879183   -1.809636   -1.325102
    100          1           0        2.539310   -0.143266   -2.144159
    101          1           0        4.403535   -1.054022    0.392417
    102          1           0        3.811723    1.110547   -2.542779
    103          1           0        4.771525    2.348618   -1.905142
    104          1           0        5.545714    0.940045   -3.071579
    105          1           0        6.516293    1.601264   -0.037423
    106          1           0        6.284486    0.089204    0.846854
    107          1           0        7.460752   -1.067809   -1.289492
    108          1           0        7.716850    0.748398   -1.698194
    109          1           0        9.111043    0.930182    0.369459
    110          1           0        8.503571   -0.697160    0.791651
    111          1           0       10.151091   -0.026052   -1.840979
    112          1           0        9.164752   -2.439163   -1.733186
    113          1           0       11.002892   -2.345836   -1.893152
    114          1           0        9.980174   -2.603991   -0.181349
    115          1           0       11.452414    0.756275    0.285877
    116          1           0       11.365618   -0.871551    0.897577
    117          1           0       12.751699   -1.657857   -1.112708
    118          1           0       12.613309    0.161218   -1.507544
    119          1           0       13.835338    1.006461    0.111334
    120          1           0       14.045357   -0.522292    1.218428
    121          1           0       15.370891    0.131715   -1.557815
    122          1           0       15.540697   -2.551660    0.093277
    123          1           0       14.935317   -2.020472   -1.588541
    124          1           0       16.595429   -1.975198   -0.911800
    125          1           0       15.980758    1.427210    0.547775
    126          1           0       16.567511   -0.243339    1.351183
    127          1           0       18.344554   -0.430221   -0.340775
    128          1           0       17.762288    1.004337   -1.171959
    129          1           0       18.354142    2.393445    0.821182
    130          1           0       18.810464    0.686860    1.678037
    131          1           0       20.620668    0.235482   -0.064115
    132          1           0       20.046327    3.125850   -0.909305
    133          1           0       21.387730    2.338830   -1.421139
    134          1           0       19.626473    1.714977   -1.819669
    135          1           0       21.090962    1.175484    2.073494
    136          1           0       22.415451    2.004012    0.984023
    137          1           0       21.072422    2.996549    1.495811
 ---------------------------------------------------------------------

 SCF Done:  E(RCAM-B3LYP) =  -2932.61726545     A.U. after   16 cycles

 Excitation energies and oscillator strengths:

 Excited State   1:      Singlet-A      1.8837 eV  658.19 nm  f=0.2752  <S**2>=0.000
     240 -> 243        0.23146
     241 -> 242        0.66164
 This state for optimization and/or second-order correction.
 Total Energy, E(TD-HF/TD-KS) =  -2932.54804032
 Copying the excited state density for this state as the 1-particle RhoCI density.

 The electronic state is 1-A.
 Alpha  occ. eigenvalues --  -46.84555 -19.26101 -19.25707 -19.21499 -19.21455
 Alpha  occ. eigenvalues --  -19.20477 -14.43126 -14.40288 -14.39604 -14.38601
 Alpha  occ. eigenvalues --  -10.40837 -10.38726 -10.36216 -10.33253 -10.33135
 Alpha  occ. eigenvalues --  -10.32041 -10.30938 -10.30653 -10.30430 -10.30427
 Alpha  occ. eigenvalues --  -10.29306 -10.29176 -10.29076 -10.28773 -10.28601
 Alpha  occ. eigenvalues --  -10.28482 -10.28432 -10.28365 -10.28302 -10.27955
 Alpha  occ. eigenvalues --  -10.27919 -10.27889 -10.27730 -10.27698 -10.27672
 Alpha  occ. eigenvalues --  -10.27333 -10.27210 -10.27118 -10.27052 -10.27009
 Alpha  occ. eigenvalues --  -10.26807 -10.26803 -10.26665 -10.26568 -10.26564
 Alpha  occ. eigenvalues --  -10.26438 -10.26370 -10.26357 -10.26258 -10.26220
 Alpha  occ. eigenvalues --  -10.26183 -10.26137 -10.26005 -10.25936 -10.25851
 Alpha  occ. eigenvalues --  -10.25795 -10.25788 -10.25762 -10.25702 -10.25342
 Alpha  occ. eigenvalues --  -10.25066 -10.24934 -10.24698 -10.23768 -10.23434
 Alpha  occ. eigenvalues --   -3.13656  -1.88351  -1.87935  -1.87812  -1.19106
 Alpha  occ. eigenvalues --   -1.14800  -1.12437  -1.09141  -1.06283  -1.05437
 Alpha  occ. eigenvalues --   -1.04701  -1.03741  -1.01812  -0.93451  -0.92417
 Alpha  occ. eigenvalues --   -0.91603  -0.90482  -0.89460  -0.88667  -0.88397
 Alpha  occ. eigenvalues --   -0.88215  -0.88020  -0.87711  -0.87326  -0.86418
 Alpha  occ. eigenvalues --   -0.85914  -0.84384  -0.83555  -0.82980  -0.81887
 Alpha  occ. eigenvalues --   -0.81611  -0.80693  -0.80586  -0.79707  -0.78497
 Alpha  occ. eigenvalues --   -0.77149  -0.76733  -0.76259  -0.75788  -0.75639
 Alpha  occ. eigenvalues --   -0.74936  -0.74806  -0.74098  -0.73230  -0.72295
 Alpha  occ. eigenvalues --   -0.72089  -0.70841  -0.69244  -0.69075  -0.68581
 Alpha  occ. eigenvalues --   -0.66510  -0.66252  -0.65334  -0.65152  -0.64471
 Alpha  occ. eigenvalues --   -0.63808  -0.63783  -0.63226  -0.63076  -0.61847
 Alpha  occ. eigenvalues --   -0.61190  -0.61106  -0.60192  -0.59621  -0.59104
 Alpha  occ. eigenvalues --   -0.58428  -0.58329  -0.57858  -0.57213  -0.57049
 Alpha  occ. eigenvalues --   -0.56495  -0.55475  -0.55216  -0.54945  -0.54920
 Alpha  occ. eigenvalues --   -0.54892  -0.54261  -0.54160  -0.53735  -0.53161
 Alpha  occ. eigenvalues --   -0.52960  -0.52664  -0.52470  -0.52094  -0.51465
 Alpha  occ. eigenvalues --   -0.51314  -0.51085  -0.50986  -0.50892  -0.50566
 Alpha  occ. eigenvalues --   -0.50539  -0.50238  -0.49946  -0.49896  -0.49628
 Alpha  occ. eigenvalues --   -0.49236  -0.49016  -0.48923  -0.48866  -0.48430
 Alpha  occ. eigenvalues --   -0.48326  -0.48247  -0.48168  -0.48055  -0.47796
 Alpha  occ. eigenvalues --   -0.47405  -0.46693  -0.46276  -0.45899  -0.45646
 Alpha  occ. eigenvalues --   -0.45568  -0.45331  -0.45056  -0.44931  -0.44804
 Alpha  occ. eigenvalues --   -0.44364  -0.44339  -0.44160  -0.43979  -0.43948
 Alpha  occ. eigenvalues --   -0.43634  -0.43498  -0.43201  -0.43092  -0.42933
 Alpha  occ. eigenvalues --   -0.42768  -0.42741  -0.42610  -0.42437  -0.42236
 Alpha  occ. eigenvalues --   -0.41969  -0.41703  -0.41472  -0.41446  -0.41116
 Alpha  occ. eigenvalues --   -0.40891  -0.40566  -0.40463  -0.40419  -0.40332
 Alpha  occ. eigenvalues --   -0.40113  -0.39817  -0.39562  -0.39395  -0.39084
 Alpha  occ. eigenvalues --   -0.38930  -0.38894  -0.38347  -0.38081  -0.38076
 Alpha  occ. eigenvalues --   -0.37612  -0.37496  -0.37258  -0.36815  -0.36391
 Alpha  occ. eigenvalues --   -0.36355  -0.36345  -0.35807  -0.35632  -0.35246
 Alpha  occ. eigenvalues --   -0.35159  -0.34934  -0.34187  -0.33753  -0.33682
 Alpha  occ. eigenvalues --   -0.33222  -0.33080  -0.32581  -0.31419  -0.30916
 Alpha  occ. eigenvalues --   -0.30072  -0.29911  -0.28229  -0.27767  -0.23378
 Alpha  occ. eigenvalues --   -0.20636
 Alpha virt. eigenvalues --   -0.06826  -0.03203   0.00698   0.02564   0.03669
 Alpha virt. eigenvalues --    0.05616   0.06021   0.06167   0.06510   0.06743
 Alpha virt. eigenvalues --    0.07461   0.09771   0.10620   0.11012   0.11440

 Mulliken charges:
               1
     1  Mg   0.825414
     2  C    0.052459
     3  C   -0.206582
     4  C   -0.180086
     5  C   -0.198154
     6  N   -0.612423
     7  C    0.244359
     8  C   -0.140369
     9  C   -0.171988
    10  C    0.363625
    11  C   -0.306769
    12  C   -0.163945
    13  C   -0.267280
    14  C    0.586533
    15  O   -0.472407
    16  O   -0.470660
    17  N   -0.687342
    18  C    0.302605
    19  C    0.008077
    20  C    0.065597
    21  C    0.262857
    22  C   -0.379486
    23  C   -0.098067
    24  C   -0.230960
    25  N   -0.685600
    26  C    0.280914
    27  C    0.062296
    28  C    0.024675
    29  C    0.360188
    30  C   -0.392354
    31  C   -0.258044
    32  C   -0.275954
    33  N   -0.731243
    34  C    0.296737
    35  C    0.014422
    36  C    0.048098
    37  C    0.272360
    38  C   -0.378871
    39  C    0.371192
    40  O   -0.431551
    41  C   -0.341984
    42  C    0.644537
    43  O   -0.499661
    44  O   -0.498179
    45  C   -0.074940
    46  C    0.023287
    47  C   -0.120131
    48  C    0.120653
    49  C   -0.367843
    50  C   -0.216567
    51  C   -0.163001
    52  C   -0.175739
    53  C   -0.060510
    54  C   -0.304480
    55  C   -0.155594
    56  C   -0.172415
    57  C   -0.165852
    58  C   -0.072688
    59  C   -0.311783
    60  C   -0.162576
    61  C   -0.185719
    62  C   -0.173679
    63  C   -0.040812
    64  C   -0.300538
    65  C   -0.286096
    66  H    0.075924
    67  H    0.095185
    68  H    0.094929
    69  H    0.141140
    70  H    0.101438
    71  H    0.110928
    72  H    0.117344
    73  H    0.138614
    74  H    0.121187
    75  H    0.116131
    76  H    0.143702
    77  H    0.139631
    78  H    0.122397
    79  H    0.099693
    80  H    0.119990
    81  H    0.106173
    82  H    0.112821
    83  H    0.057339
    84  H    0.105310
    85  H    0.119669
    86  H    0.103278
    87  H    0.103562
    88  H    0.099900
    89  H    0.030789
    90  H    0.129541
    91  H    0.123656
    92  H    0.115082
    93  H    0.142568
    94  H    0.087596
    95  H    0.177887
    96  H    0.132761
    97  H    0.148507
    98  H    0.134363
    99  H    0.115389
   100  H    0.124887
   101  H    0.066694
   102  H    0.092571
   103  H    0.118724
   104  H    0.112970
   105  H    0.114915
   106  H    0.077992
   107  H    0.097471
   108  H    0.101770
   109  H    0.064634
   110  H    0.082287
   111  H    0.094519
   112  H    0.103717
   113  H    0.084756
   114  H    0.086740
   115  H    0.094409
   116  H    0.081467
   117  H    0.073612
   118  H    0.100413
   119  H    0.079327
   120  H    0.076257
   121  H    0.094618
   122  H    0.081549
   123  H    0.107563
   124  H    0.105748
   125  H    0.093217
   126  H    0.101956
   127  H    0.091354
   128  H    0.105658
   129  H    0.066799
   130  H    0.067635
   131  H    0.069348
   132  H    0.104969
   133  H    0.103038
   134  H    0.088354
   135  H    0.106209
   136  H    0.065468
   137  H    0.091994
 Sum of Mulliken charges =   0.00000

 Dipole moment (field-independent basis, Debye):
    X=              3.2747    Y=              3.8402    Z=              0.6986  Tot=              5.0950
 Quadrupole moment (field-independent basis, Debye-Ang):
   XX=           -369.5979   YY=           -398.3946   ZZ=           -401.1695
   XY=            -13.7188   XZ=              2.6214   YZ=             -3.3845

 Normal termination of Gaussian 09 at Wed Jun 26 21:33:29 2019.
