 Gaussian 09, Revision D.01,
 Gaussian 09:  ES64L-G09RevD.01 24-Apr-2013

 -------------------------------------
 # td=(NStates=1) CAM-B3LYP/6-31G(d,p)
 -------------------------------------

 --
 TD
 --
 Symbolic Z-matrix:
 Charge =  0 Multiplicity = 1

                         Standard orientation:
 ---------------------------------------------------------------------
 Center     Atomic      Atomic             Coordinates (Angstroms)
 Number     Number       Type             X           Y           Z
 ---------------------------------------------------------------------
      1         12           0       -7.171246    0.538973    0.016051
      2          6           0       -4.894544   -1.987151    0.633348
      3          6           0       -4.860741    2.844100    1.092947
      4          6           0       -9.526175    3.033112   -0.218951
      5          6           0       -9.586341   -1.788370   -0.761464
      6          7           0       -5.125753    0.372608    0.773562
      7          6           0       -4.347548   -0.750096    0.793334
      8          6           0       -2.914041   -0.315136    1.240873
      9          6           0       -3.030114    1.040182    1.628700
     10          6           0       -4.454585    1.419146    1.227766
     11          6           0       -2.918131    1.228607    3.175196
     12          6           0       -1.933352   -0.608908    0.175108
     13          6           0       -0.468047   -0.193392    0.520171
     14          6           0        0.486585   -0.528569   -0.592173
     15          8           0        0.178594   -0.810408   -1.738549
     16          8           0        1.783508   -0.353229   -0.258188
     17          7           0       -7.164921    2.622339    0.314191
     18          6           0       -6.141437    3.353981    0.804003
     19          6           0       -6.480166    4.715347    0.825737
     20          6           0       -7.793991    4.805685    0.528708
     21          6           0       -8.245084    3.460397    0.110661
     22          6           0       -5.632171    5.894760    1.212262
     23          6           0       -8.741593    5.957966    0.424572
     24          6           0       -8.300248    7.233608    0.028930
     25          7           0       -9.149221    0.577242   -0.404585
     26          6           0       -9.931686    1.731001   -0.508592
     27          6           0      -11.259340    1.419030   -0.984752
     28          6           0      -11.294990    0.093713   -1.080780
     29          6           0       -9.885112   -0.436237   -0.766294
     30          6           0      -12.317341    2.339180   -1.268025
     31          6           0      -12.371772   -0.798486   -1.703460
     32          6           0      -12.349779   -1.123064   -3.158083
     33          7           0       -7.331939   -1.487376   -0.189734
     34          6           0       -8.350274   -2.294068   -0.485101
     35          6           0       -7.940870   -3.636354   -0.456496
     36          6           0       -6.500812   -3.639098   -0.071514
     37          6           0       -6.214963   -2.201291    0.115001
     38          6           0       -8.677898   -4.850965   -0.876575
     39          6           0       -5.281351   -4.402871    0.176396
     40          8           0       -5.103330   -5.597644    0.131356
     41          6           0       -4.201647   -3.371080    0.538637
     42          6           0       -3.508321   -3.592766    1.948089
     43          8           0       -3.663745   -3.067052    3.039352
     44          8           0       -2.626103   -4.648844    1.682284
     45          6           0       -1.870508   -5.115392    2.870375
     46          6           0        2.781471   -0.569429   -1.299344
     47          6           0        4.139686   -0.398099   -0.669449
     48          6           0        5.129781    0.434968   -1.089497
     49          6           0        5.017108    1.153462   -2.436390
     50          6           0        6.452667    0.430982   -0.272320
     51          6           0        7.630854   -0.074030   -1.162279
     52          6           0        8.902244   -0.141336   -0.248357
     53          6           0       10.140199   -0.463492   -1.044054
     54          6           0       10.171299   -1.869126   -1.580569
     55          6           0       11.459204   -0.205726   -0.169147
     56          6           0       12.872278   -0.375083   -0.990983
     57          6           0       13.899825    0.066530    0.026611
     58          6           0       15.392941   -0.101960   -0.482413
     59          6           0       15.671505   -1.582007   -0.808954
     60          6           0       16.426511    0.471419    0.498728
     61          6           0       17.926029    0.518072   -0.069179
     62          6           0       18.898346    1.164802    0.959932
     63          6           0       20.383423    1.221197    0.487564
     64          6           0       20.569726    1.909261   -0.852819
     65          6           0       21.219922    1.646129    1.630916
     66          1           0       -4.284472    3.346402    1.617312
     67          1           0      -10.362877    3.845431   -0.524388
     68          1           0      -10.326571   -2.625563   -1.065131
     69          1           0       -2.567125   -1.056697    2.040278
     70          1           0       -2.273054    1.770595    1.109277
     71          1           0       -1.696094    1.246414    3.500276
     72          1           0       -3.237736    2.169474    3.479007
     73          1           0       -3.575868    0.356745    3.711952
     74          1           0       -1.876077   -1.755488   -0.023215
     75          1           0       -2.093856    0.024366   -0.837275
     76          1           0       -0.535488    0.912450    0.747377
     77          1           0       -0.099914   -0.706727    1.588466
     78          1           0       -5.081345    6.397172    0.236106
     79          1           0       -6.331033    6.692802    1.731648
     80          1           0       -4.965162    5.547249    1.915116
     81          1           0       -9.734526    5.809419    0.663907
     82          1           0       -8.882275    8.047763   -0.209474
     83          1           0       -7.154178    7.395472   -0.459200
     84          1           0      -11.999859    2.954753   -2.113658
     85          1           0      -13.099598    1.885803   -1.583830
     86          1           0      -12.429288    3.027416   -0.490106
     87          1           0      -12.543768   -1.725921   -1.257860
     88          1           0      -13.346036   -0.280600   -1.436260
     89          1           0      -13.321383   -1.531796   -3.509230
     90          1           0      -12.212850   -0.091203   -3.766335
     91          1           0      -11.437366   -1.748686   -3.440551
     92          1           0       -9.355963   -4.816644   -1.792334
     93          1           0       -7.843680   -5.427593   -0.672188
     94          1           0       -9.506699   -5.043227    0.018225
     95          1           0       -3.498282   -3.592017   -0.144456
     96          1           0       -1.543143   -4.169004    3.317766
     97          1           0       -2.537122   -5.573744    3.691522
     98          1           0       -1.030670   -5.833795    2.655550
     99          1           0        2.529118   -1.635072   -1.493131
    100          1           0        2.665899    0.004877   -2.238634
    101          1           0        4.046524   -0.938841    0.332934
    102          1           0        4.104319    0.948367   -2.798762
    103          1           0        5.406898    2.331541   -2.352399
    104          1           0        5.718126    0.757121   -3.339531
    105          1           0        6.682835    1.396834    0.048951
    106          1           0        6.378230   -0.083337    0.637317
    107          1           0        7.469746   -1.101346   -1.601875
    108          1           0        7.821166    0.615027   -2.114219
    109          1           0        8.908044    0.918302    0.239228
    110          1           0        8.911727   -0.922012    0.476561
    111          1           0       10.302533    0.225602   -2.155248
    112          1           0        9.454789   -2.286006   -2.279847
    113          1           0       11.142846   -2.033466   -2.024857
    114          1           0       10.255071   -2.700715   -0.833876
    115          1           0       11.209373    0.749482    0.246203
    116          1           0       11.408719   -0.967824    0.753069
    117          1           0       12.847081   -1.424436   -1.492812
    118          1           0       12.927918    0.365204   -2.008118
    119          1           0       13.585505    1.110381    0.336271
    120          1           0       13.969592   -0.475003    1.101888
    121          1           0       15.415032    0.524437   -1.412938
    122          1           0       15.382519   -2.237546    0.020309
    123          1           0       14.946182   -2.020812   -1.523570
    124          1           0       16.744835   -1.861786   -1.332011
    125          1           0       16.165504    1.388985    0.829940
    126          1           0       16.461122   -0.242461    1.452516
    127          1           0       18.436383   -0.581061   -0.232378
    128          1           0       17.749292    1.015208   -1.148336
    129          1           0       18.516367    2.135344    1.255221
    130          1           0       18.974175    0.438650    1.692932
    131          1           0       20.430318    0.337824    0.515284
    132          1           0       20.507735    3.048828   -0.843222
    133          1           0       21.572595    2.149969   -1.250857
    134          1           0       20.020527    1.733747   -1.637489
    135          1           0       21.237383    1.098069    2.474518
    136          1           0       22.313011    1.574972    1.342736
    137          1           0       20.990897    2.909686    1.763965
 ---------------------------------------------------------------------

 SCF Done:  E(RCAM-B3LYP) =  -2932.55293774     A.U. after   18 cycles

 Excitation energies and oscillator strengths:

 Excited State   1:      Singlet-A      1.9862 eV  624.22 nm  f=0.2844  <S**2>=0.000
     240 -> 243        0.22531
     241 -> 242        0.66793
 This state for optimization and/or second-order correction.
 Total Energy, E(TD-HF/TD-KS) =  -2932.47994506
 Copying the excited state density for this state as the 1-particle RhoCI density.

 The electronic state is 1-A.
 Alpha  occ. eigenvalues --  -46.85305 -19.26077 -19.25681 -19.22609 -19.20541
 Alpha  occ. eigenvalues --  -19.19644 -14.42338 -14.39878 -14.39288 -14.39052
 Alpha  occ. eigenvalues --  -10.40327 -10.39236 -10.34607 -10.31865 -10.31859
 Alpha  occ. eigenvalues --  -10.31729 -10.30640 -10.29811 -10.29781 -10.29565
 Alpha  occ. eigenvalues --  -10.29412 -10.29320 -10.28945 -10.28592 -10.28456
 Alpha  occ. eigenvalues --  -10.28353 -10.28347 -10.28311 -10.28274 -10.28125
 Alpha  occ. eigenvalues --  -10.28061 -10.27977 -10.27960 -10.27868 -10.27861
 Alpha  occ. eigenvalues --  -10.27699 -10.27581 -10.27491 -10.27310 -10.27238
 Alpha  occ. eigenvalues --  -10.27234 -10.27084 -10.26981 -10.26958 -10.26759
 Alpha  occ. eigenvalues --  -10.26707 -10.26564 -10.26409 -10.26404 -10.26291
 Alpha  occ. eigenvalues --  -10.26203 -10.26055 -10.25870 -10.25567 -10.25536
 Alpha  occ. eigenvalues --  -10.25518 -10.25446 -10.25293 -10.25212 -10.24961
 Alpha  occ. eigenvalues --  -10.24155 -10.24106 -10.24054 -10.23730 -10.23496
 Alpha  occ. eigenvalues --   -3.14187  -1.88905  -1.88437  -1.88333  -1.17704
 Alpha  occ. eigenvalues --   -1.16314  -1.10904  -1.08764  -1.08297  -1.05678
 Alpha  occ. eigenvalues --   -1.04662  -1.03911  -1.03120  -0.92642  -0.91590
 Alpha  occ. eigenvalues --   -0.90765  -0.90564  -0.90334  -0.89286  -0.88898
 Alpha  occ. eigenvalues --   -0.88598  -0.88197  -0.87381  -0.86925  -0.85829
 Alpha  occ. eigenvalues --   -0.84802  -0.84440  -0.83758  -0.82695  -0.82598
 Alpha  occ. eigenvalues --   -0.81133  -0.80769  -0.80174  -0.79514  -0.78497
 Alpha  occ. eigenvalues --   -0.77903  -0.77469  -0.77118  -0.76518  -0.75923
 Alpha  occ. eigenvalues --   -0.75254  -0.74876  -0.74172  -0.72749  -0.72498
 Alpha  occ. eigenvalues --   -0.71606  -0.70085  -0.69167  -0.68771  -0.68112
 Alpha  occ. eigenvalues --   -0.67574  -0.66714  -0.65440  -0.64902  -0.64602
 Alpha  occ. eigenvalues --   -0.64318  -0.63129  -0.62676  -0.62307  -0.62067
 Alpha  occ. eigenvalues --   -0.61353  -0.61139  -0.60706  -0.59913  -0.59263
 Alpha  occ. eigenvalues --   -0.58800  -0.58692  -0.58089  -0.56939  -0.56829
 Alpha  occ. eigenvalues --   -0.56072  -0.56034  -0.55568  -0.55055  -0.54591
 Alpha  occ. eigenvalues --   -0.54271  -0.54184  -0.54058  -0.53389  -0.53196
 Alpha  occ. eigenvalues --   -0.52989  -0.52544  -0.52133  -0.51998  -0.51858
 Alpha  occ. eigenvalues --   -0.51568  -0.51248  -0.51057  -0.50643  -0.50555
 Alpha  occ. eigenvalues --   -0.50422  -0.50288  -0.49951  -0.49702  -0.49328
 Alpha  occ. eigenvalues --   -0.49038  -0.48730  -0.48565  -0.48444  -0.47964
 Alpha  occ. eigenvalues --   -0.47908  -0.47776  -0.47451  -0.47209  -0.46978
 Alpha  occ. eigenvalues --   -0.46951  -0.46594  -0.46218  -0.46187  -0.46003
 Alpha  occ. eigenvalues --   -0.45750  -0.45537  -0.45046  -0.44930  -0.44739
 Alpha  occ. eigenvalues --   -0.44614  -0.44505  -0.44417  -0.44165  -0.44035
 Alpha  occ. eigenvalues --   -0.43939  -0.43844  -0.43539  -0.43473  -0.43182
 Alpha  occ. eigenvalues --   -0.43023  -0.42771  -0.42554  -0.42254  -0.42154
 Alpha  occ. eigenvalues --   -0.41981  -0.41733  -0.41521  -0.41443  -0.41341
 Alpha  occ. eigenvalues --   -0.40966  -0.40777  -0.40681  -0.40518  -0.40199
 Alpha  occ. eigenvalues --   -0.40105  -0.39968  -0.39530  -0.39235  -0.39055
 Alpha  occ. eigenvalues --   -0.38953  -0.38927  -0.38538  -0.38424  -0.38005
 Alpha  occ. eigenvalues --   -0.37856  -0.37538  -0.37248  -0.36578  -0.36243
 Alpha  occ. eigenvalues --   -0.36114  -0.35875  -0.35773  -0.35720  -0.35599
 Alpha  occ. eigenvalues --   -0.35295  -0.34731  -0.34446  -0.34057  -0.33588
 Alpha  occ. eigenvalues --   -0.33005  -0.32611  -0.32557  -0.31079  -0.29884
 Alpha  occ. eigenvalues --   -0.29512  -0.29487  -0.27915  -0.27862  -0.23547
 Alpha  occ. eigenvalues --   -0.20989
 Alpha virt. eigenvalues --   -0.06867  -0.02664   0.01103   0.03349   0.04816
 Alpha virt. eigenvalues --    0.05053   0.05251   0.05751   0.06617   0.07052
 Alpha virt. eigenvalues --    0.08519   0.10433   0.11171   0.11459   0.11531

 Mulliken charges:
               1
     1  Mg   0.838290
     2  C    0.065470
     3  C   -0.132726
     4  C   -0.200675
     5  C   -0.167254
     6  N   -0.598330
     7  C    0.289723
     8  C   -0.126745
     9  C   -0.154628
    10  C    0.280460
    11  C   -0.293127
    12  C   -0.168433
    13  C   -0.269998
    14  C    0.623627
    15  O   -0.478049
    16  O   -0.489988
    17  N   -0.712659
    18  C    0.322966
    19  C    0.015137
    20  C    0.011238
    21  C    0.297794
    22  C   -0.355364
    23  C   -0.088263
    24  C   -0.233875
    25  N   -0.700208
    26  C    0.289987
    27  C    0.062253
    28  C   -0.018101
    29  C    0.312577
    30  C   -0.352762
    31  C   -0.240066
    32  C   -0.288408
    33  N   -0.753221
    34  C    0.341662
    35  C   -0.021882
    36  C   -0.027930
    37  C    0.255640
    38  C   -0.359220
    39  C    0.354780
    40  O   -0.456747
    41  C   -0.284439
    42  C    0.632919
    43  O   -0.466535
    44  O   -0.478185
    45  C   -0.089698
    46  C    0.016393
    47  C   -0.125117
    48  C    0.102181
    49  C   -0.336769
    50  C   -0.219557
    51  C   -0.175071
    52  C   -0.162963
    53  C   -0.046539
    54  C   -0.314933
    55  C   -0.176061
    56  C   -0.166667
    57  C   -0.164625
    58  C   -0.060107
    59  C   -0.306831
    60  C   -0.155518
    61  C   -0.175076
    62  C   -0.184622
    63  C    0.008581
    64  C   -0.322243
    65  C   -0.300693
    66  H    0.047350
    67  H    0.086835
    68  H    0.097572
    69  H    0.127765
    70  H    0.109051
    71  H    0.075407
    72  H    0.122296
    73  H    0.123860
    74  H    0.108463
    75  H    0.108380
    76  H    0.134562
    77  H    0.104257
    78  H    0.102783
    79  H    0.119380
    80  H    0.117616
    81  H    0.105571
    82  H    0.113121
    83  H    0.087688
    84  H    0.120862
    85  H    0.115023
    86  H    0.126307
    87  H    0.112501
    88  H    0.088964
    89  H    0.110787
    90  H    0.079146
    91  H    0.105642
    92  H    0.126310
    93  H    0.161463
    94  H    0.093182
    95  H    0.169584
    96  H    0.129235
    97  H    0.125765
    98  H    0.130306
    99  H    0.121612
   100  H    0.122608
   101  H    0.096071
   102  H    0.116180
   103  H    0.096885
   104  H    0.102756
   105  H    0.107526
   106  H    0.110572
   107  H    0.101017
   108  H    0.087519
   109  H    0.077189
   110  H    0.105562
   111  H    0.031542
   112  H    0.105895
   113  H    0.099253
   114  H    0.085966
   115  H    0.101022
   116  H    0.076264
   117  H    0.102849
   118  H    0.072568
   119  H    0.098296
   120  H    0.074250
   121  H    0.077618
   122  H    0.102841
   123  H    0.096355
   124  H    0.089259
   125  H    0.101842
   126  H    0.064620
   127  H    0.066565
   128  H    0.074871
   129  H    0.088939
   130  H    0.099279
   131  H    0.084206
   132  H    0.079075
   133  H    0.092176
   134  H    0.120078
   135  H    0.113097
   136  H    0.089206
   137  H    0.058763
 Sum of Mulliken charges =   0.00000

 Dipole moment (field-independent basis, Debye):
    X=              0.8365    Y=              5.0906    Z=              0.2794  Tot=              5.1664
 Quadrupole moment (field-independent basis, Debye-Ang):
   XX=           -341.0076   YY=           -400.0047   ZZ=           -398.5517
   XY=            -35.8004   XZ=             14.9332   YZ=             -5.0839

 Normal termination of Gaussian 09 at Wed Jun 26 23:06:36 2019.
