 Gaussian 09, Revision D.01,
 Gaussian 09:  ES64L-G09RevD.01 24-Apr-2013

 -------------------------------------
 # td=(NStates=1) CAM-B3LYP/6-31G(d,p)
 -------------------------------------

 --
 TD
 --
 Symbolic Z-matrix:
 Charge =  0 Multiplicity = 1

                         Standard orientation:
 ---------------------------------------------------------------------
 Center     Atomic      Atomic             Coordinates (Angstroms)
 Number     Number       Type             X           Y           Z
 ---------------------------------------------------------------------
      1         12           0       -7.162424    0.676984    0.140872
      2          6           0       -4.854575   -1.901170    0.512847
      3          6           0       -4.806229    2.889091    1.164152
      4          6           0       -9.383713    3.218346   -0.252689
      5          6           0       -9.528201   -1.658506   -0.885308
      6          7           0       -5.135608    0.483372    0.683914
      7          6           0       -4.352356   -0.675450    0.801458
      8          6           0       -3.025458   -0.380241    1.248740
      9          6           0       -3.082815    1.077538    1.652514
     10          6           0       -4.426340    1.544523    1.170883
     11          6           0       -2.858245    1.436034    3.178772
     12          6           0       -2.018078   -0.691393    0.219963
     13          6           0       -0.605154   -0.459970    0.541767
     14          6           0        0.485324   -0.713449   -0.513525
     15          8           0        0.103011   -1.264227   -1.612138
     16          8           0        1.718199   -0.380187   -0.064674
     17          7           0       -7.085837    2.574128    0.366546
     18          6           0       -6.009510    3.410953    0.779452
     19          6           0       -6.347974    4.805892    0.760184
     20          6           0       -7.646125    4.815428    0.327878
     21          6           0       -8.131540    3.496049    0.046689
     22          6           0       -5.612367    5.973043    1.243020
     23          6           0       -8.475183    6.078624    0.184206
     24          6           0       -8.142325    7.263356   -0.018219
     25          7           0       -9.137256    0.720471   -0.459010
     26          6           0       -9.922051    1.805058   -0.657015
     27          6           0      -11.186003    1.411442   -1.094771
     28          6           0      -11.210719    0.144441   -1.223187
     29          6           0       -9.975251   -0.375919   -0.845233
     30          6           0      -12.276540    2.431992   -1.316163
     31          6           0      -12.240542   -0.790230   -1.782708
     32          6           0      -12.161088   -1.129071   -3.262718
     33          7           0       -7.260456   -1.374516   -0.083717
     34          6           0       -8.283379   -2.203577   -0.455310
     35          6           0       -7.797613   -3.567058   -0.391061
     36          6           0       -6.488709   -3.554160   -0.058122
     37          6           0       -6.210633   -2.112687    0.136909
     38          6           0       -8.692157   -4.794599   -0.763140
     39          6           0       -5.326161   -4.374343    0.199203
     40          8           0       -5.142791   -5.553270    0.237309
     41          6           0       -4.225225   -3.262420    0.530771
     42          6           0       -3.549538   -3.708286    1.815059
     43          8           0       -3.832604   -3.172046    2.868558
     44          8           0       -2.698940   -4.766623    1.658517
     45          6           0       -2.056367   -5.241375    2.863617
     46          6           0        2.745306   -0.661278   -1.130088
     47          6           0        4.111403   -0.515283   -0.450294
     48          6           0        5.128812    0.269487   -0.905051
     49          6           0        5.126932    1.025267   -2.179508
     50          6           0        6.489471    0.243167   -0.130778
     51          6           0        7.560423   -0.447341   -0.990052
     52          6           0        8.992638   -0.355475   -0.218779
     53          6           0       10.192767   -0.760814   -0.981220
     54          6           0       10.176590   -2.290572   -1.307178
     55          6           0       11.516695   -0.337578   -0.194656
     56          6           0       12.857794   -0.504716   -0.911774
     57          6           0       14.013600   -0.069531    0.034124
     58          6           0       15.435295   -0.179239   -0.543437
     59          6           0       15.682300   -1.599482   -1.014709
     60          6           0       16.420938    0.445285    0.501410
     61          6           0       17.701438    0.677121   -0.170089
     62          6           0       18.692842    1.401019    0.848185
     63          6           0       20.151573    1.544090    0.292600
     64          6           0       20.273056    2.387070   -0.943081
     65          6           0       21.131880    2.006868    1.371529
     66          1           0       -4.117273    3.590368    1.696150
     67          1           0      -10.107606    3.982057   -0.437542
     68          1           0      -10.281922   -2.414284   -1.234814
     69          1           0       -2.474320   -0.976868    2.113094
     70          1           0       -2.240880    1.744997    1.142690
     71          1           0       -1.858767    1.081741    3.444968
     72          1           0       -2.806109    2.621119    3.337838
     73          1           0       -3.677358    0.858682    3.698725
     74          1           0       -2.016222   -1.555526   -0.140925
     75          1           0       -2.274687   -0.082108   -0.713089
     76          1           0       -0.326551    0.525552    1.016907
     77          1           0       -0.138688   -1.130287    1.148121
     78          1           0       -5.051066    6.209133    0.443140
     79          1           0       -6.287870    6.721512    1.716663
     80          1           0       -4.772819    5.637050    2.063516
     81          1           0       -9.532426    5.869465    0.250975
     82          1           0       -8.891071    8.004007    0.109985
     83          1           0       -7.140619    7.594257   -0.498293
     84          1           0      -12.164532    2.843369   -2.300061
     85          1           0      -13.258311    1.812938   -1.080828
     86          1           0      -12.220358    3.353348   -0.519610
     87          1           0      -12.198908   -1.780323   -1.471622
     88          1           0      -13.177645   -0.224669   -1.560891
     89          1           0      -12.916946   -1.705110   -3.668797
     90          1           0      -11.995963   -0.226009   -3.785843
     91          1           0      -11.374712   -1.562135   -3.662119
     92          1           0       -8.879916   -4.660497   -1.765452
     93          1           0       -7.964568   -5.642763   -0.608749
     94          1           0       -9.589778   -4.984456   -0.143374
     95          1           0       -3.517164   -3.361673   -0.210041
     96          1           0       -1.177854   -4.631149    3.211638
     97          1           0       -2.941303   -5.288723    3.660390
     98          1           0       -1.569220   -6.279342    2.628269
     99          1           0        2.396010   -1.512327   -1.683202
    100          1           0        2.612559    0.270138   -1.979535
    101          1           0        4.203070   -1.061744    0.575520
    102          1           0        3.974467    0.874303   -2.402017
    103          1           0        5.629761    2.027079   -1.812013
    104          1           0        5.589477    0.520287   -3.062678
    105          1           0        6.806184    1.323273    0.051807
    106          1           0        6.168086   -0.130175    1.044894
    107          1           0        7.008793   -1.303232   -0.967621
    108          1           0        7.532005   -0.129101   -2.088210
    109          1           0        8.986854    0.683973   -0.237866
    110          1           0        8.730234   -0.780533    0.761825
    111          1           0       10.319468   -0.233447   -2.036693
    112          1           0        9.330940   -2.507983   -1.900332
    113          1           0       10.902898   -2.507448   -1.960497
    114          1           0       10.115356   -3.031255   -0.419934
    115          1           0       11.213726    0.644490    0.060345
    116          1           0       11.544220   -0.969090    0.784146
    117          1           0       13.009441   -1.480570   -1.283537
    118          1           0       12.889660    0.065938   -1.845379
    119          1           0       13.747597    0.911640    0.427502
    120          1           0       13.779420   -0.741222    0.933908
    121          1           0       15.483971    0.253924   -1.480724
    122          1           0       15.736647   -2.320506   -0.149514
    123          1           0       14.959026   -2.020964   -1.604832
    124          1           0       16.483203   -1.733200   -1.586586
    125          1           0       15.927021    1.351054    0.691267
    126          1           0       16.530357   -0.147346    1.429643
    127          1           0       18.210118   -0.257241   -0.420491
    128          1           0       17.610599    1.374648   -1.085695
    129          1           0       18.415380    2.353519    1.230517
    130          1           0       18.646127    0.734744    1.738834
    131          1           0       20.450686    0.516712    0.078667
    132          1           0       19.764325    3.356455   -0.580047
    133          1           0       21.536299    2.545790   -1.324158
    134          1           0       19.539227    1.992560   -1.782326
    135          1           0       21.297050    1.318794    2.202864
    136          1           0       22.210239    2.090477    0.874459
    137          1           0       20.887630    2.940923    1.965084
 ---------------------------------------------------------------------

 SCF Done:  E(RCAM-B3LYP) =  -2932.66328237     A.U. after   17 cycles

 Excitation energies and oscillator strengths:

 Excited State   1:      Singlet-A      2.3312 eV  531.85 nm  f=0.1679  <S**2>=0.000
     240 -> 242       -0.27681
     240 -> 243        0.20923
     241 -> 242        0.54605
     241 -> 243        0.26777
 This state for optimization and/or second-order correction.
 Total Energy, E(TD-HF/TD-KS) =  -2932.57761229
 Copying the excited state density for this state as the 1-particle RhoCI density.

 The electronic state is 1-A.
 Alpha  occ. eigenvalues --  -46.82839 -19.28338 -19.25970 -19.20801 -19.20228
 Alpha  occ. eigenvalues --  -19.20058 -14.41446 -14.39017 -14.39008 -14.38970
 Alpha  occ. eigenvalues --  -10.40203 -10.38596 -10.34679 -10.34508 -10.32648
 Alpha  occ. eigenvalues --  -10.31355 -10.30643 -10.29543 -10.29308 -10.29198
 Alpha  occ. eigenvalues --  -10.28569 -10.28469 -10.28146 -10.28125 -10.28081
 Alpha  occ. eigenvalues --  -10.28042 -10.27964 -10.27765 -10.27621 -10.27566
 Alpha  occ. eigenvalues --  -10.27484 -10.27375 -10.27224 -10.27143 -10.27143
 Alpha  occ. eigenvalues --  -10.27128 -10.27073 -10.26951 -10.26883 -10.26784
 Alpha  occ. eigenvalues --  -10.26614 -10.26537 -10.26100 -10.26002 -10.25847
 Alpha  occ. eigenvalues --  -10.25749 -10.25678 -10.25623 -10.25517 -10.25404
 Alpha  occ. eigenvalues --  -10.25369 -10.25228 -10.25122 -10.25088 -10.25015
 Alpha  occ. eigenvalues --  -10.24900 -10.24644 -10.24552 -10.24550 -10.24487
 Alpha  occ. eigenvalues --  -10.24408 -10.23966 -10.23373 -10.22557 -10.22556
 Alpha  occ. eigenvalues --   -3.12139  -1.86826  -1.86388  -1.86338  -1.17242
 Alpha  occ. eigenvalues --   -1.16770  -1.11919  -1.08442  -1.06668  -1.04659
 Alpha  occ. eigenvalues --   -1.03581  -1.03138  -1.01714  -0.92400  -0.91602
 Alpha  occ. eigenvalues --   -0.91287  -0.90843  -0.90131  -0.89743  -0.89365
 Alpha  occ. eigenvalues --   -0.88609  -0.88178  -0.87222  -0.86959  -0.86070
 Alpha  occ. eigenvalues --   -0.85537  -0.85124  -0.84184  -0.83635  -0.83257
 Alpha  occ. eigenvalues --   -0.81755  -0.81072  -0.80594  -0.80272  -0.78567
 Alpha  occ. eigenvalues --   -0.78193  -0.77705  -0.76505  -0.76078  -0.75738
 Alpha  occ. eigenvalues --   -0.74887  -0.74388  -0.74148  -0.73488  -0.72357
 Alpha  occ. eigenvalues --   -0.72122  -0.71649  -0.70550  -0.69139  -0.68342
 Alpha  occ. eigenvalues --   -0.66898  -0.66617  -0.65488  -0.65167  -0.64438
 Alpha  occ. eigenvalues --   -0.64342  -0.63453  -0.63373  -0.62405  -0.61957
 Alpha  occ. eigenvalues --   -0.61352  -0.60809  -0.60539  -0.59509  -0.58918
 Alpha  occ. eigenvalues --   -0.58281  -0.58056  -0.57436  -0.57028  -0.56846
 Alpha  occ. eigenvalues --   -0.56310  -0.55439  -0.55348  -0.54933  -0.54898
 Alpha  occ. eigenvalues --   -0.54522  -0.53905  -0.53789  -0.53332  -0.53039
 Alpha  occ. eigenvalues --   -0.52868  -0.52671  -0.52319  -0.52156  -0.52138
 Alpha  occ. eigenvalues --   -0.51897  -0.51336  -0.51191  -0.51101  -0.50933
 Alpha  occ. eigenvalues --   -0.50531  -0.50405  -0.50240  -0.49884  -0.49644
 Alpha  occ. eigenvalues --   -0.49494  -0.49328  -0.48953  -0.48703  -0.48194
 Alpha  occ. eigenvalues --   -0.48113  -0.47892  -0.47591  -0.47451  -0.47336
 Alpha  occ. eigenvalues --   -0.47106  -0.46900  -0.46537  -0.46276  -0.46121
 Alpha  occ. eigenvalues --   -0.45919  -0.45648  -0.45490  -0.45252  -0.45060
 Alpha  occ. eigenvalues --   -0.44756  -0.44548  -0.44368  -0.44268  -0.44155
 Alpha  occ. eigenvalues --   -0.43832  -0.43806  -0.43587  -0.43528  -0.43328
 Alpha  occ. eigenvalues --   -0.43133  -0.43090  -0.42877  -0.42857  -0.42497
 Alpha  occ. eigenvalues --   -0.42295  -0.42071  -0.41511  -0.41107  -0.40836
 Alpha  occ. eigenvalues --   -0.40717  -0.40572  -0.40418  -0.40096  -0.40031
 Alpha  occ. eigenvalues --   -0.39971  -0.39768  -0.39456  -0.39354  -0.39112
 Alpha  occ. eigenvalues --   -0.39038  -0.38656  -0.38357  -0.37975  -0.37894
 Alpha  occ. eigenvalues --   -0.37758  -0.37673  -0.37233  -0.36797  -0.36590
 Alpha  occ. eigenvalues --   -0.36516  -0.36422  -0.36401  -0.36266  -0.35592
 Alpha  occ. eigenvalues --   -0.35574  -0.35232  -0.34958  -0.33554  -0.33006
 Alpha  occ. eigenvalues --   -0.32947  -0.32658  -0.32483  -0.30557  -0.30256
 Alpha  occ. eigenvalues --   -0.29981  -0.29616  -0.28866  -0.28384  -0.23562
 Alpha  occ. eigenvalues --   -0.21188
 Alpha virt. eigenvalues --   -0.05204  -0.03093   0.02192   0.04855   0.05093
 Alpha virt. eigenvalues --    0.05746   0.06662   0.06885   0.07243   0.07711
 Alpha virt. eigenvalues --    0.08714   0.10595   0.10913   0.10919   0.11087

 Mulliken charges:
               1
     1  Mg   0.814167
     2  C    0.119069
     3  C   -0.233385
     4  C   -0.193606
     5  C   -0.173534
     6  N   -0.673057
     7  C    0.320547
     8  C   -0.149647
     9  C   -0.172794
    10  C    0.392999
    11  C   -0.297491
    12  C   -0.137317
    13  C   -0.265822
    14  C    0.601646
    15  O   -0.514411
    16  O   -0.476725
    17  N   -0.763954
    18  C    0.326772
    19  C    0.039073
    20  C   -0.018681
    21  C    0.377521
    22  C   -0.359866
    23  C   -0.035831
    24  C   -0.261609
    25  N   -0.669476
    26  C    0.265258
    27  C   -0.006300
    28  C    0.083811
    29  C    0.252568
    30  C   -0.359154
    31  C   -0.223460
    32  C   -0.326116
    33  N   -0.703281
    34  C    0.252411
    35  C   -0.046965
    36  C    0.038778
    37  C    0.275617
    38  C   -0.367439
    39  C    0.368298
    40  O   -0.443854
    41  C   -0.348634
    42  C    0.624351
    43  O   -0.477377
    44  O   -0.459252
    45  C   -0.081529
    46  C   -0.016428
    47  C   -0.113254
    48  C    0.081619
    49  C   -0.323868
    50  C   -0.222750
    51  C   -0.197290
    52  C   -0.157117
    53  C   -0.081673
    54  C   -0.308633
    55  C   -0.163414
    56  C   -0.192286
    57  C   -0.176598
    58  C   -0.064824
    59  C   -0.321794
    60  C   -0.159541
    61  C   -0.182350
    62  C   -0.188487
    63  C   -0.046209
    64  C   -0.270463
    65  C   -0.307470
    66  H    0.073973
    67  H    0.084532
    68  H    0.092779
    69  H    0.116483
    70  H    0.099067
    71  H    0.113690
    72  H    0.095874
    73  H    0.129212
    74  H    0.123050
    75  H    0.101501
    76  H    0.117380
    77  H    0.138862
    78  H    0.146429
    79  H    0.139576
    80  H    0.087026
    81  H    0.088985
    82  H    0.102907
    83  H    0.104946
    84  H    0.135958
    85  H    0.103240
    86  H    0.094251
    87  H    0.113096
    88  H    0.090885
    89  H    0.111223
    90  H    0.102250
    91  H    0.118247
    92  H    0.133598
    93  H    0.135709
    94  H    0.122634
    95  H    0.162919
    96  H    0.117181
    97  H    0.134310
    98  H    0.120625
    99  H    0.169406
   100  H    0.107759
   101  H    0.098405
   102  H    0.080583
   103  H    0.115441
   104  H    0.133190
   105  H    0.082217
   106  H    0.073181
   107  H    0.118107
   108  H    0.094321
   109  H    0.106726
   110  H    0.108221
   111  H    0.069139
   112  H    0.103212
   113  H    0.106444
   114  H    0.088262
   115  H    0.092714
   116  H    0.074678
   117  H    0.106975
   118  H    0.081938
   119  H    0.088202
   120  H    0.078939
   121  H    0.094623
   122  H    0.085283
   123  H    0.107238
   124  H    0.104652
   125  H    0.104344
   126  H    0.095265
   127  H    0.103088
   128  H    0.085141
   129  H    0.091804
   130  H    0.085053
   131  H    0.086774
   132  H    0.093020
   133  H    0.069965
   134  H    0.091619
   135  H    0.101882
   136  H    0.078298
   137  H    0.092001
 Sum of Mulliken charges =   0.00000

 Dipole moment (field-independent basis, Debye):
    X=              2.5742    Y=              5.5101    Z=             -0.2747  Tot=              6.0879
 Quadrupole moment (field-independent basis, Debye-Ang):
   XX=           -361.8873   YY=           -392.5260   ZZ=           -395.6775
   XY=            -36.3326   XZ=             11.1938   YZ=              0.9161

 Normal termination of Gaussian 09 at Mon Jul  1 07:28:25 2019.
