 Gaussian 09, Revision D.01,
 Gaussian 09:  ES64L-G09RevD.01 24-Apr-2013

 -------------------------------------
 # td=(NStates=1) CAM-B3LYP/6-31G(d,p)
 -------------------------------------

 --
 TD
 --
 Symbolic Z-matrix:
 Charge =  0 Multiplicity = 1

                         Standard orientation:
 ---------------------------------------------------------------------
 Center     Atomic      Atomic             Coordinates (Angstroms)
 Number     Number       Type             X           Y           Z
 ---------------------------------------------------------------------
      1         12           0       -7.118066    0.524399    0.145463
      2          6           0       -4.917572   -2.080883    0.585548
      3          6           0       -4.872847    2.842251    1.020809
      4          6           0       -9.407389    3.019918   -0.328491
      5          6           0       -9.597425   -1.803521   -1.015312
      6          7           0       -5.190506    0.386736    0.848184
      7          6           0       -4.405198   -0.769608    0.781499
      8          6           0       -2.985578   -0.439575    1.214812
      9          6           0       -3.164027    1.030362    1.698957
     10          6           0       -4.467512    1.523944    1.150502
     11          6           0       -2.964601    1.256250    3.287087
     12          6           0       -1.923814   -0.614646    0.153025
     13          6           0       -0.507028   -0.331469    0.592324
     14          6           0        0.537869   -0.606500   -0.496446
     15          8           0        0.263861   -1.125613   -1.547904
     16          8           0        1.800380   -0.274263   -0.055107
     17          7           0       -7.195247    2.509363    0.379853
     18          6           0       -6.140346    3.303874    0.851144
     19          6           0       -6.524753    4.712732    0.880518
     20          6           0       -7.828143    4.756014    0.421764
     21          6           0       -8.193002    3.410547    0.119647
     22          6           0       -5.626914    5.864705    1.400353
     23          6           0       -8.578783    6.034853    0.254173
     24          6           0       -8.096053    7.244854    0.059005
     25          7           0       -9.105653    0.545430   -0.617008
     26          6           0       -9.811200    1.669960   -0.648082
     27          6           0      -11.187547    1.449730   -1.118722
     28          6           0      -11.249458    0.134256   -1.291905
     29          6           0       -9.947665   -0.448030   -0.926467
     30          6           0      -12.198678    2.413340   -1.355002
     31          6           0      -12.421794   -0.678393   -1.731755
     32          6           0      -12.213278   -1.154781   -3.283893
     33          7           0       -7.264042   -1.482977   -0.151442
     34          6           0       -8.322532   -2.290887   -0.596449
     35          6           0       -7.786173   -3.626467   -0.533302
     36          6           0       -6.479809   -3.525803   -0.145692
     37          6           0       -6.227447   -2.217006    0.103458
     38          6           0       -8.500380   -4.904895   -0.883951
     39          6           0       -5.283953   -4.403704    0.176111
     40          8           0       -5.246047   -5.550376    0.161816
     41          6           0       -4.164165   -3.403128    0.524338
     42          6           0       -3.520898   -3.583433    1.874702
     43          8           0       -3.862635   -3.144198    2.909925
     44          8           0       -2.608070   -4.551533    1.726120
     45          6           0       -2.007229   -5.052320    3.011536
     46          6           0        2.797083   -0.418926   -1.079834
     47          6           0        4.126106   -0.321515   -0.522819
     48          6           0        5.111940    0.498777   -0.865971
     49          6           0        5.020207    1.302315   -2.146129
     50          6           0        6.491576    0.574625   -0.290902
     51          6           0        7.688498    0.087798   -1.010129
     52          6           0        8.913330   -0.008267   -0.056864
     53          6           0       10.146878   -0.398816   -0.884630
     54          6           0       10.019699   -1.926079   -1.418720
     55          6           0       11.392453   -0.212171   -0.017507
     56          6           0       12.739888   -0.388239   -0.795804
     57          6           0       13.914064   -0.038300    0.065907
     58          6           0       15.333221   -0.082813   -0.566454
     59          6           0       15.631155   -1.576934   -1.067222
     60          6           0       16.462833    0.218458    0.478885
     61          6           0       17.769715    0.524243   -0.228981
     62          6           0       18.919475    1.126526    0.760439
     63          6           0       20.317514    1.189765    0.265494
     64          6           0       20.541584    1.927271   -1.032435
     65          6           0       21.251795    1.651375    1.413467
     66          1           0       -4.017273    3.384202    1.573666
     67          1           0      -10.181348    3.887144   -0.408843
     68          1           0      -10.312947   -2.634846   -1.229078
     69          1           0       -2.936122   -0.970339    2.167993
     70          1           0       -2.415976    1.565024    1.107357
     71          1           0       -1.885080    0.803199    3.567693
     72          1           0       -3.037650    2.389393    3.551484
     73          1           0       -3.799856    0.604940    3.583731
     74          1           0       -2.066940   -1.602069    0.027877
     75          1           0       -2.059423   -0.191406   -0.946099
     76          1           0       -0.444865    0.702603    1.064307
     77          1           0       -0.173762   -0.980139    1.489960
     78          1           0       -4.889198    6.200922    0.743344
     79          1           0       -6.280004    6.523442    1.850772
     80          1           0       -4.938319    5.342258    2.112922
     81          1           0       -9.643304    5.979348    0.394013
     82          1           0       -8.827914    8.116321    0.110370
     83          1           0       -6.918428    7.451104   -0.075852
     84          1           0      -12.069346    3.049686   -2.344427
     85          1           0      -13.330681    2.010616   -1.279397
     86          1           0      -12.259448    3.287760   -0.669291
     87          1           0      -12.498128   -1.448364   -1.042579
     88          1           0      -13.435298   -0.211417   -1.714825
     89          1           0      -13.144301   -1.727024   -3.727521
     90          1           0      -12.168722   -0.156876   -3.870656
     91          1           0      -11.242971   -1.456554   -3.394607
     92          1           0       -9.057319   -4.845097   -1.956560
     93          1           0       -7.920621   -5.800283   -0.982035
     94          1           0       -9.251903   -5.277536   -0.215873
     95          1           0       -3.580322   -3.309945   -0.365136
     96          1           0       -1.570705   -4.179054    3.443112
     97          1           0       -2.835391   -5.530552    3.560491
     98          1           0       -1.278170   -5.778348    2.695484
     99          1           0        2.677784   -1.493327   -1.631993
    100          1           0        2.625988    0.401366   -1.936879
    101          1           0        4.388423   -0.862877    0.525262
    102          1           0        4.023668    1.463859   -2.684168
    103          1           0        5.544821    2.400412   -1.889100
    104          1           0        5.713189    0.822473   -2.899011
    105          1           0        6.775896    1.689804   -0.203288
    106          1           0        6.538814    0.087873    0.690045
    107          1           0        7.458879   -0.794888   -1.451798
    108          1           0        7.992348    0.986687   -1.885484
    109          1           0        9.083699    1.025935    0.332085
    110          1           0        8.475987   -0.622958    0.657168
    111          1           0       10.128491    0.171887   -1.799252
    112          1           0        9.296598   -2.094519   -2.298816
    113          1           0       10.921790   -2.269040   -2.064037
    114          1           0        9.756769   -2.571203   -0.390591
    115          1           0       11.494977    1.006136    0.180177
    116          1           0       11.363265   -1.030299    0.758080
    117          1           0       12.933305   -1.372994   -1.152967
    118          1           0       12.490656    0.131168   -1.806142
    119          1           0       13.772419    0.926482    0.509479
    120          1           0       13.853679   -0.693776    0.863513
    121          1           0       15.181991    0.555186   -1.538928
    122          1           0       15.811804   -2.470170   -0.338510
    123          1           0       14.804947   -1.866621   -1.812941
    124          1           0       16.665213   -1.704014   -1.551167
    125          1           0       16.182178    1.292056    0.818922
    126          1           0       16.445839   -0.579854    1.319289
    127          1           0       18.112842   -0.442579   -0.758989
    128          1           0       17.803064    1.102327   -1.160642
    129          1           0       18.596510    1.986671    1.123434
    130          1           0       18.795909    0.637262    1.806018
    131          1           0       20.651276    0.174815    0.092132
    132          1           0       20.038714    2.874184   -0.788813
    133          1           0       21.692118    1.954704   -1.297849
    134          1           0       20.178596    1.449166   -1.915146
    135          1           0       21.023566    0.796231    2.232522
    136          1           0       22.354898    1.548472    1.197377
    137          1           0       21.123701    2.581250    1.973909
 ---------------------------------------------------------------------

 SCF Done:  E(RCAM-B3LYP) =  -2932.70369981     A.U. after   18 cycles

 Excitation energies and oscillator strengths:

 Excited State   1:      Singlet-A      2.0764 eV  597.10 nm  f=0.2315  <S**2>=0.000
     240 -> 243        0.24929
     241 -> 242        0.65240
 This state for optimization and/or second-order correction.
 Total Energy, E(TD-HF/TD-KS) =  -2932.62739248
 Copying the excited state density for this state as the 1-particle RhoCI density.

 The electronic state is 1-A.
 Alpha  occ. eigenvalues --  -46.83408 -19.26933 -19.25718 -19.22083 -19.21461
 Alpha  occ. eigenvalues --  -19.20978 -14.41158 -14.39329 -14.39280 -14.37955
 Alpha  occ. eigenvalues --  -10.40025 -10.39048 -10.34897 -10.33570 -10.31592
 Alpha  occ. eigenvalues --  -10.30701 -10.30449 -10.30090 -10.28956 -10.28748
 Alpha  occ. eigenvalues --  -10.28611 -10.28415 -10.28311 -10.28303 -10.28074
 Alpha  occ. eigenvalues --  -10.27938 -10.27740 -10.27595 -10.27565 -10.27537
 Alpha  occ. eigenvalues --  -10.27501 -10.27255 -10.27245 -10.27107 -10.27054
 Alpha  occ. eigenvalues --  -10.27010 -10.27006 -10.26996 -10.26927 -10.26892
 Alpha  occ. eigenvalues --  -10.26781 -10.26722 -10.26635 -10.26586 -10.26573
 Alpha  occ. eigenvalues --  -10.26521 -10.26215 -10.26159 -10.25988 -10.25964
 Alpha  occ. eigenvalues --  -10.25936 -10.25751 -10.25665 -10.25588 -10.25564
 Alpha  occ. eigenvalues --  -10.25546 -10.25386 -10.25309 -10.24985 -10.24906
 Alpha  occ. eigenvalues --  -10.24839 -10.24630 -10.24510 -10.23839 -10.22865
 Alpha  occ. eigenvalues --   -3.12546  -1.87257  -1.86788  -1.86722  -1.18929
 Alpha  occ. eigenvalues --   -1.18284  -1.15393  -1.10492  -1.10075  -1.04824
 Alpha  occ. eigenvalues --   -1.04005  -1.03264  -1.02063  -0.92817  -0.92048
 Alpha  occ. eigenvalues --   -0.90345  -0.90134  -0.89514  -0.89170  -0.88822
 Alpha  occ. eigenvalues --   -0.88678  -0.88388  -0.86832  -0.86171  -0.85942
 Alpha  occ. eigenvalues --   -0.84834  -0.84119  -0.83363  -0.83228  -0.82301
 Alpha  occ. eigenvalues --   -0.81308  -0.80952  -0.79959  -0.78937  -0.78458
 Alpha  occ. eigenvalues --   -0.77316  -0.77124  -0.76171  -0.75716  -0.74936
 Alpha  occ. eigenvalues --   -0.74887  -0.74101  -0.73896  -0.73393  -0.71927
 Alpha  occ. eigenvalues --   -0.71608  -0.70624  -0.69882  -0.69138  -0.67544
 Alpha  occ. eigenvalues --   -0.66543  -0.66344  -0.65065  -0.64728  -0.64036
 Alpha  occ. eigenvalues --   -0.63601  -0.63438  -0.63302  -0.62766  -0.62183
 Alpha  occ. eigenvalues --   -0.61924  -0.60281  -0.60129  -0.59641  -0.58976
 Alpha  occ. eigenvalues --   -0.58895  -0.58865  -0.58189  -0.57865  -0.56401
 Alpha  occ. eigenvalues --   -0.56166  -0.55821  -0.55701  -0.55150  -0.54919
 Alpha  occ. eigenvalues --   -0.54478  -0.54277  -0.53699  -0.53670  -0.53524
 Alpha  occ. eigenvalues --   -0.53298  -0.52568  -0.52348  -0.52033  -0.51738
 Alpha  occ. eigenvalues --   -0.51485  -0.50780  -0.50692  -0.50385  -0.50294
 Alpha  occ. eigenvalues --   -0.50166  -0.49867  -0.49752  -0.49582  -0.49396
 Alpha  occ. eigenvalues --   -0.48998  -0.48948  -0.48738  -0.48620  -0.48319
 Alpha  occ. eigenvalues --   -0.47930  -0.47457  -0.47341  -0.47038  -0.46930
 Alpha  occ. eigenvalues --   -0.46640  -0.46488  -0.46426  -0.46159  -0.46100
 Alpha  occ. eigenvalues --   -0.45844  -0.45752  -0.45541  -0.45228  -0.44911
 Alpha  occ. eigenvalues --   -0.44639  -0.44624  -0.44532  -0.44192  -0.44047
 Alpha  occ. eigenvalues --   -0.43921  -0.43589  -0.43512  -0.43453  -0.43188
 Alpha  occ. eigenvalues --   -0.43056  -0.42643  -0.42374  -0.42065  -0.41946
 Alpha  occ. eigenvalues --   -0.41650  -0.41595  -0.41477  -0.41229  -0.40965
 Alpha  occ. eigenvalues --   -0.40838  -0.40582  -0.40519  -0.40317  -0.39963
 Alpha  occ. eigenvalues --   -0.39877  -0.39630  -0.39621  -0.39480  -0.38649
 Alpha  occ. eigenvalues --   -0.38570  -0.38437  -0.38274  -0.38175  -0.37549
 Alpha  occ. eigenvalues --   -0.37418  -0.37313  -0.37070  -0.36757  -0.36707
 Alpha  occ. eigenvalues --   -0.36585  -0.36377  -0.36148  -0.36041  -0.35569
 Alpha  occ. eigenvalues --   -0.35424  -0.35363  -0.34826  -0.34686  -0.34166
 Alpha  occ. eigenvalues --   -0.33497  -0.32774  -0.32424  -0.30402  -0.29845
 Alpha  occ. eigenvalues --   -0.29779  -0.28939  -0.28312  -0.28026  -0.23032
 Alpha  occ. eigenvalues --   -0.20719
 Alpha virt. eigenvalues --   -0.05798  -0.02610   0.02890   0.04875   0.05717
 Alpha virt. eigenvalues --    0.05923   0.06224   0.06685   0.07124   0.07756
 Alpha virt. eigenvalues --    0.08511   0.10487   0.10568   0.11573   0.11647

 Mulliken charges:
               1
     1  Mg   0.808168
     2  C    0.032179
     3  C   -0.190852
     4  C   -0.195872
     5  C   -0.166160
     6  N   -0.641648
     7  C    0.265019
     8  C   -0.187209
     9  C   -0.183235
    10  C    0.319921
    11  C   -0.294756
    12  C   -0.159284
    13  C   -0.279414
    14  C    0.629109
    15  O   -0.455999
    16  O   -0.481610
    17  N   -0.723620
    18  C    0.307942
    19  C   -0.008293
    20  C    0.017819
    21  C    0.341013
    22  C   -0.359744
    23  C   -0.056880
    24  C   -0.253544
    25  N   -0.658772
    26  C    0.290453
    27  C    0.104444
    28  C   -0.000591
    29  C    0.281116
    30  C   -0.408989
    31  C   -0.235501
    32  C   -0.319586
    33  N   -0.767567
    34  C    0.251460
    35  C   -0.020423
    36  C   -0.033036
    37  C    0.382896
    38  C   -0.392858
    39  C    0.393461
    40  O   -0.395727
    41  C   -0.313768
    42  C    0.642732
    43  O   -0.452816
    44  O   -0.486178
    45  C   -0.089151
    46  C    0.018465
    47  C   -0.125288
    48  C    0.142475
    49  C   -0.357785
    50  C   -0.222547
    51  C   -0.164056
    52  C   -0.161238
    53  C   -0.061567
    54  C   -0.313403
    55  C   -0.155341
    56  C   -0.192763
    57  C   -0.159198
    58  C   -0.061809
    59  C   -0.320598
    60  C   -0.166293
    61  C   -0.183956
    62  C   -0.174015
    63  C   -0.051483
    64  C   -0.299195
    65  C   -0.313909
    66  H    0.075629
    67  H    0.088045
    68  H    0.115167
    69  H    0.137871
    70  H    0.098248
    71  H    0.097929
    72  H    0.107006
    73  H    0.137831
    74  H    0.125424
    75  H    0.121442
    76  H    0.131439
    77  H    0.127957
    78  H    0.134423
    79  H    0.137072
    80  H    0.103295
    81  H    0.093913
    82  H    0.103725
    83  H    0.105038
    84  H    0.109550
    85  H    0.101657
    86  H    0.113714
    87  H    0.112073
    88  H    0.095988
    89  H    0.097722
    90  H    0.097107
    91  H    0.128561
    92  H    0.088302
    93  H    0.143124
    94  H    0.126317
    95  H    0.181228
    96  H    0.137969
    97  H    0.145630
    98  H    0.135821
    99  H    0.121183
   100  H    0.102383
   101  H    0.073817
   102  H    0.107331
   103  H    0.079454
   104  H    0.127287
   105  H    0.094902
   106  H    0.089695
   107  H    0.112766
   108  H    0.043439
   109  H    0.093734
   110  H    0.101092
   111  H    0.094329
   112  H    0.101046
   113  H    0.097591
   114  H    0.082447
   115  H    0.077624
   116  H    0.095608
   117  H    0.101636
   118  H    0.066820
   119  H    0.084416
   120  H    0.098168
   121  H    0.086791
   122  H    0.089265
   123  H    0.091904
   124  H    0.091864
   125  H    0.082321
   126  H    0.105185
   127  H    0.073528
   128  H    0.104094
   129  H    0.103207
   130  H    0.070741
   131  H    0.093786
   132  H    0.101727
   133  H    0.085259
   134  H    0.108025
   135  H    0.077162
   136  H    0.095465
   137  H    0.105539
 Sum of Mulliken charges =   0.00000

 Dipole moment (field-independent basis, Debye):
    X=              2.9869    Y=              3.7964    Z=              1.1764  Tot=              4.9717
 Quadrupole moment (field-independent basis, Debye-Ang):
   XX=           -367.6435   YY=           -389.7871   ZZ=           -397.5986
   XY=            -26.9281   XZ=              1.4382   YZ=             -3.0657

 Normal termination of Gaussian 09 at Fri Jun 28 13:41:14 2019.
