 Gaussian 09, Revision D.01,
 Gaussian 09:  ES64L-G09RevD.01 24-Apr-2013

 -------------------------------------
 # td=(NStates=1) CAM-B3LYP/6-31G(d,p)
 -------------------------------------

 --
 TD
 --
 Symbolic Z-matrix:
 Charge =  0 Multiplicity = 1

                         Standard orientation:
 ---------------------------------------------------------------------
 Center     Atomic      Atomic             Coordinates (Angstroms)
 Number     Number       Type             X           Y           Z
 ---------------------------------------------------------------------
      1         12           0       -7.133770    0.614851    0.054173
      2          6           0       -4.826205   -1.955174    0.480905
      3          6           0       -4.764979    2.846535    1.043835
      4          6           0       -9.401764    3.078785   -0.403460
      5          6           0       -9.441367   -1.687219   -0.862457
      6          7           0       -5.043618    0.398923    0.753422
      7          6           0       -4.360121   -0.701373    0.882368
      8          6           0       -2.980926   -0.331717    1.240873
      9          6           0       -3.029135    1.167009    1.678694
     10          6           0       -4.413343    1.652358    1.216889
     11          6           0       -2.875876    1.388180    3.102415
     12          6           0       -1.963344   -0.627411    0.022144
     13          6           0       -0.513014   -0.565799    0.490652
     14          6           0        0.429406   -0.792976   -0.668883
     15          8           0        0.105480   -1.097023   -1.846953
     16          8           0        1.610401   -0.542443   -0.233766
     17          7           0       -7.212619    2.609021    0.356602
     18          6           0       -6.111653    3.349051    0.740986
     19          6           0       -6.523481    4.747065    0.781198
     20          6           0       -7.888984    4.768745    0.410200
     21          6           0       -8.207414    3.422886    0.168171
     22          6           0       -5.656834    5.851277    1.430879
     23          6           0       -8.712047    5.942018    0.372749
     24          6           0       -8.282813    7.164156    0.089875
     25          7           0       -9.108893    0.663889   -0.527387
     26          6           0       -9.865721    1.826985   -0.659358
     27          6           0      -11.178821    1.546653   -1.150756
     28          6           0      -11.205007    0.155414   -1.312345
     29          6           0       -9.945713   -0.389514   -0.934473
     30          6           0      -12.261051    2.540194   -1.465137
     31          6           0      -12.360663   -0.729715   -1.883527
     32          6           0      -12.212076   -1.244583   -3.256661
     33          7           0       -7.199450   -1.377293   -0.047515
     34          6           0       -8.336001   -2.225270   -0.492452
     35          6           0       -7.890501   -3.559732   -0.426394
     36          6           0       -6.519713   -3.479880   -0.115559
     37          6           0       -6.161298   -2.218042    0.172008
     38          6           0       -8.648346   -4.846856   -0.616730
     39          6           0       -5.219818   -4.320226    0.203181
     40          8           0       -5.123700   -5.482573    0.311615
     41          6           0       -4.132191   -3.293683    0.643953
     42          6           0       -3.623814   -3.539872    1.917748
     43          8           0       -3.783934   -3.074906    2.982495
     44          8           0       -2.757870   -4.690055    1.846226
     45          6           0       -2.024435   -5.110766    3.016089
     46          6           0        2.720815   -0.795287   -1.217115
     47          6           0        4.039861   -0.578792   -0.550936
     48          6           0        5.096242    0.133410   -0.970315
     49          6           0        5.158729    0.820680   -2.334420
     50          6           0        6.348305    0.152123   -0.198064
     51          6           0        7.699063   -0.253766   -0.878106
     52          6           0        8.976157   -0.171449   -0.052295
     53          6           0       10.252226   -0.557223   -0.885904
     54          6           0       10.114694   -2.126874   -1.363895
     55          6           0       11.481915   -0.240075   -0.110949
     56          6           0       12.852746   -0.578242   -0.704091
     57          6           0       13.977364    0.020136    0.036984
     58          6           0       15.383764   -0.114982   -0.615811
     59          6           0       15.749255   -1.611808   -1.028379
     60          6           0       16.477264    0.526180    0.350692
     61          6           0       17.834366    0.677049   -0.259609
     62          6           0       18.777272    1.268035    0.698231
     63          6           0       20.342471    1.395495    0.359790
     64          6           0       20.515426    2.217340   -0.939786
     65          6           0       21.038357    2.098680    1.497075
     66          1           0       -4.246904    3.591667    1.359235
     67          1           0      -10.090063    3.943602   -0.462472
     68          1           0      -10.114259   -2.502790   -1.177612
     69          1           0       -2.820821   -1.044208    2.162585
     70          1           0       -2.268586    1.788606    1.102112
     71          1           0       -1.837688    1.102735    3.327642
     72          1           0       -2.881849    2.521436    3.302112
     73          1           0       -3.642766    1.114582    3.876877
     74          1           0       -2.166208   -1.750652   -0.255765
     75          1           0       -2.394061    0.061883   -0.775027
     76          1           0       -0.167223    0.372272    0.825966
     77          1           0       -0.321402   -1.425052    1.392322
     78          1           0       -4.820556    6.478540    0.724901
     79          1           0       -6.246181    6.586904    1.898015
     80          1           0       -4.998085    5.577804    2.330467
     81          1           0       -9.775401    5.797488    0.331197
     82          1           0       -9.214526    7.827417    0.077080
     83          1           0       -7.270775    7.690923   -0.074264
     84          1           0      -12.025641    3.524769   -2.086238
     85          1           0      -13.148449    2.178001   -1.925838
     86          1           0      -12.660694    3.112299   -0.423568
     87          1           0      -12.355554   -1.481313   -1.164737
     88          1           0      -13.141190    0.077432   -1.838202
     89          1           0      -12.948961   -1.601874   -3.548204
     90          1           0      -11.989295   -0.454449   -3.988175
     91          1           0      -11.234965   -1.857905   -3.426553
     92          1           0       -8.983266   -4.943685   -1.633514
     93          1           0       -8.137055   -5.795907   -0.171438
     94          1           0       -9.704225   -4.492084   -0.194836
     95          1           0       -3.341184   -3.532352   -0.072906
     96          1           0       -1.323585   -4.492021    3.371708
     97          1           0       -2.827213   -5.538103    3.871498
     98          1           0       -1.395159   -5.835997    2.679919
     99          1           0        2.741346   -1.787920   -1.500798
    100          1           0        2.716461   -0.004134   -2.158732
    101          1           0        3.989346   -1.106592    0.509201
    102          1           0        4.146660    1.087202   -2.714902
    103          1           0        5.616359    1.768780   -2.277465
    104          1           0        5.678395    0.334288   -3.020641
    105          1           0        6.696746    1.106553   -0.155542
    106          1           0        6.155638   -0.442191    0.876012
    107          1           0        7.739024   -1.378897   -1.328884
    108          1           0        7.803354    0.328599   -1.750256
    109          1           0        8.984373    0.943641    0.385652
    110          1           0        8.975502   -0.795915    0.785533
    111          1           0       10.384408    0.143824   -1.709240
    112          1           0        9.344050   -2.295025   -1.979976
    113          1           0       10.933832   -2.427371   -1.964619
    114          1           0       10.235174   -2.795701   -0.552901
    115          1           0       11.466420    0.639746    0.043899
    116          1           0       11.358681   -0.823836    0.742819
    117          1           0       12.869252   -1.716941   -0.831922
    118          1           0       12.843295   -0.020762   -1.727447
    119          1           0       13.975937    0.918966    0.528746
    120          1           0       13.971663   -0.422530    0.910043
    121          1           0       15.279344    0.332378   -1.376332
    122          1           0       15.713792   -2.043055   -0.093909
    123          1           0       15.012840   -2.021883   -1.745721
    124          1           0       16.754642   -1.709215   -1.471711
    125          1           0       15.994161    1.505264    1.065972
    126          1           0       16.500730   -0.198682    1.171230
    127          1           0       18.174625   -0.307335   -0.507835
    128          1           0       17.870671    1.215389   -1.152316
    129          1           0       18.450300    2.484760    0.877191
    130          1           0       18.696925    0.958316    1.753344
    131          1           0       20.727845    0.401935    0.345005
    132          1           0       20.250065    3.159377   -0.810664
    133          1           0       21.485904    2.454913   -1.100271
    134          1           0       19.991785    1.681810   -1.811854
    135          1           0       20.815386    1.759769    2.478892
    136          1           0       22.283750    2.187596    1.374148
    137          1           0       20.656019    3.292134    1.464825
 ---------------------------------------------------------------------

 SCF Done:  E(RCAM-B3LYP) =  -2932.47142645     A.U. after   16 cycles

 Excitation energies and oscillator strengths:

 Excited State   1:      Singlet-A      2.1655 eV  572.53 nm  f=0.2704  <S**2>=0.000
     240 -> 243       -0.24477
     241 -> 242        0.65654
 This state for optimization and/or second-order correction.
 Total Energy, E(TD-HF/TD-KS) =  -2932.39184460
 Copying the excited state density for this state as the 1-particle RhoCI density.

 The electronic state is 1-A.
 Alpha  occ. eigenvalues --  -46.83062 -19.27646 -19.22951 -19.21969 -19.21340
 Alpha  occ. eigenvalues --  -19.19547 -14.39988 -14.39115 -14.39017 -14.37520
 Alpha  occ. eigenvalues --  -10.38592 -10.38345 -10.36461 -10.33129 -10.30087
 Alpha  occ. eigenvalues --  -10.29800 -10.29546 -10.29250 -10.29181 -10.28848
 Alpha  occ. eigenvalues --  -10.28568 -10.28392 -10.28388 -10.28123 -10.28046
 Alpha  occ. eigenvalues --  -10.28034 -10.28001 -10.27840 -10.27777 -10.27387
 Alpha  occ. eigenvalues --  -10.27303 -10.27187 -10.27065 -10.27001 -10.26928
 Alpha  occ. eigenvalues --  -10.26927 -10.26919 -10.26805 -10.26801 -10.26797
 Alpha  occ. eigenvalues --  -10.26784 -10.26720 -10.26620 -10.26568 -10.26503
 Alpha  occ. eigenvalues --  -10.26202 -10.26108 -10.26105 -10.26073 -10.25926
 Alpha  occ. eigenvalues --  -10.25873 -10.25798 -10.25589 -10.25480 -10.25478
 Alpha  occ. eigenvalues --  -10.25318 -10.24368 -10.24173 -10.24134 -10.23956
 Alpha  occ. eigenvalues --  -10.23761 -10.23292 -10.23081 -10.22390 -10.21857
 Alpha  occ. eigenvalues --   -3.12135  -1.86849  -1.86362  -1.86315  -1.19377
 Alpha  occ. eigenvalues --   -1.17199  -1.14751  -1.07469  -1.06541  -1.04782
 Alpha  occ. eigenvalues --   -1.03142  -1.02128  -1.01249  -0.93372  -0.92019
 Alpha  occ. eigenvalues --   -0.91342  -0.90184  -0.90024  -0.89136  -0.89104
 Alpha  occ. eigenvalues --   -0.88710  -0.88388  -0.88185  -0.87291  -0.86490
 Alpha  occ. eigenvalues --   -0.85691  -0.85057  -0.84376  -0.83922  -0.82748
 Alpha  occ. eigenvalues --   -0.82418  -0.81749  -0.80756  -0.80293  -0.78473
 Alpha  occ. eigenvalues --   -0.78196  -0.77560  -0.77264  -0.76839  -0.76307
 Alpha  occ. eigenvalues --   -0.76276  -0.75269  -0.74415  -0.73561  -0.72928
 Alpha  occ. eigenvalues --   -0.72361  -0.70856  -0.70419  -0.69213  -0.67977
 Alpha  occ. eigenvalues --   -0.66997  -0.66784  -0.65966  -0.65555  -0.65073
 Alpha  occ. eigenvalues --   -0.64448  -0.63859  -0.63692  -0.63171  -0.63088
 Alpha  occ. eigenvalues --   -0.62138  -0.60318  -0.60102  -0.59678  -0.58888
 Alpha  occ. eigenvalues --   -0.58617  -0.58464  -0.57879  -0.57396  -0.57228
 Alpha  occ. eigenvalues --   -0.56715  -0.56156  -0.55289  -0.54897  -0.54736
 Alpha  occ. eigenvalues --   -0.54498  -0.53988  -0.53569  -0.53430  -0.52975
 Alpha  occ. eigenvalues --   -0.52898  -0.52798  -0.52476  -0.51843  -0.51836
 Alpha  occ. eigenvalues --   -0.51562  -0.51312  -0.51202  -0.51060  -0.50586
 Alpha  occ. eigenvalues --   -0.50455  -0.50334  -0.50174  -0.49999  -0.49759
 Alpha  occ. eigenvalues --   -0.49421  -0.49126  -0.49020  -0.48779  -0.48535
 Alpha  occ. eigenvalues --   -0.48423  -0.48216  -0.47912  -0.47605  -0.47545
 Alpha  occ. eigenvalues --   -0.47347  -0.47334  -0.47164  -0.46592  -0.46078
 Alpha  occ. eigenvalues --   -0.45838  -0.45768  -0.45671  -0.45368  -0.45296
 Alpha  occ. eigenvalues --   -0.45092  -0.45009  -0.44840  -0.44522  -0.44371
 Alpha  occ. eigenvalues --   -0.44314  -0.44045  -0.43804  -0.43662  -0.43410
 Alpha  occ. eigenvalues --   -0.43330  -0.43032  -0.42842  -0.42595  -0.42334
 Alpha  occ. eigenvalues --   -0.42228  -0.41809  -0.41753  -0.41580  -0.41258
 Alpha  occ. eigenvalues --   -0.41058  -0.40762  -0.40645  -0.40537  -0.40194
 Alpha  occ. eigenvalues --   -0.39669  -0.39576  -0.39464  -0.39132  -0.39091
 Alpha  occ. eigenvalues --   -0.38858  -0.38536  -0.38133  -0.38118  -0.37899
 Alpha  occ. eigenvalues --   -0.37549  -0.37278  -0.37137  -0.36878  -0.36552
 Alpha  occ. eigenvalues --   -0.36186  -0.36044  -0.35905  -0.35834  -0.35521
 Alpha  occ. eigenvalues --   -0.35159  -0.34630  -0.34054  -0.33989  -0.33231
 Alpha  occ. eigenvalues --   -0.33114  -0.32564  -0.31743  -0.31484  -0.30198
 Alpha  occ. eigenvalues --   -0.29986  -0.28596  -0.27553  -0.26865  -0.23373
 Alpha  occ. eigenvalues --   -0.21840
 Alpha virt. eigenvalues --   -0.06559  -0.02973   0.02926   0.04377   0.05801
 Alpha virt. eigenvalues --    0.05979   0.06059   0.06400   0.07400   0.08369
 Alpha virt. eigenvalues --    0.09040   0.10846   0.11356   0.11667   0.12111

 Mulliken charges:
               1
     1  Mg   0.807027
     2  C    0.020455
     3  C   -0.106570
     4  C   -0.143010
     5  C   -0.227783
     6  N   -0.651578
     7  C    0.360864
     8  C   -0.195192
     9  C   -0.141934
    10  C    0.325900
    11  C   -0.302517
    12  C   -0.154597
    13  C   -0.256170
    14  C    0.617384
    15  O   -0.517687
    16  O   -0.448543
    17  N   -0.709794
    18  C    0.233045
    19  C   -0.006639
    20  C    0.027810
    21  C    0.325535
    22  C   -0.375905
    23  C   -0.097863
    24  C   -0.225817
    25  N   -0.699017
    26  C    0.291739
    27  C    0.072928
    28  C   -0.048106
    29  C    0.319459
    30  C   -0.382928
    31  C   -0.208522
    32  C   -0.273181
    33  N   -0.767642
    34  C    0.322759
    35  C    0.028890
    36  C   -0.061498
    37  C    0.369295
    38  C   -0.369301
    39  C    0.377239
    40  O   -0.390799
    41  C   -0.322603
    42  C    0.644346
    43  O   -0.441519
    44  O   -0.515500
    45  C   -0.052190
    46  C    0.019039
    47  C   -0.162186
    48  C    0.150878
    49  C   -0.380839
    50  C   -0.211052
    51  C   -0.193095
    52  C   -0.159773
    53  C   -0.081326
    54  C   -0.338608
    55  C   -0.133437
    56  C   -0.187939
    57  C   -0.178615
    58  C   -0.043407
    59  C   -0.330723
    60  C   -0.182610
    61  C   -0.162603
    62  C   -0.161309
    63  C   -0.058124
    64  C   -0.297567
    65  C   -0.287847
    66  H    0.062482
    67  H    0.089630
    68  H    0.073453
    69  H    0.113014
    70  H    0.102374
    71  H    0.106007
    72  H    0.086629
    73  H    0.127150
    74  H    0.107528
    75  H    0.124747
    76  H    0.140628
    77  H    0.117241
    78  H    0.079223
    79  H    0.130045
    80  H    0.107850
    81  H    0.095699
    82  H    0.084105
    83  H    0.120447
    84  H    0.112705
    85  H    0.126861
    86  H    0.089258
    87  H    0.115323
    88  H    0.093863
    89  H    0.110302
    90  H    0.101170
    91  H    0.090060
    92  H    0.141256
    93  H    0.154515
    94  H    0.104858
    95  H    0.178854
    96  H    0.115502
    97  H    0.095793
    98  H    0.121928
    99  H    0.152203
   100  H    0.109466
   101  H    0.086072
   102  H    0.107616
   103  H    0.117505
   104  H    0.144717
   105  H    0.113663
   106  H    0.079176
   107  H    0.068795
   108  H    0.101881
   109  H    0.061510
   110  H    0.104920
   111  H    0.078106
   112  H    0.118522
   113  H    0.104354
   114  H    0.108477
   115  H    0.090901
   116  H    0.084236
   117  H    0.092774
   118  H    0.064957
   119  H    0.091159
   120  H    0.092626
   121  H    0.089015
   122  H    0.113031
   123  H    0.104520
   124  H    0.098366
   125  H    0.047112
   126  H    0.097739
   127  H    0.102491
   128  H    0.109885
   129  H    0.039578
   130  H    0.086766
   131  H    0.094139
   132  H    0.112309
   133  H    0.102815
   134  H    0.091504
   135  H    0.111454
   136  H    0.071385
   137  H    0.064628
 Sum of Mulliken charges =   0.00000

 Dipole moment (field-independent basis, Debye):
    X=              2.5859    Y=              3.4974    Z=             -0.6618  Tot=              4.3997
 Quadrupole moment (field-independent basis, Debye-Ang):
   XX=           -327.7783   YY=           -392.3050   ZZ=           -398.1707
   XY=            -22.6018   XZ=             13.5435   YZ=              0.4548

 Normal termination of Gaussian 09 at Thu Jun 27 11:58:47 2019.
