 Gaussian 09, Revision D.01,
 Gaussian 09:  ES64L-G09RevD.01 24-Apr-2013

 -------------------------------------
 # td=(NStates=1) CAM-B3LYP/6-31G(d,p)
 -------------------------------------

 --
 TD
 --
 Symbolic Z-matrix:
 Charge =  0 Multiplicity = 1

                         Standard orientation:
 ---------------------------------------------------------------------
 Center     Atomic      Atomic             Coordinates (Angstroms)
 Number     Number       Type             X           Y           Z
 ---------------------------------------------------------------------
      1         12           0       -7.169197    0.610608   -0.039606
      2          6           0       -4.842161   -1.911907    0.514864
      3          6           0       -4.909582    2.780528    1.192509
      4          6           0       -9.455233    3.145298   -0.370165
      5          6           0       -9.537899   -1.675252   -0.800965
      6          7           0       -5.091953    0.395679    0.758043
      7          6           0       -4.298919   -0.680517    0.848156
      8          6           0       -2.915820   -0.436339    1.273134
      9          6           0       -3.027178    1.089128    1.719740
     10          6           0       -4.420294    1.504440    1.151163
     11          6           0       -2.938803    1.163494    3.159579
     12          6           0       -1.927816   -0.563663    0.117223
     13          6           0       -0.569484   -0.425058    0.588124
     14          6           0        0.452376   -0.773547   -0.545621
     15          8           0        0.178938   -1.231953   -1.604648
     16          8           0        1.732587   -0.438638   -0.140864
     17          7           0       -7.158180    2.651675    0.232255
     18          6           0       -6.118685    3.406036    0.793570
     19          6           0       -6.461593    4.795287    0.796192
     20          6           0       -7.721862    4.941953    0.343273
     21          6           0       -8.123923    3.534082    0.036990
     22          6           0       -5.569057    5.808878    1.553975
     23          6           0       -8.706513    6.082143    0.380173
     24          6           0       -8.221975    7.376381    0.204578
     25          7           0       -9.163608    0.661091   -0.540253
     26          6           0       -9.859568    1.830678   -0.653193
     27          6           0      -11.235328    1.451320   -1.047589
     28          6           0      -11.305803    0.100430   -1.220438
     29          6           0       -9.976409   -0.376368   -0.929074
     30          6           0      -12.212133    2.529957   -1.417004
     31          6           0      -12.499147   -0.793005   -1.739827
     32          6           0      -12.341062   -1.043745   -3.215169
     33          7           0       -7.231118   -1.423994   -0.153087
     34          6           0       -8.289025   -2.151621   -0.504993
     35          6           0       -7.905346   -3.561549   -0.485113
     36          6           0       -6.646741   -3.544155   -0.052369
     37          6           0       -6.186442   -2.223374    0.099047
     38          6           0       -8.803791   -4.733551   -0.791337
     39          6           0       -5.455945   -4.314322    0.318118
     40          8           0       -5.266818   -5.572241    0.060823
     41          6           0       -4.271000   -3.267212    0.598039
     42          6           0       -3.528173   -3.687103    1.819933
     43          8           0       -3.699569   -3.129488    2.967190
     44          8           0       -2.800200   -4.791606    1.705629
     45          6           0       -2.133273   -5.327354    2.819154
     46          6           0        2.808437   -0.786861   -1.162285
     47          6           0        4.127951   -0.594130   -0.579648
     48          6           0        5.117493    0.179813   -1.001959
     49          6           0        5.062236    1.111873   -2.238542
     50          6           0        6.425562    0.232783   -0.288599
     51          6           0        7.702068   -0.152257   -1.170258
     52          6           0        8.901965   -0.120990   -0.252832
     53          6           0       10.282505   -0.527712   -1.013429
     54          6           0       10.232398   -1.919429   -1.520176
     55          6           0       11.447752   -0.322388    0.032610
     56          6           0       12.900895   -0.336909   -0.672198
     57          6           0       14.105281    0.049220    0.217510
     58          6           0       15.424066   -0.191357   -0.415654
     59          6           0       15.689211   -1.633785   -0.717375
     60          6           0       16.581521    0.412711    0.457078
     61          6           0       17.950234    0.663676   -0.263635
     62          6           0       18.975679    1.311039    0.614770
     63          6           0       20.411198    1.334646    0.210065
     64          6           0       20.553111    2.240797   -0.992770
     65          6           0       21.198319    1.832180    1.448383
     66          1           0       -4.072139    3.480597    1.594054
     67          1           0      -10.168717    4.029966   -0.487961
     68          1           0      -10.380407   -2.426459   -0.904517
     69          1           0       -2.721567   -1.049170    2.120615
     70          1           0       -2.268164    1.565939    1.258361
     71          1           0       -1.781010    1.204138    3.301129
     72          1           0       -3.380442    2.315136    3.678738
     73          1           0       -3.517599    0.216399    3.438028
     74          1           0       -2.181853   -1.550710   -0.234132
     75          1           0       -2.060329    0.268555   -0.633779
     76          1           0       -0.409031    0.594355    0.814638
     77          1           0       -0.397325   -0.882251    1.575358
     78          1           0       -4.781982    6.006081    0.920994
     79          1           0       -6.322510    6.605191    1.841606
     80          1           0       -5.067465    5.220603    2.342334
     81          1           0       -9.625374    5.940515    0.747310
     82          1           0       -9.023703    8.117212    0.441881
     83          1           0       -7.162878    7.382598   -0.173402
     84          1           0      -11.965284    3.054394   -2.270413
     85          1           0      -13.212000    1.976767   -1.779213
     86          1           0      -12.131442    3.152481   -0.431450
     87          1           0      -12.695535   -1.713023   -0.982663
     88          1           0      -13.428916   -0.160485   -1.556628
     89          1           0      -13.317309   -1.582244   -3.662344
     90          1           0      -12.347359   -0.019081   -3.775463
     91          1           0      -11.394648   -1.469988   -3.638987
     92          1           0       -9.693776   -4.607506   -1.802126
     93          1           0       -8.207827   -5.542686   -0.789600
     94          1           0       -9.483047   -4.705725    0.011689
     95          1           0       -3.561651   -3.653401   -0.041600
     96          1           0       -1.364440   -4.803119    3.271217
     97          1           0       -2.968798   -5.739329    3.636368
     98          1           0       -1.737946   -6.082511    2.324321
     99          1           0        2.471718   -1.933537   -1.456001
    100          1           0        2.716955   -0.091848   -2.070845
    101          1           0        4.465114   -1.165027    0.225934
    102          1           0        4.092589    1.412650   -2.810032
    103          1           0        5.466458    2.148250   -2.151611
    104          1           0        5.728097    0.842376   -3.006003
    105          1           0        6.441642    1.230572   -0.228274
    106          1           0        6.608702   -0.500683    0.635713
    107          1           0        7.690730   -1.305945   -1.539183
    108          1           0        7.837758    0.498180   -1.781804
    109          1           0        9.052960    0.758748    0.230422
    110          1           0        8.748823   -0.546948    0.708590
    111          1           0       10.537497    0.131833   -1.863394
    112          1           0        9.420741   -2.044787   -2.111966
    113          1           0       11.141402   -2.223061   -2.031160
    114          1           0       10.000015   -2.714973   -0.716150
    115          1           0       11.334927    0.713655    0.627027
    116          1           0       11.361562   -1.170693    0.951693
    117          1           0       13.072801   -1.440952   -0.829326
    118          1           0       12.936282    0.386409   -1.614202
    119          1           0       14.193597    1.178701    0.488031
    120          1           0       13.838820   -0.797282    1.060763
    121          1           0       15.300956    0.208851   -1.544294
    122          1           0       15.853080   -2.296550    0.017501
    123          1           0       14.803289   -2.279737   -1.226560
    124          1           0       16.549997   -1.671183   -1.358907
    125          1           0       16.351657    1.347731    0.825105
    126          1           0       16.911306   -0.367780    1.241498
    127          1           0       18.130019   -0.416009   -0.831003
    128          1           0       17.707537    1.190970   -1.055383
    129          1           0       18.502722    2.319094    0.888213
    130          1           0       18.715645    0.928111    1.698745
    131          1           0       20.840048    0.254283    0.050976
    132          1           0       20.085964    3.187862   -0.796295
    133          1           0       21.636682    2.442877   -1.318230
    134          1           0       19.925613    1.841782   -1.859313
    135          1           0       21.061370    1.040735    2.335817
    136          1           0       22.227033    1.922813    1.135780
    137          1           0       20.849591    2.830368    1.940872
 ---------------------------------------------------------------------

 SCF Done:  E(RCAM-B3LYP) =  -2932.55905782     A.U. after   16 cycles

 Excitation energies and oscillator strengths:

 Excited State   1:      Singlet-A      1.9991 eV  620.20 nm  f=0.2592  <S**2>=0.000
     240 -> 243       -0.24710
     241 -> 242        0.65703
 This state for optimization and/or second-order correction.
 Total Energy, E(TD-HF/TD-KS) =  -2932.48559189
 Copying the excited state density for this state as the 1-particle RhoCI density.

 The electronic state is 1-A.
 Alpha  occ. eigenvalues --  -46.85300 -19.27172 -19.25064 -19.21452 -19.20089
 Alpha  occ. eigenvalues --  -19.19445 -14.41668 -14.39967 -14.39162 -14.38756
 Alpha  occ. eigenvalues --  -10.39171 -10.39046 -10.35844 -10.33114 -10.30853
 Alpha  occ. eigenvalues --  -10.30426 -10.30192 -10.30165 -10.29589 -10.29046
 Alpha  occ. eigenvalues --  -10.28833 -10.28546 -10.28433 -10.28325 -10.28223
 Alpha  occ. eigenvalues --  -10.28189 -10.28153 -10.28039 -10.27816 -10.27681
 Alpha  occ. eigenvalues --  -10.27635 -10.27531 -10.27377 -10.27323 -10.27098
 Alpha  occ. eigenvalues --  -10.27045 -10.27027 -10.27000 -10.26929 -10.26862
 Alpha  occ. eigenvalues --  -10.26855 -10.26812 -10.26805 -10.26733 -10.26709
 Alpha  occ. eigenvalues --  -10.26690 -10.26667 -10.26492 -10.26455 -10.26210
 Alpha  occ. eigenvalues --  -10.26197 -10.26183 -10.26030 -10.26016 -10.26003
 Alpha  occ. eigenvalues --  -10.25865 -10.25374 -10.25353 -10.25345 -10.24982
 Alpha  occ. eigenvalues --  -10.24904 -10.24603 -10.24283 -10.23896 -10.23843
 Alpha  occ. eigenvalues --   -3.14155  -1.88873  -1.88376  -1.88327  -1.18772
 Alpha  occ. eigenvalues --   -1.16874  -1.08583  -1.06841  -1.05570  -1.05252
 Alpha  occ. eigenvalues --   -1.04570  -1.04116  -1.02535  -0.93166  -0.92151
 Alpha  occ. eigenvalues --   -0.91857  -0.90889  -0.89572  -0.89324  -0.88922
 Alpha  occ. eigenvalues --   -0.88728  -0.87995  -0.87675  -0.87350  -0.86603
 Alpha  occ. eigenvalues --   -0.85449  -0.85086  -0.84187  -0.83766  -0.82675
 Alpha  occ. eigenvalues --   -0.82037  -0.81501  -0.80934  -0.80179  -0.78572
 Alpha  occ. eigenvalues --   -0.77998  -0.77640  -0.77209  -0.76723  -0.75557
 Alpha  occ. eigenvalues --   -0.75473  -0.75113  -0.74454  -0.73179  -0.72619
 Alpha  occ. eigenvalues --   -0.71253  -0.70263  -0.68815  -0.68693  -0.68568
 Alpha  occ. eigenvalues --   -0.67716  -0.66871  -0.66377  -0.65305  -0.65260
 Alpha  occ. eigenvalues --   -0.64201  -0.63048  -0.62442  -0.62365  -0.62040
 Alpha  occ. eigenvalues --   -0.61043  -0.61001  -0.60446  -0.60084  -0.59450
 Alpha  occ. eigenvalues --   -0.58485  -0.58089  -0.57915  -0.57144  -0.56675
 Alpha  occ. eigenvalues --   -0.56546  -0.56056  -0.55693  -0.55226  -0.54888
 Alpha  occ. eigenvalues --   -0.54614  -0.54432  -0.53899  -0.53472  -0.53315
 Alpha  occ. eigenvalues --   -0.53072  -0.52978  -0.52747  -0.52489  -0.51965
 Alpha  occ. eigenvalues --   -0.51481  -0.51087  -0.50761  -0.50633  -0.50475
 Alpha  occ. eigenvalues --   -0.50452  -0.50263  -0.49974  -0.49725  -0.49533
 Alpha  occ. eigenvalues --   -0.49245  -0.48914  -0.48576  -0.48388  -0.48253
 Alpha  occ. eigenvalues --   -0.48166  -0.47897  -0.47543  -0.47165  -0.47021
 Alpha  occ. eigenvalues --   -0.46902  -0.46613  -0.46431  -0.46103  -0.45865
 Alpha  occ. eigenvalues --   -0.45671  -0.45400  -0.45319  -0.45039  -0.44749
 Alpha  occ. eigenvalues --   -0.44635  -0.44548  -0.44469  -0.44332  -0.44193
 Alpha  occ. eigenvalues --   -0.43641  -0.43518  -0.43356  -0.43164  -0.43049
 Alpha  occ. eigenvalues --   -0.42770  -0.42673  -0.42377  -0.42300  -0.42239
 Alpha  occ. eigenvalues --   -0.41969  -0.41751  -0.41555  -0.41484  -0.41247
 Alpha  occ. eigenvalues --   -0.41000  -0.40740  -0.40725  -0.40599  -0.40335
 Alpha  occ. eigenvalues --   -0.40154  -0.40134  -0.39792  -0.39655  -0.38963
 Alpha  occ. eigenvalues --   -0.38674  -0.38274  -0.38210  -0.38188  -0.37698
 Alpha  occ. eigenvalues --   -0.37509  -0.37326  -0.37208  -0.36955  -0.36770
 Alpha  occ. eigenvalues --   -0.36670  -0.35762  -0.35599  -0.35338  -0.35236
 Alpha  occ. eigenvalues --   -0.35103  -0.34997  -0.34470  -0.34357  -0.33912
 Alpha  occ. eigenvalues --   -0.33276  -0.32341  -0.32120  -0.31201  -0.30083
 Alpha  occ. eigenvalues --   -0.30023  -0.29305  -0.28595  -0.28374  -0.22837
 Alpha  occ. eigenvalues --   -0.20933
 Alpha virt. eigenvalues --   -0.06553  -0.02813   0.01085   0.03529   0.04859
 Alpha virt. eigenvalues --    0.05050   0.05419   0.06820   0.06979   0.07296
 Alpha virt. eigenvalues --    0.08568   0.10017   0.10745   0.11220   0.11398

 Mulliken charges:
               1
     1  Mg   0.833180
     2  C    0.131485
     3  C   -0.231591
     4  C   -0.199718
     5  C   -0.186363
     6  N   -0.625415
     7  C    0.328915
     8  C   -0.198397
     9  C   -0.134913
    10  C    0.337210
    11  C   -0.259912
    12  C   -0.151401
    13  C   -0.276793
    14  C    0.612330
    15  O   -0.446444
    16  O   -0.512091
    17  N   -0.691532
    18  C    0.310386
    19  C   -0.007549
    20  C   -0.007218
    21  C    0.289974
    22  C   -0.353288
    23  C   -0.074086
    24  C   -0.252933
    25  N   -0.707118
    26  C    0.340335
    27  C   -0.026537
    28  C    0.019673
    29  C    0.286356
    30  C   -0.347628
    31  C   -0.217014
    32  C   -0.295802
    33  N   -0.740318
    34  C    0.313804
    35  C   -0.022554
    36  C    0.070046
    37  C    0.220528
    38  C   -0.343048
    39  C    0.337348
    40  O   -0.484494
    41  C   -0.327455
    42  C    0.581600
    43  O   -0.522930
    44  O   -0.425053
    45  C   -0.066721
    46  C    0.013368
    47  C   -0.112516
    48  C    0.140692
    49  C   -0.407118
    50  C   -0.234584
    51  C   -0.141080
    52  C   -0.198512
    53  C   -0.050410
    54  C   -0.303380
    55  C   -0.165855
    56  C   -0.181468
    57  C   -0.148186
    58  C   -0.039942
    59  C   -0.316615
    60  C   -0.187383
    61  C   -0.167858
    62  C   -0.168877
    63  C   -0.043178
    64  C   -0.306569
    65  C   -0.297696
    66  H    0.068968
    67  H    0.092766
    68  H    0.090225
    69  H    0.144456
    70  H    0.098023
    71  H    0.098137
    72  H    0.062040
    73  H    0.133910
    74  H    0.121873
    75  H    0.112595
    76  H    0.136593
    77  H    0.134517
    78  H    0.132703
    79  H    0.123764
    80  H    0.120397
    81  H    0.109098
    82  H    0.113066
    83  H    0.125646
    84  H    0.140466
    85  H    0.089281
    86  H    0.113016
    87  H    0.094886
    88  H    0.106964
    89  H    0.088627
    90  H    0.099454
    91  H    0.122649
    92  H    0.078445
    93  H    0.149378
    94  H    0.143222
    95  H    0.169145
    96  H    0.132139
    97  H    0.111109
    98  H    0.136969
    99  H    0.118338
   100  H    0.115437
   101  H    0.081363
   102  H    0.114256
   103  H    0.109472
   104  H    0.138176
   105  H    0.120282
   106  H    0.097996
   107  H    0.085956
   108  H    0.099209
   109  H    0.093022
   110  H    0.087935
   111  H    0.088944
   112  H    0.110063
   113  H    0.106044
   114  H    0.085407
   115  H    0.070316
   116  H    0.060807
   117  H    0.104584
   118  H    0.074135
   119  H    0.076438
   120  H    0.069148
   121  H    0.065471
   122  H    0.114764
   123  H    0.071499
   124  H    0.105172
   125  H    0.093609
   126  H    0.096723
   127  H    0.053183
   128  H    0.108229
   129  H    0.086303
   130  H    0.073163
   131  H    0.088270
   132  H    0.110618
   133  H    0.092982
   134  H    0.101915
   135  H    0.087365
   136  H    0.099892
   137  H    0.089303
 Sum of Mulliken charges =   0.00000

 Dipole moment (field-independent basis, Debye):
    X=              2.8828    Y=              5.5387    Z=             -0.6668  Tot=              6.2795
 Quadrupole moment (field-independent basis, Debye-Ang):
   XX=           -339.3971   YY=           -395.1382   ZZ=           -403.2836
   XY=            -22.1984   XZ=              5.2431   YZ=             -5.6618

 Normal termination of Gaussian 09 at Thu Jun 27 13:39:48 2019.
