 Gaussian 09, Revision D.01,
 Gaussian 09:  ES64L-G09RevD.01 24-Apr-2013

 -------------------------------------
 # td=(NStates=1) CAM-B3LYP/6-31G(d,p)
 -------------------------------------

 --
 TD
 --
 Symbolic Z-matrix:
 Charge =  0 Multiplicity = 1

                         Standard orientation:
 ---------------------------------------------------------------------
 Center     Atomic      Atomic             Coordinates (Angstroms)
 Number     Number       Type             X           Y           Z
 ---------------------------------------------------------------------
      1         12           0       -7.148892    0.631517    0.143612
      2          6           0       -4.873101   -1.941914    0.485817
      3          6           0       -4.874354    2.853284    1.196684
      4          6           0       -9.469182    3.030826   -0.381313
      5          6           0       -9.649411   -1.818388   -0.854934
      6          7           0       -5.161835    0.435059    0.674477
      7          6           0       -4.284733   -0.761073    0.736495
      8          6           0       -2.939714   -0.441012    1.194201
      9          6           0       -3.025981    1.143915    1.617386
     10          6           0       -4.434263    1.529053    1.148690
     11          6           0       -2.828172    1.391523    3.187605
     12          6           0       -1.916891   -0.646778    0.112337
     13          6           0       -0.451373   -0.466255    0.591786
     14          6           0        0.577379   -0.827318   -0.494001
     15          8           0        0.272568   -1.203859   -1.616905
     16          8           0        1.838198   -0.745128   -0.072161
     17          7           0       -7.053657    2.629437    0.445626
     18          6           0       -6.110735    3.318532    0.930771
     19          6           0       -6.509723    4.840806    0.934302
     20          6           0       -7.722474    4.800386    0.406495
     21          6           0       -8.163727    3.412570    0.170532
     22          6           0       -5.693074    5.959683    1.515874
     23          6           0       -8.636347    6.047205    0.088113
     24          6           0       -8.430764    7.262156   -0.293283
     25          7           0       -9.202768    0.619501   -0.420362
     26          6           0       -9.904255    1.692780   -0.577904
     27          6           0      -11.318873    1.500987   -1.059084
     28          6           0      -11.301178    0.093300   -1.199852
     29          6           0      -10.052888   -0.473994   -0.795688
     30          6           0      -12.253309    2.541794   -1.315297
     31          6           0      -12.474069   -0.777207   -1.734320
     32          6           0      -12.244971   -1.165754   -3.210136
     33          7           0       -7.226439   -1.311502   -0.187487
     34          6           0       -8.302372   -2.188130   -0.614385
     35          6           0       -7.876921   -3.571244   -0.560281
     36          6           0       -6.523614   -3.620729   -0.128864
     37          6           0       -6.210922   -2.161649   -0.013093
     38          6           0       -8.691429   -4.790218   -0.831740
     39          6           0       -5.312856   -4.305235    0.210666
     40          8           0       -5.113586   -5.542975    0.053526
     41          6           0       -4.170354   -3.274041    0.606162
     42          6           0       -3.546451   -3.624655    1.892249
     43          8           0       -3.823062   -3.035332    2.883813
     44          8           0       -2.621482   -4.585840    1.781090
     45          6           0       -2.267281   -5.151131    3.047479
     46          6           0        2.776480   -0.785601   -1.109803
     47          6           0        4.198768   -0.477035   -0.465835
     48          6           0        5.154902    0.295516   -1.003531
     49          6           0        4.971175    1.220765   -2.145710
     50          6           0        6.547065    0.452612   -0.302177
     51          6           0        7.753656   -0.341904   -0.950796
     52          6           0        8.969159   -0.031550   -0.132887
     53          6           0       10.227459   -0.551234   -0.911390
     54          6           0       10.123368   -2.032068   -1.318000
     55          6           0       11.495324   -0.322102   -0.069695
     56          6           0       12.833221   -0.386130   -0.738293
     57          6           0       13.948237   -0.047365    0.155371
     58          6           0       15.353550   -0.119247   -0.624879
     59          6           0       15.733680   -1.532405   -1.159356
     60          6           0       16.474142    0.385607    0.379707
     61          6           0       17.813763    0.690730   -0.136208
     62          6           0       18.917445    1.277118    0.827041
     63          6           0       20.324526    1.221483    0.243528
     64          6           0       20.351852    2.179434   -0.978522
     65          6           0       21.293449    1.784835    1.349489
     66          1           0       -4.158148    3.837402    1.543786
     67          1           0      -10.000538    3.920204   -0.647127
     68          1           0      -10.388237   -2.634084   -1.052293
     69          1           0       -2.676294   -1.049080    2.151652
     70          1           0       -2.286210    1.698956    1.075484
     71          1           0       -1.823320    1.160653    3.453885
     72          1           0       -3.097589    2.327231    3.412312
     73          1           0       -3.426528    0.814714    3.801117
     74          1           0       -1.992490   -1.763218   -0.167573
     75          1           0       -2.161685   -0.039998   -0.908758
     76          1           0       -0.157666    0.646055    0.747711
     77          1           0       -0.210516   -0.892384    1.487365
     78          1           0       -5.105767    6.356915    0.694113
     79          1           0       -6.207689    6.771910    1.717787
     80          1           0       -5.130427    5.559356    2.423433
     81          1           0       -9.743028    5.750417   -0.223176
     82          1           0       -9.359610    7.990996   -0.608547
     83          1           0       -7.291995    7.582812   -0.315349
     84          1           0      -12.011004    2.965126   -2.436923
     85          1           0      -13.275831    1.840811   -1.068035
     86          1           0      -12.340014    3.409985   -0.492836
     87          1           0      -12.194856   -1.718576   -1.225114
     88          1           0      -13.465051   -0.427694   -1.563230
     89          1           0      -12.992919   -1.846844   -3.696944
     90          1           0      -12.299815   -0.303926   -3.875982
     91          1           0      -11.299038   -1.602722   -3.647540
     92          1           0       -8.991033   -4.859070   -1.798409
     93          1           0       -7.936267   -5.699344   -0.616598
     94          1           0       -9.556852   -4.839373   -0.214997
     95          1           0       -3.583887   -3.562031   -0.144714
     96          1           0       -1.541762   -4.520463    3.444399
     97          1           0       -3.259944   -5.358330    3.633904
     98          1           0       -1.822097   -6.229857    2.682133
     99          1           0        2.766512   -1.733936   -1.567943
    100          1           0        2.679624   -0.027144   -1.824366
    101          1           0        4.264118   -0.978609    0.391658
    102          1           0        3.969197    1.241941   -2.480815
    103          1           0        5.143584    2.270272   -2.068343
    104          1           0        5.673114    0.898291   -2.968100
    105          1           0        6.945343    1.614837   -0.260068
    106          1           0        6.390926   -0.054375    0.766319
    107          1           0        7.530117   -1.540357   -1.040896
    108          1           0        7.965181   -0.002846   -1.877734
    109          1           0        9.212705    1.109196    0.113880
    110          1           0        9.037488   -0.648085    0.756544
    111          1           0       10.329007   -0.104561   -1.797398
    112          1           0        9.349852   -2.179949   -2.126905
    113          1           0       10.983099   -2.310637   -1.814660
    114          1           0        9.943038   -2.892505   -0.485711
    115          1           0       11.344294    0.788807    0.479691
    116          1           0       11.557413   -0.839498    0.879155
    117          1           0       12.771184   -1.510391   -0.927216
    118          1           0       12.919114    0.305942   -1.347344
    119          1           0       13.902144    0.911208    0.469791
    120          1           0       13.798758   -0.465491    1.171192
    121          1           0       15.349533    0.642046   -1.411876
    122          1           0       15.425820   -2.114758   -0.232521
    123          1           0       14.777761   -1.857945   -1.903248
    124          1           0       16.775307   -1.617988   -1.633674
    125          1           0       16.143555    1.301820    0.842788
    126          1           0       16.709277   -0.211477    1.217743
    127          1           0       18.159833   -0.295376   -0.574190
    128          1           0       17.584610    1.390975   -0.931080
    129          1           0       18.496303    2.458356    0.997202
    130          1           0       18.812821    0.846963    1.608854
    131          1           0       20.676297    0.234224    0.030099
    132          1           0       20.435130    3.298304   -0.405863
    133          1           0       21.386716    2.022886   -1.705243
    134          1           0       19.488153    2.063801   -1.641967
    135          1           0       21.233767    1.224465    2.154637
    136          1           0       22.469915    1.626583    0.948918
    137          1           0       21.028971    2.806652    1.584599
 ---------------------------------------------------------------------

 SCF Done:  E(RCAM-B3LYP) =  -2932.54772174     A.U. after   17 cycles

 Excitation energies and oscillator strengths:

 Excited State   1:      Singlet-A      2.1200 eV  584.84 nm  f=0.2418  <S**2>=0.000
     240 -> 243       -0.22383
     241 -> 242        0.65732
 This state for optimization and/or second-order correction.
 Total Energy, E(TD-HF/TD-KS) =  -2932.46981442
 Copying the excited state density for this state as the 1-particle RhoCI density.

 The electronic state is 1-A.
 Alpha  occ. eigenvalues --  -46.84221 -19.26899 -19.26016 -19.20555 -19.20449
 Alpha  occ. eigenvalues --  -19.18761 -14.41695 -14.40198 -14.39998 -14.39656
 Alpha  occ. eigenvalues --  -10.39302 -10.38436 -10.34592 -10.32384 -10.32083
 Alpha  occ. eigenvalues --  -10.31130 -10.30875 -10.30286 -10.30028 -10.29519
 Alpha  occ. eigenvalues --  -10.29428 -10.29154 -10.29046 -10.28983 -10.28745
 Alpha  occ. eigenvalues --  -10.28385 -10.28379 -10.28348 -10.28347 -10.28290
 Alpha  occ. eigenvalues --  -10.28242 -10.28096 -10.28049 -10.28032 -10.27861
 Alpha  occ. eigenvalues --  -10.27582 -10.27329 -10.27273 -10.27040 -10.26907
 Alpha  occ. eigenvalues --  -10.26901 -10.26865 -10.26661 -10.26583 -10.26507
 Alpha  occ. eigenvalues --  -10.26497 -10.26192 -10.25984 -10.25950 -10.25765
 Alpha  occ. eigenvalues --  -10.25507 -10.25299 -10.25283 -10.25278 -10.25236
 Alpha  occ. eigenvalues --  -10.25178 -10.25143 -10.25089 -10.24964 -10.24618
 Alpha  occ. eigenvalues --  -10.24344 -10.24328 -10.24185 -10.23478 -10.23278
 Alpha  occ. eigenvalues --   -3.13383  -1.88078  -1.87637  -1.87564  -1.19737
 Alpha  occ. eigenvalues --   -1.19154  -1.10398  -1.09075  -1.07409  -1.06114
 Alpha  occ. eigenvalues --   -1.03365  -1.02218  -1.00428  -0.92155  -0.91617
 Alpha  occ. eigenvalues --   -0.90378  -0.89904  -0.89726  -0.89276  -0.88784
 Alpha  occ. eigenvalues --   -0.88431  -0.87889  -0.87107  -0.87004  -0.86058
 Alpha  occ. eigenvalues --   -0.85307  -0.84886  -0.83844  -0.83543  -0.82929
 Alpha  occ. eigenvalues --   -0.81920  -0.81030  -0.80836  -0.80314  -0.79099
 Alpha  occ. eigenvalues --   -0.78625  -0.77065  -0.76405  -0.76056  -0.75176
 Alpha  occ. eigenvalues --   -0.74961  -0.74550  -0.74264  -0.73476  -0.72459
 Alpha  occ. eigenvalues --   -0.71594  -0.70206  -0.70004  -0.68968  -0.67490
 Alpha  occ. eigenvalues --   -0.66169  -0.65830  -0.65376  -0.64988  -0.64628
 Alpha  occ. eigenvalues --   -0.64237  -0.63996  -0.63385  -0.63113  -0.62847
 Alpha  occ. eigenvalues --   -0.61659  -0.60694  -0.59934  -0.59659  -0.59046
 Alpha  occ. eigenvalues --   -0.58941  -0.58172  -0.57912  -0.57647  -0.57147
 Alpha  occ. eigenvalues --   -0.56347  -0.55968  -0.55807  -0.54696  -0.54634
 Alpha  occ. eigenvalues --   -0.54542  -0.54504  -0.53960  -0.53632  -0.53265
 Alpha  occ. eigenvalues --   -0.52375  -0.52316  -0.52259  -0.51966  -0.51754
 Alpha  occ. eigenvalues --   -0.51630  -0.51394  -0.51100  -0.50959  -0.50850
 Alpha  occ. eigenvalues --   -0.50620  -0.50513  -0.50246  -0.49910  -0.49654
 Alpha  occ. eigenvalues --   -0.49431  -0.49223  -0.48892  -0.48856  -0.48143
 Alpha  occ. eigenvalues --   -0.48002  -0.47854  -0.47536  -0.47356  -0.47186
 Alpha  occ. eigenvalues --   -0.46896  -0.46434  -0.46274  -0.46083  -0.45997
 Alpha  occ. eigenvalues --   -0.45901  -0.45577  -0.45371  -0.45341  -0.45253
 Alpha  occ. eigenvalues --   -0.44911  -0.44624  -0.44501  -0.44304  -0.44060
 Alpha  occ. eigenvalues --   -0.43994  -0.43781  -0.43563  -0.43416  -0.42989
 Alpha  occ. eigenvalues --   -0.42956  -0.42674  -0.42431  -0.42215  -0.41820
 Alpha  occ. eigenvalues --   -0.41629  -0.41519  -0.41404  -0.41272  -0.40980
 Alpha  occ. eigenvalues --   -0.40829  -0.40689  -0.40422  -0.40131  -0.40060
 Alpha  occ. eigenvalues --   -0.39625  -0.39577  -0.39562  -0.39312  -0.38674
 Alpha  occ. eigenvalues --   -0.38427  -0.38325  -0.38255  -0.37881  -0.37800
 Alpha  occ. eigenvalues --   -0.37621  -0.37562  -0.37272  -0.36812  -0.36635
 Alpha  occ. eigenvalues --   -0.36545  -0.36416  -0.36180  -0.35998  -0.35893
 Alpha  occ. eigenvalues --   -0.35393  -0.35322  -0.34326  -0.33599  -0.33585
 Alpha  occ. eigenvalues --   -0.33449  -0.33228  -0.31899  -0.31165  -0.29663
 Alpha  occ. eigenvalues --   -0.29534  -0.29302  -0.28928  -0.27718  -0.23617
 Alpha  occ. eigenvalues --   -0.21070
 Alpha virt. eigenvalues --   -0.05902  -0.02610   0.01462   0.04675   0.06052
 Alpha virt. eigenvalues --    0.06210   0.06477   0.06563   0.06843   0.07140
 Alpha virt. eigenvalues --    0.07988   0.10367   0.10552   0.11402   0.11880

 Mulliken charges:
               1
     1  Mg   0.816054
     2  C    0.061888
     3  C   -0.218227
     4  C   -0.168702
     5  C   -0.166747
     6  N   -0.644681
     7  C    0.294073
     8  C   -0.175948
     9  C   -0.145042
    10  C    0.343552
    11  C   -0.319701
    12  C   -0.167010
    13  C   -0.260137
    14  C    0.599345
    15  O   -0.479319
    16  O   -0.457369
    17  N   -0.699621
    18  C    0.347649
    19  C   -0.005673
    20  C   -0.007982
    21  C    0.284051
    22  C   -0.361365
    23  C   -0.033473
    24  C   -0.258306
    25  N   -0.677470
    26  C    0.334744
    27  C    0.068322
    28  C   -0.016063
    29  C    0.270453
    30  C   -0.374138
    31  C   -0.224807
    32  C   -0.327984
    33  N   -0.695952
    34  C    0.254214
    35  C   -0.024521
    36  C    0.091612
    37  C    0.257489
    38  C   -0.381105
    39  C    0.285903
    40  O   -0.498061
    41  C   -0.287792
    42  C    0.626071
    43  O   -0.465300
    44  O   -0.455425
    45  C   -0.080391
    46  C    0.023337
    47  C   -0.155453
    48  C    0.132970
    49  C   -0.373496
    50  C   -0.222030
    51  C   -0.166420
    52  C   -0.156878
    53  C   -0.055988
    54  C   -0.320307
    55  C   -0.199969
    56  C   -0.115613
    57  C   -0.207645
    58  C   -0.063385
    59  C   -0.298968
    60  C   -0.183797
    61  C   -0.193049
    62  C   -0.118976
    63  C   -0.066849
    64  C   -0.267048
    65  C   -0.293696
    66  H    0.070791
    67  H    0.086245
    68  H    0.118309
    69  H    0.133514
    70  H    0.114725
    71  H    0.109565
    72  H    0.118071
    73  H    0.132435
    74  H    0.118488
    75  H    0.114593
    76  H    0.118965
    77  H    0.141505
    78  H    0.130788
    79  H    0.135637
    80  H    0.122037
    81  H    0.069139
    82  H    0.111560
    83  H    0.084121
    84  H    0.120393
    85  H    0.092361
    86  H    0.115977
    87  H    0.104323
    88  H    0.113397
    89  H    0.095949
    90  H    0.106595
    91  H    0.110009
    92  H    0.135992
    93  H    0.136759
    94  H    0.125548
    95  H    0.170874
    96  H    0.136782
    97  H    0.135226
    98  H    0.114457
    99  H    0.136143
   100  H    0.113246
   101  H    0.089769
   102  H    0.110734
   103  H    0.125322
   104  H    0.112316
   105  H    0.080448
   106  H    0.087872
   107  H    0.092190
   108  H    0.106211
   109  H    0.083259
   110  H    0.102387
   111  H    0.095578
   112  H    0.093879
   113  H    0.111583
   114  H    0.079943
   115  H    0.027019
   116  H    0.093136
   117  H    0.100222
   118  H    0.094016
   119  H    0.105595
   120  H    0.081344
   121  H    0.085305
   122  H    0.110624
   123  H    0.073790
   124  H    0.112390
   125  H    0.078690
   126  H    0.086343
   127  H    0.072854
   128  H    0.088907
   129  H    0.052099
   130  H    0.086585
   131  H    0.098914
   132  H    0.073474
   133  H    0.061509
   134  H    0.114812
   135  H    0.112654
   136  H    0.065044
   137  H    0.104819
 Sum of Mulliken charges =   0.00000

 Dipole moment (field-independent basis, Debye):
    X=              1.2071    Y=              5.7357    Z=              1.0315  Tot=              5.9514
 Quadrupole moment (field-independent basis, Debye-Ang):
   XX=           -365.5442   YY=           -395.4364   ZZ=           -395.6182
   XY=            -32.5346   XZ=             12.4646   YZ=             -6.0748

 Normal termination of Gaussian 09 at Sat Jun 29 15:10:16 2019.
