 Gaussian 09, Revision D.01,
 Gaussian 09:  ES64L-G09RevD.01 24-Apr-2013

 -------------------------------------
 # td=(NStates=1) CAM-B3LYP/6-31G(d,p)
 -------------------------------------

 --
 TD
 --
 Symbolic Z-matrix:
 Charge =  0 Multiplicity = 1

                         Standard orientation:
 ---------------------------------------------------------------------
 Center     Atomic      Atomic             Coordinates (Angstroms)
 Number     Number       Type             X           Y           Z
 ---------------------------------------------------------------------
      1         12           0       -7.146665    0.672841    0.016444
      2          6           0       -4.791744   -1.966805    0.438757
      3          6           0       -4.867091    2.803754    1.221557
      4          6           0       -9.526943    3.103630   -0.252178
      5          6           0       -9.432594   -1.735149   -0.938880
      6          7           0       -5.152508    0.410306    0.661045
      7          6           0       -4.320133   -0.683417    0.737250
      8          6           0       -3.024483   -0.337278    1.206709
      9          6           0       -3.056756    1.063688    1.742488
     10          6           0       -4.421471    1.532169    1.155773
     11          6           0       -2.980500    1.263751    3.133766
     12          6           0       -1.959387   -0.518822    0.077242
     13          6           0       -0.515168   -0.431457    0.458776
     14          6           0        0.473882   -0.617085   -0.617431
     15          8           0        0.232173   -1.014121   -1.726271
     16          8           0        1.800533   -0.461879   -0.155076
     17          7           0       -7.168711    2.556022    0.410958
     18          6           0       -6.132454    3.261631    0.817873
     19          6           0       -6.453605    4.730633    0.812584
     20          6           0       -7.797901    4.770508    0.512764
     21          6           0       -8.212573    3.419431    0.189257
     22          6           0       -5.538450    5.744920    1.299424
     23          6           0       -8.694591    5.925051    0.198274
     24          6           0       -8.273074    7.188233   -0.102416
     25          7           0       -9.121441    0.653392   -0.529124
     26          6           0       -9.883448    1.765592   -0.462326
     27          6           0      -11.167609    1.401347   -1.134395
     28          6           0      -11.185100    0.028036   -1.196563
     29          6           0       -9.861224   -0.434993   -0.891926
     30          6           0      -12.328691    2.425235   -1.167260
     31          6           0      -12.384458   -0.838515   -1.684779
     32          6           0      -12.277706   -1.046603   -3.254772
     33          7           0       -7.150782   -1.357843   -0.186908
     34          6           0       -8.230516   -2.207222   -0.580941
     35          6           0       -7.759301   -3.529467   -0.563014
     36          6           0       -6.480101   -3.516403   -0.175047
     37          6           0       -6.099662   -2.186410    0.011977
     38          6           0       -8.547109   -4.881721   -0.826848
     39          6           0       -5.231602   -4.300289    0.182369
     40          8           0       -5.050074   -5.551501    0.121540
     41          6           0       -4.145746   -3.278979    0.452770
     42          6           0       -3.497822   -3.657812    1.777017
     43          8           0       -3.695169   -3.020163    2.847109
     44          8           0       -2.725310   -4.686754    1.731843
     45          6           0       -2.085235   -5.161203    2.956638
     46          6           0        2.791858   -0.747894   -1.118585
     47          6           0        4.109516   -0.506567   -0.433710
     48          6           0        5.165972    0.343446   -0.874380
     49          6           0        5.022362    1.385635   -1.961918
     50          6           0        6.474294    0.400104   -0.005348
     51          6           0        7.596811    0.050451   -0.782580
     52          6           0        8.943970   -0.201202    0.031936
     53          6           0       10.151662   -0.497955   -0.845722
     54          6           0       10.069595   -1.954246   -1.409076
     55          6           0       11.431836   -0.390849    0.033178
     56          6           0       12.806266   -0.471008   -0.734004
     57          6           0       13.874813   -0.057900    0.212309
     58          6           0       15.274157   -0.185303   -0.459438
     59          6           0       15.629699   -1.594250   -0.910390
     60          6           0       16.458750    0.334755    0.544781
     61          6           0       17.781030    0.383417   -0.213844
     62          6           0       18.770366    1.231519    0.594760
     63          6           0       20.268425    1.373346    0.073968
     64          6           0       20.425924    2.186964   -1.157705
     65          6           0       21.213131    2.011748    1.215465
     66          1           0       -4.264178    3.380881    1.551118
     67          1           0      -10.123766    3.965393   -0.433982
     68          1           0      -10.371226   -2.375293   -1.324707
     69          1           0       -2.727423   -1.132162    1.944618
     70          1           0       -2.226363    1.693635    1.183107
     71          1           0       -1.997878    1.119003    3.448956
     72          1           0       -3.231350    2.256801    3.510120
     73          1           0       -3.586681    0.639681    3.864420
     74          1           0       -2.174819   -1.517256   -0.340744
     75          1           0       -2.067425    0.017090   -0.664121
     76          1           0       -0.256330    0.467371    0.876252
     77          1           0       -0.193599   -1.274211    1.267371
     78          1           0       -4.907014    5.987943    0.594471
     79          1           0       -6.186318    6.556853    1.596912
     80          1           0       -4.998309    5.499032    2.009762
     81          1           0       -9.818248    5.776271    0.410691
     82          1           0       -9.040932    7.897285   -0.255053
     83          1           0       -7.214891    7.629974   -0.427816
     84          1           0      -12.267345    2.998277   -2.239334
     85          1           0      -13.238542    1.840939   -1.328974
     86          1           0      -12.141550    3.080927   -0.210644
     87          1           0      -12.526935   -1.722572   -1.044108
     88          1           0      -13.300867   -0.321176   -1.503460
     89          1           0      -13.006980   -1.777308   -3.495997
     90          1           0      -12.724226   -0.189855   -3.798444
     91          1           0      -11.208719   -1.391593   -3.486804
     92          1           0       -9.076085   -5.028657   -1.904483
     93          1           0       -7.922324   -5.774923   -0.778751
     94          1           0       -9.508427   -4.985649   -0.131150
     95          1           0       -3.331086   -3.472966   -0.353097
     96          1           0       -1.535869   -4.156984    3.493594
     97          1           0       -2.865174   -5.442585    3.530482
     98          1           0       -1.452967   -5.939890    2.775084
     99          1           0        2.727412   -1.779312   -1.318454
    100          1           0        2.562276   -0.076658   -1.958669
    101          1           0        4.344301   -1.192796    0.478773
    102          1           0        3.929067    1.028409   -2.360882
    103          1           0        5.047620    2.359600   -1.488919
    104          1           0        5.768606    1.052405   -2.813522
    105          1           0        6.555916    1.241414    0.253331
    106          1           0        6.285713   -0.190474    0.778436
    107          1           0        7.329796   -1.011145   -1.409512
    108          1           0        7.821648    0.727246   -1.673411
    109          1           0        9.214243    0.666597    0.570215
    110          1           0        8.746372   -0.791488    1.047079
    111          1           0       10.374353    0.145278   -1.671418
    112          1           0        9.087056   -2.042138   -2.056216
    113          1           0       10.879337   -2.119304   -2.146459
    114          1           0        9.940540   -2.532356   -0.605154
    115          1           0       11.406000    0.632169    0.640166
    116          1           0       11.347999   -0.982205    0.851005
    117          1           0       12.830489   -1.405927   -1.125793
    118          1           0       12.804840    0.323599   -1.643051
    119          1           0       13.661983    1.113044    0.451288
    120          1           0       13.800416   -0.787415    1.180228
    121          1           0       15.176819    0.383089   -1.397955
    122          1           0       15.688322   -2.345863   -0.245987
    123          1           0       15.028684   -1.923406   -1.681966
    124          1           0       16.751769   -1.665375   -1.164260
    125          1           0       16.149715    1.352464    0.898335
    126          1           0       16.480461   -0.300989    1.303947
    127          1           0       18.137859   -0.737587   -0.331876
    128          1           0       17.348989    0.822566   -1.131524
    129          1           0       18.397063    2.115192    0.775369
    130          1           0       19.048897    0.597647    1.651190
    131          1           0       20.538250    0.300380   -0.291196
    132          1           0       19.911080    3.010790   -0.901117
    133          1           0       21.669474    2.348467   -1.269487
    134          1           0       20.114082    1.612397   -2.090365
    135          1           0       21.188536    1.714572    2.097290
    136          1           0       22.288265    1.839870    0.941349
    137          1           0       21.106035    3.007920    1.276517
 ---------------------------------------------------------------------

 SCF Done:  E(RCAM-B3LYP) =  -2932.52482383     A.U. after   16 cycles

 Excitation energies and oscillator strengths:

 Excited State   1:      Singlet-A      2.0299 eV  610.80 nm  f=0.2798  <S**2>=0.000
     240 -> 243        0.23082
     241 -> 242        0.66283
 This state for optimization and/or second-order correction.
 Total Energy, E(TD-HF/TD-KS) =  -2932.45022739
 Copying the excited state density for this state as the 1-particle RhoCI density.

 The electronic state is 1-A.
 Alpha  occ. eigenvalues --  -46.82625 -19.27309 -19.24882 -19.21595 -19.20300
 Alpha  occ. eigenvalues --  -19.19623 -14.41287 -14.39779 -14.38725 -14.38427
 Alpha  occ. eigenvalues --  -10.39321 -10.39267 -10.35688 -10.32216 -10.30904
 Alpha  occ. eigenvalues --  -10.30465 -10.30348 -10.30041 -10.29230 -10.29169
 Alpha  occ. eigenvalues --  -10.28817 -10.28503 -10.28194 -10.28073 -10.28012
 Alpha  occ. eigenvalues --  -10.27964 -10.27882 -10.27797 -10.27791 -10.27697
 Alpha  occ. eigenvalues --  -10.27630 -10.27597 -10.27538 -10.27459 -10.27350
 Alpha  occ. eigenvalues --  -10.26962 -10.26922 -10.26821 -10.26758 -10.26679
 Alpha  occ. eigenvalues --  -10.26592 -10.26452 -10.26435 -10.26042 -10.25914
 Alpha  occ. eigenvalues --  -10.25910 -10.25745 -10.25653 -10.25650 -10.25477
 Alpha  occ. eigenvalues --  -10.25458 -10.25353 -10.25350 -10.25219 -10.24770
 Alpha  occ. eigenvalues --  -10.24659 -10.24645 -10.24584 -10.24121 -10.24101
 Alpha  occ. eigenvalues --  -10.23683 -10.22901 -10.22833 -10.22363 -10.22300
 Alpha  occ. eigenvalues --   -3.12010  -1.86696  -1.86242  -1.86221  -1.19613
 Alpha  occ. eigenvalues --   -1.17355  -1.09608  -1.08390  -1.06718  -1.04900
 Alpha  occ. eigenvalues --   -1.03674  -1.02906  -1.02095  -0.93422  -0.91528
 Alpha  occ. eigenvalues --   -0.91284  -0.90180  -0.89777  -0.89474  -0.88977
 Alpha  occ. eigenvalues --   -0.88575  -0.87700  -0.87433  -0.86812  -0.86220
 Alpha  occ. eigenvalues --   -0.85467  -0.84933  -0.84198  -0.83988  -0.82812
 Alpha  occ. eigenvalues --   -0.82333  -0.81628  -0.80919  -0.79918  -0.79294
 Alpha  occ. eigenvalues --   -0.78079  -0.77790  -0.77065  -0.76144  -0.75883
 Alpha  occ. eigenvalues --   -0.75185  -0.74451  -0.74317  -0.73943  -0.72647
 Alpha  occ. eigenvalues --   -0.71643  -0.70836  -0.69757  -0.69006  -0.68327
 Alpha  occ. eigenvalues --   -0.67553  -0.66215  -0.65935  -0.65021  -0.64737
 Alpha  occ. eigenvalues --   -0.64116  -0.63993  -0.62769  -0.62716  -0.62499
 Alpha  occ. eigenvalues --   -0.62057  -0.60552  -0.60353  -0.59693  -0.59279
 Alpha  occ. eigenvalues --   -0.58825  -0.58282  -0.57708  -0.57154  -0.57005
 Alpha  occ. eigenvalues --   -0.56707  -0.56295  -0.55327  -0.55162  -0.54962
 Alpha  occ. eigenvalues --   -0.54675  -0.54599  -0.54303  -0.53455  -0.53424
 Alpha  occ. eigenvalues --   -0.53290  -0.53176  -0.52839  -0.52274  -0.52176
 Alpha  occ. eigenvalues --   -0.51976  -0.51675  -0.51250  -0.51102  -0.50782
 Alpha  occ. eigenvalues --   -0.50335  -0.50120  -0.49976  -0.49783  -0.49699
 Alpha  occ. eigenvalues --   -0.49412  -0.49289  -0.49178  -0.49054  -0.48577
 Alpha  occ. eigenvalues --   -0.48307  -0.47902  -0.47804  -0.47673  -0.47482
 Alpha  occ. eigenvalues --   -0.47296  -0.46964  -0.46841  -0.46667  -0.46512
 Alpha  occ. eigenvalues --   -0.46372  -0.45894  -0.45659  -0.45584  -0.45512
 Alpha  occ. eigenvalues --   -0.45252  -0.44806  -0.44686  -0.44413  -0.44208
 Alpha  occ. eigenvalues --   -0.43825  -0.43636  -0.43556  -0.43182  -0.43050
 Alpha  occ. eigenvalues --   -0.42659  -0.42610  -0.41994  -0.41958  -0.41792
 Alpha  occ. eigenvalues --   -0.41772  -0.41593  -0.41510  -0.41418  -0.41239
 Alpha  occ. eigenvalues --   -0.41118  -0.41000  -0.40656  -0.40503  -0.40240
 Alpha  occ. eigenvalues --   -0.40088  -0.39741  -0.39690  -0.39607  -0.39143
 Alpha  occ. eigenvalues --   -0.38981  -0.38405  -0.38304  -0.38247  -0.37915
 Alpha  occ. eigenvalues --   -0.37578  -0.37463  -0.36996  -0.36629  -0.36612
 Alpha  occ. eigenvalues --   -0.35912  -0.35771  -0.35646  -0.35494  -0.35415
 Alpha  occ. eigenvalues --   -0.35374  -0.34974  -0.34298  -0.33907  -0.32923
 Alpha  occ. eigenvalues --   -0.32559  -0.32413  -0.32074  -0.31227  -0.30051
 Alpha  occ. eigenvalues --   -0.29305  -0.28774  -0.28231  -0.27358  -0.23399
 Alpha  occ. eigenvalues --   -0.20894
 Alpha virt. eigenvalues --   -0.06334  -0.02636   0.01672   0.03702   0.05581
 Alpha virt. eigenvalues --    0.05705   0.05961   0.06121   0.07193   0.07679
 Alpha virt. eigenvalues --    0.08324   0.10440   0.11510   0.11670   0.11779

 Mulliken charges:
               1
     1  Mg   0.811887
     2  C    0.114461
     3  C   -0.105156
     4  C   -0.140020
     5  C   -0.175553
     6  N   -0.659391
     7  C    0.365606
     8  C   -0.186508
     9  C   -0.114449
    10  C    0.300030
    11  C   -0.312321
    12  C   -0.160156
    13  C   -0.254114
    14  C    0.597246
    15  O   -0.457728
    16  O   -0.506345
    17  N   -0.738587
    18  C    0.328562
    19  C   -0.027665
    20  C    0.014991
    21  C    0.283927
    22  C   -0.343688
    23  C   -0.101076
    24  C   -0.245910
    25  N   -0.694007
    26  C    0.267038
    27  C   -0.002925
    28  C   -0.011919
    29  C    0.334378
    30  C   -0.354372
    31  C   -0.251343
    32  C   -0.307669
    33  N   -0.735394
    34  C    0.285106
    35  C   -0.012771
    36  C    0.051326
    37  C    0.274414
    38  C   -0.367004
    39  C    0.385701
    40  O   -0.486926
    41  C   -0.346850
    42  C    0.614302
    43  O   -0.518080
    44  O   -0.422711
    45  C   -0.069338
    46  C    0.030666
    47  C   -0.137123
    48  C    0.049690
    49  C   -0.337844
    50  C   -0.143963
    51  C   -0.174377
    52  C   -0.184498
    53  C   -0.062936
    54  C   -0.295949
    55  C   -0.184657
    56  C   -0.168401
    57  C   -0.150675
    58  C   -0.076161
    59  C   -0.319748
    60  C   -0.171542
    61  C   -0.175203
    62  C   -0.150045
    63  C   -0.067770
    64  C   -0.273975
    65  C   -0.313194
    66  H    0.009532
    67  H    0.104191
    68  H    0.104323
    69  H    0.134337
    70  H    0.093000
    71  H    0.114255
    72  H    0.108069
    73  H    0.127511
    74  H    0.108663
    75  H    0.116246
    76  H    0.138202
    77  H    0.124754
    78  H    0.128121
    79  H    0.121791
    80  H    0.124337
    81  H    0.100787
    82  H    0.103542
    83  H    0.108503
    84  H    0.097160
    85  H    0.115738
    86  H    0.117636
    87  H    0.106535
    88  H    0.102800
    89  H    0.108825
    90  H    0.112429
    91  H    0.114322
    92  H    0.095703
    93  H    0.151620
    94  H    0.108625
    95  H    0.170158
    96  H    0.109810
    97  H    0.154187
    98  H    0.139955
    99  H    0.125767
   100  H    0.119742
   101  H    0.084308
   102  H    0.086039
   103  H    0.134015
   104  H    0.119474
   105  H    0.101109
   106  H    0.099738
   107  H    0.056404
   108  H    0.089554
   109  H    0.097730
   110  H    0.074866
   111  H    0.091178
   112  H    0.080730
   113  H    0.098294
   114  H    0.114388
   115  H    0.056114
   116  H    0.100113
   117  H    0.114725
   118  H    0.066372
   119  H    0.076933
   120  H    0.070001
   121  H    0.081722
   122  H    0.110066
   123  H    0.105720
   124  H    0.084247
   125  H    0.081792
   126  H    0.105279
   127  H    0.084565
   128  H    0.101584
   129  H    0.094873
   130  H    0.059694
   131  H    0.067260
   132  H    0.107766
   133  H    0.067557
   134  H    0.098924
   135  H    0.105569
   136  H    0.090187
   137  H    0.108643
 Sum of Mulliken charges =   0.00000

 Dipole moment (field-independent basis, Debye):
    X=              1.7036    Y=              4.5827    Z=              1.3665  Tot=              5.0765
 Quadrupole moment (field-independent basis, Debye-Ang):
   XX=           -364.9616   YY=           -386.8606   ZZ=           -397.4827
   XY=            -23.7008   XZ=             17.4619   YZ=             -4.0476

 Normal termination of Gaussian 09 at Thu Jun 27 20:02:26 2019.
