 Gaussian 09, Revision D.01,
 Gaussian 09:  ES64L-G09RevD.01 24-Apr-2013

 -------------------------------------
 # td=(NStates=1) CAM-B3LYP/6-31G(d,p)
 -------------------------------------

 --
 TD
 --
 Symbolic Z-matrix:
 Charge =  0 Multiplicity = 1

                         Standard orientation:
 ---------------------------------------------------------------------
 Center     Atomic      Atomic             Coordinates (Angstroms)
 Number     Number       Type             X           Y           Z
 ---------------------------------------------------------------------
      1         12           0       -7.146651    0.567639    0.177381
      2          6           0       -4.738836   -1.964826    0.491673
      3          6           0       -4.878757    2.844904    1.199100
      4          6           0       -9.504311    2.977400   -0.347234
      5          6           0       -9.509057   -1.829640   -0.860977
      6          7           0       -5.119351    0.450393    0.830583
      7          6           0       -4.315819   -0.707703    0.821176
      8          6           0       -3.026471   -0.319305    1.194151
      9          6           0       -3.037643    1.142495    1.592930
     10          6           0       -4.429139    1.526952    1.174759
     11          6           0       -2.865096    1.475804    3.104709
     12          6           0       -2.004119   -0.525871    0.096483
     13          6           0       -0.493207   -0.251805    0.565582
     14          6           0        0.476120   -0.495915   -0.596322
     15          8           0        0.253483   -1.026850   -1.685236
     16          8           0        1.761036   -0.339566   -0.147865
     17          7           0       -7.120116    2.552759    0.296534
     18          6           0       -6.114597    3.365796    0.876427
     19          6           0       -6.585312    4.717924    0.938200
     20          6           0       -7.867410    4.707216    0.430604
     21          6           0       -8.303842    3.363491    0.181456
     22          6           0       -5.730587    5.879520    1.505593
     23          6           0       -8.683047    5.975067    0.237840
     24          6           0       -8.281607    7.183540   -0.121110
     25          7           0       -9.189628    0.532535   -0.503542
     26          6           0       -9.860042    1.654535   -0.781694
     27          6           0      -11.281234    1.391509   -1.142365
     28          6           0      -11.318346   -0.048748   -1.208397
     29          6           0       -9.970004   -0.512523   -0.848718
     30          6           0      -12.356951    2.397641   -1.362538
     31          6           0      -12.342736   -0.919057   -1.691276
     32          6           0      -12.189736   -1.239632   -3.206974
     33          7           0       -7.220397   -1.428044   -0.166463
     34          6           0       -8.213010   -2.265385   -0.470413
     35          6           0       -7.695287   -3.650943   -0.464014
     36          6           0       -6.392584   -3.508646   -0.175602
     37          6           0       -6.102043   -2.192060    0.001317
     38          6           0       -8.509090   -4.882003   -0.776407
     39          6           0       -5.198665   -4.279811    0.240407
     40          8           0       -4.933908   -5.519359    0.104417
     41          6           0       -4.064687   -3.281625    0.585966
     42          6           0       -3.323417   -3.686861    1.857126
     43          8           0       -3.547080   -3.118201    2.948157
     44          8           0       -2.620887   -4.746248    1.662370
     45          6           0       -2.092352   -5.225992    3.022134
     46          6           0        2.828439   -0.391817   -1.159161
     47          6           0        4.178416   -0.360898   -0.598509
     48          6           0        5.115690    0.510801   -1.045508
     49          6           0        5.057585    1.261988   -2.319597
     50          6           0        6.424100    0.609201   -0.272711
     51          6           0        7.580900   -0.135249   -0.950691
     52          6           0        8.884014    0.003352   -0.135170
     53          6           0       10.182541   -0.458069   -0.902581
     54          6           0       10.165914   -2.038085   -1.283839
     55          6           0       11.406860   -0.236333   -0.083149
     56          6           0       12.697867   -0.606767   -0.722565
     57          6           0       13.965972   -0.114535    0.146436
     58          6           0       15.363348   -0.314777   -0.498592
     59          6           0       15.697831   -1.765743   -0.706623
     60          6           0       16.364254    0.394699    0.287155
     61          6           0       17.751577    0.418862   -0.269174
     62          6           0       18.731589    1.205531    0.571845
     63          6           0       20.162117    1.340557    0.276323
     64          6           0       20.370230    2.192697   -0.972869
     65          6           0       21.080619    1.860113    1.418643
     66          1           0       -3.995433    3.450132    1.509868
     67          1           0      -10.284217    3.796925   -0.322052
     68          1           0      -10.227722   -2.677559   -1.195804
     69          1           0       -2.710749   -0.663831    2.175312
     70          1           0       -2.317436    1.766624    0.984052
     71          1           0       -1.951955    1.076525    3.437921
     72          1           0       -2.920976    2.543656    3.446095
     73          1           0       -3.453244    0.912708    3.933431
     74          1           0       -2.117474   -1.635523   -0.336806
     75          1           0       -2.279699    0.265014   -0.677397
     76          1           0       -0.293601    0.748274    0.846636
     77          1           0       -0.240418   -1.105064    1.305033
     78          1           0       -5.371296    6.613912    0.656621
     79          1           0       -6.433131    6.506195    2.163883
     80          1           0       -4.648670    5.602661    2.039134
     81          1           0       -9.822708    5.659152    0.276540
     82          1           0       -8.928200    8.064533   -0.294096
     83          1           0       -7.344353    7.493849   -0.382776
     84          1           0      -12.149165    2.879003   -2.427816
     85          1           0      -13.354911    1.847647   -1.156542
     86          1           0      -12.327678    3.347510   -0.516765
     87          1           0      -12.216531   -1.842332   -0.901031
     88          1           0      -13.312378   -0.374516   -1.497017
     89          1           0      -13.111462   -1.977011   -3.571464
     90          1           0      -12.266281   -0.422963   -3.968080
     91          1           0      -11.246175   -1.817327   -3.381027
     92          1           0       -8.927901   -4.599184   -1.783201
     93          1           0       -7.791397   -5.841595   -0.710130
     94          1           0       -9.154437   -4.873683   -0.115336
     95          1           0       -3.184575   -3.209052   -0.221815
     96          1           0       -1.305762   -4.522281    3.338301
     97          1           0       -2.915932   -5.312538    3.782916
     98          1           0       -1.522668   -6.127801    2.620375
     99          1           0        2.496723   -1.448351   -1.685821
    100          1           0        2.581542    0.305004   -2.066585
    101          1           0        4.316689   -0.679584    0.349103
    102          1           0        4.006580    1.250473   -2.700422
    103          1           0        5.339284    2.189052   -2.009442
    104          1           0        5.649161    0.836921   -3.141030
    105          1           0        6.833902    1.770729   -0.016073
    106          1           0        5.966109    0.080473    0.677997
    107          1           0        7.368302   -1.075834   -1.190817
    108          1           0        7.694777    0.325146   -1.882123
    109          1           0        9.178066    0.953406    0.119418
    110          1           0        8.676984   -0.561714    0.691047
    111          1           0       10.350281    0.078002   -1.737053
    112          1           0        9.400300   -2.392501   -2.027645
    113          1           0       11.093114   -2.108033   -1.705543
    114          1           0        9.980219   -2.722789   -0.305011
    115          1           0       11.525373    0.875772    0.175124
    116          1           0       11.400036   -0.683906    0.807272
    117          1           0       12.790125   -1.658498   -0.815710
    118          1           0       12.628399   -0.267511   -1.586744
    119          1           0       13.735329    0.972343    0.423988
    120          1           0       13.898604   -0.598101    1.134215
    121          1           0       15.170277    0.021574   -1.604064
    122          1           0       15.791220   -2.465924    0.115971
    123          1           0       14.859501   -2.026621   -1.330482
    124          1           0       16.379575   -1.877041   -1.329589
    125          1           0       16.078603    1.545243    0.400299
    126          1           0       16.437762   -0.106458    1.335798
    127          1           0       18.125925   -0.594687   -0.308439
    128          1           0       17.824196    1.119270   -1.276442
    129          1           0       18.279205    2.147401    0.734871
    130          1           0       18.616269    0.997517    1.767337
    131          1           0       20.483970    0.261722    0.120373
    132          1           0       19.872419    3.195060   -0.610211
    133          1           0       21.375445    2.185938   -1.321599
    134          1           0       19.885114    1.738838   -1.906395
    135          1           0       20.993244    1.419538    2.345565
    136          1           0       22.116858    1.899214    1.210378
    137          1           0       20.692486    2.817628    1.648889
 ---------------------------------------------------------------------

 SCF Done:  E(RCAM-B3LYP) =  -2932.62849408     A.U. after   18 cycles

 Excitation energies and oscillator strengths:

 Excited State   1:      Singlet-A      2.0950 eV  591.82 nm  f=0.2097  <S**2>=0.000
     240 -> 243       -0.26290
     241 -> 242        0.64765
 This state for optimization and/or second-order correction.
 Total Energy, E(TD-HF/TD-KS) =  -2932.55150600
 Copying the excited state density for this state as the 1-particle RhoCI density.

 The electronic state is 1-A.
 Alpha  occ. eigenvalues --  -46.83911 -19.27880 -19.25583 -19.20979 -19.19904
 Alpha  occ. eigenvalues --  -19.19894 -14.41006 -14.39245 -14.39159 -14.38786
 Alpha  occ. eigenvalues --  -10.39384 -10.39124 -10.35345 -10.33225 -10.32871
 Alpha  occ. eigenvalues --  -10.30324 -10.30143 -10.29395 -10.29358 -10.29263
 Alpha  occ. eigenvalues --  -10.29220 -10.29057 -10.29054 -10.29006 -10.28657
 Alpha  occ. eigenvalues --  -10.28646 -10.28618 -10.28487 -10.28269 -10.28266
 Alpha  occ. eigenvalues --  -10.28039 -10.27953 -10.27642 -10.27554 -10.27543
 Alpha  occ. eigenvalues --  -10.27338 -10.27330 -10.27259 -10.27113 -10.26919
 Alpha  occ. eigenvalues --  -10.26537 -10.26464 -10.26199 -10.26121 -10.25986
 Alpha  occ. eigenvalues --  -10.25883 -10.25862 -10.25832 -10.25689 -10.25654
 Alpha  occ. eigenvalues --  -10.25345 -10.25284 -10.25268 -10.25226 -10.25218
 Alpha  occ. eigenvalues --  -10.25161 -10.25073 -10.24509 -10.24127 -10.24064
 Alpha  occ. eigenvalues --  -10.23753 -10.23404 -10.23012 -10.22832 -10.22156
 Alpha  occ. eigenvalues --   -3.12919  -1.87634  -1.87171  -1.87076  -1.19298
 Alpha  occ. eigenvalues --   -1.16666  -1.07726  -1.07605  -1.07278  -1.04992
 Alpha  occ. eigenvalues --   -1.04260  -1.03237  -1.01049  -0.92936  -0.92016
 Alpha  occ. eigenvalues --   -0.91569  -0.90556  -0.90406  -0.89016  -0.88909
 Alpha  occ. eigenvalues --   -0.88449  -0.87663  -0.87644  -0.86688  -0.86409
 Alpha  occ. eigenvalues --   -0.85223  -0.84362  -0.83296  -0.83240  -0.82222
 Alpha  occ. eigenvalues --   -0.81679  -0.81289  -0.80762  -0.80457  -0.78969
 Alpha  occ. eigenvalues --   -0.77213  -0.77097  -0.76965  -0.76515  -0.75898
 Alpha  occ. eigenvalues --   -0.75549  -0.74613  -0.74434  -0.73539  -0.72372
 Alpha  occ. eigenvalues --   -0.71800  -0.70939  -0.69633  -0.69392  -0.68463
 Alpha  occ. eigenvalues --   -0.67160  -0.67050  -0.66275  -0.65214  -0.64983
 Alpha  occ. eigenvalues --   -0.64780  -0.64053  -0.62500  -0.62290  -0.61826
 Alpha  occ. eigenvalues --   -0.61770  -0.60562  -0.59779  -0.59339  -0.59033
 Alpha  occ. eigenvalues --   -0.58426  -0.57702  -0.57273  -0.56693  -0.56564
 Alpha  occ. eigenvalues --   -0.55992  -0.55551  -0.55248  -0.55019  -0.54338
 Alpha  occ. eigenvalues --   -0.54284  -0.54040  -0.53832  -0.53458  -0.53394
 Alpha  occ. eigenvalues --   -0.53133  -0.52947  -0.52087  -0.51912  -0.51614
 Alpha  occ. eigenvalues --   -0.51498  -0.51324  -0.51141  -0.51049  -0.50809
 Alpha  occ. eigenvalues --   -0.50656  -0.50145  -0.50092  -0.49735  -0.49560
 Alpha  occ. eigenvalues --   -0.49293  -0.49026  -0.48849  -0.48618  -0.48047
 Alpha  occ. eigenvalues --   -0.47824  -0.47640  -0.47549  -0.47454  -0.47209
 Alpha  occ. eigenvalues --   -0.47097  -0.46588  -0.46314  -0.46245  -0.45940
 Alpha  occ. eigenvalues --   -0.45537  -0.45202  -0.45059  -0.44924  -0.44846
 Alpha  occ. eigenvalues --   -0.44639  -0.44593  -0.44429  -0.44155  -0.43878
 Alpha  occ. eigenvalues --   -0.43815  -0.43732  -0.43607  -0.43523  -0.43408
 Alpha  occ. eigenvalues --   -0.42830  -0.42647  -0.42593  -0.42464  -0.42374
 Alpha  occ. eigenvalues --   -0.41981  -0.41771  -0.41605  -0.41336  -0.41267
 Alpha  occ. eigenvalues --   -0.41208  -0.41072  -0.40846  -0.40596  -0.40453
 Alpha  occ. eigenvalues --   -0.40216  -0.40186  -0.39775  -0.39737  -0.39122
 Alpha  occ. eigenvalues --   -0.39094  -0.38751  -0.38654  -0.38464  -0.37926
 Alpha  occ. eigenvalues --   -0.37657  -0.37379  -0.37009  -0.36882  -0.36724
 Alpha  occ. eigenvalues --   -0.36481  -0.36200  -0.35549  -0.35448  -0.35367
 Alpha  occ. eigenvalues --   -0.35134  -0.34873  -0.34641  -0.34351  -0.33610
 Alpha  occ. eigenvalues --   -0.33060  -0.32846  -0.32126  -0.30354  -0.29796
 Alpha  occ. eigenvalues --   -0.29346  -0.29081  -0.27613  -0.27001  -0.22884
 Alpha  occ. eigenvalues --   -0.21164
 Alpha virt. eigenvalues --   -0.06076  -0.03115   0.01245   0.04160   0.04787
 Alpha virt. eigenvalues --    0.05364   0.05999   0.06383   0.06844   0.07265
 Alpha virt. eigenvalues --    0.08504   0.10323   0.10602   0.11047   0.11494

 Mulliken charges:
               1
     1  Mg   0.816978
     2  C    0.090970
     3  C   -0.209421
     4  C   -0.178030
     5  C   -0.179852
     6  N   -0.664186
     7  C    0.324074
     8  C   -0.177211
     9  C   -0.162404
    10  C    0.374812
    11  C   -0.336771
    12  C   -0.171036
    13  C   -0.257015
    14  C    0.591666
    15  O   -0.472273
    16  O   -0.495692
    17  N   -0.734022
    18  C    0.332635
    19  C    0.045120
    20  C   -0.020482
    21  C    0.319369
    22  C   -0.362677
    23  C   -0.057894
    24  C   -0.250222
    25  N   -0.642777
    26  C    0.270808
    27  C    0.025221
    28  C    0.025377
    29  C    0.305051
    30  C   -0.357772
    31  C   -0.241248
    32  C   -0.293662
    33  N   -0.720492
    34  C    0.267505
    35  C   -0.052140
    36  C    0.042578
    37  C    0.266235
    38  C   -0.338098
    39  C    0.367829
    40  O   -0.486677
    41  C   -0.301742
    42  C    0.618748
    43  O   -0.517760
    44  O   -0.420560
    45  C   -0.102179
    46  C    0.014824
    47  C   -0.103553
    48  C    0.085836
    49  C   -0.344133
    50  C   -0.211405
    51  C   -0.169487
    52  C   -0.161635
    53  C   -0.080026
    54  C   -0.314434
    55  C   -0.174627
    56  C   -0.190814
    57  C   -0.184086
    58  C   -0.060869
    59  C   -0.300461
    60  C   -0.146699
    61  C   -0.160194
    62  C   -0.167592
    63  C   -0.058711
    64  C   -0.292115
    65  C   -0.314122
    66  H    0.071417
    67  H    0.087356
    68  H    0.097903
    69  H    0.136408
    70  H    0.104374
    71  H    0.115851
    72  H    0.115111
    73  H    0.118605
    74  H    0.102394
    75  H    0.111229
    76  H    0.141790
    77  H    0.146566
    78  H    0.112125
    79  H    0.128474
    80  H    0.101188
    81  H    0.078559
    82  H    0.105775
    83  H    0.110910
    84  H    0.125099
    85  H    0.115797
    86  H    0.085782
    87  H    0.091131
    88  H    0.097247
    89  H    0.074830
    90  H    0.120559
    91  H    0.112930
    92  H    0.120704
    93  H    0.135832
    94  H    0.139266
    95  H    0.152768
    96  H    0.141390
    97  H    0.166642
    98  H    0.134980
    99  H    0.109299
   100  H    0.114627
   101  H    0.093585
   102  H    0.096228
   103  H    0.125963
   104  H    0.129270
   105  H    0.072007
   106  H    0.077745
   107  H    0.111578
   108  H    0.096882
   109  H    0.092488
   110  H    0.102362
   111  H    0.091079
   112  H    0.092474
   113  H    0.113939
   114  H    0.081635
   115  H    0.067684
   116  H    0.099604
   117  H    0.109036
   118  H    0.093962
   119  H    0.077629
   120  H    0.088020
   121  H    0.072160
   122  H    0.100432
   123  H    0.094187
   124  H    0.114979
   125  H    0.070741
   126  H    0.084781
   127  H    0.098844
   128  H    0.076604
   129  H    0.084920
   130  H    0.044620
   131  H    0.071191
   132  H    0.090654
   133  H    0.106261
   134  H    0.092618
   135  H    0.107628
   136  H    0.107297
   137  H    0.097621
 Sum of Mulliken charges =   0.00000

 Dipole moment (field-independent basis, Debye):
    X=              2.5671    Y=              4.5603    Z=              1.0316  Tot=              5.3339
 Quadrupole moment (field-independent basis, Debye-Ang):
   XX=           -349.9131   YY=           -392.7530   ZZ=           -394.1752
   XY=            -24.1673   XZ=              2.7012   YZ=             -8.4052

 Normal termination of Gaussian 09 at Fri Jun 28 09:02:52 2019.
