 Gaussian 09, Revision D.01,
 Gaussian 09:  ES64L-G09RevD.01 24-Apr-2013

 -------------------------------------
 # td=(NStates=1) CAM-B3LYP/6-31G(d,p)
 -------------------------------------

 --
 TD
 --
 Symbolic Z-matrix:
 Charge =  0 Multiplicity = 1

                         Standard orientation:
 ---------------------------------------------------------------------
 Center     Atomic      Atomic             Coordinates (Angstroms)
 Number     Number       Type             X           Y           Z
 ---------------------------------------------------------------------
      1         12           0       -7.148756    0.616287   -0.002374
      2          6           0       -4.858852   -1.889733    0.544488
      3          6           0       -4.887551    2.777646    1.186903
      4          6           0       -9.351096    3.052633   -0.422373
      5          6           0       -9.503562   -1.808961   -0.939161
      6          7           0       -5.034999    0.407772    0.788236
      7          6           0       -4.310093   -0.674951    0.813917
      8          6           0       -2.858181   -0.336320    1.416631
      9          6           0       -2.982408    1.102139    1.879085
     10          6           0       -4.423324    1.442596    1.256271
     11          6           0       -3.195346    1.264311    3.394112
     12          6           0       -1.862923   -0.568068    0.212686
     13          6           0       -0.429372   -0.293033    0.632671
     14          6           0        0.514707   -0.498960   -0.468029
     15          8           0        0.267758   -0.767496   -1.656643
     16          8           0        1.775881   -0.232791   -0.204645
     17          7           0       -7.178769    2.584284    0.313083
     18          6           0       -6.112314    3.287424    0.775157
     19          6           0       -6.481601    4.743091    0.825986
     20          6           0       -7.773408    4.876808    0.323298
     21          6           0       -8.172438    3.420181    0.051888
     22          6           0       -5.594893    5.852347    1.271011
     23          6           0       -8.717285    5.993777    0.253205
     24          6           0       -8.311067    7.337484    0.070592
     25          7           0       -9.136611    0.658643   -0.530511
     26          6           0       -9.897978    1.750648   -0.665417
     27          6           0      -11.211520    1.383502   -1.143105
     28          6           0      -11.252458    0.031550   -1.278047
     29          6           0      -10.069587   -0.422296   -0.791756
     30          6           0      -12.390152    2.355625   -1.420489
     31          6           0      -12.366842   -0.891739   -1.708703
     32          6           0      -12.328657   -1.314605   -3.204130
     33          7           0       -7.212210   -1.338626   -0.214396
     34          6           0       -8.248181   -2.252113   -0.610266
     35          6           0       -7.729035   -3.614829   -0.516750
     36          6           0       -6.441089   -3.501446   -0.131332
     37          6           0       -6.173069   -2.132313    0.089566
     38          6           0       -8.603815   -4.899326   -0.903425
     39          6           0       -5.226899   -4.352779    0.255976
     40          8           0       -5.033771   -5.560302    0.291118
     41          6           0       -4.147953   -3.244612    0.586377
     42          6           0       -3.455552   -3.601127    1.841125
     43          8           0       -3.536791   -3.066795    2.962790
     44          8           0       -2.619399   -4.646883    1.657497
     45          6           0       -1.876970   -5.221204    2.801409
     46          6           0        2.760180   -0.569739   -1.174357
     47          6           0        4.159090   -0.454290   -0.561932
     48          6           0        5.102956    0.376177   -0.893875
     49          6           0        5.104577    1.185517   -2.058920
     50          6           0        6.363908    0.374809   -0.095248
     51          6           0        7.585340   -0.270869   -0.993019
     52          6           0        8.939196   -0.176008   -0.223045
     53          6           0       10.234424   -0.626735   -1.023347
     54          6           0       10.117883   -2.144452   -1.493258
     55          6           0       11.478965   -0.367032    0.005592
     56          6           0       12.855334   -0.704864   -0.748889
     57          6           0       13.965958   -0.126752    0.095283
     58          6           0       15.415907   -0.286299   -0.464530
     59          6           0       15.770794   -1.723955   -0.775783
     60          6           0       16.308622    0.423801    0.502704
     61          6           0       17.714795    0.558984   -0.144330
     62          6           0       18.728113    1.294884    0.727436
     63          6           0       20.127084    1.510278    0.105849
     64          6           0       20.168784    2.274454   -1.108188
     65          6           0       21.093626    1.957985    1.198700
     66          1           0       -4.207321    3.646693    1.383735
     67          1           0      -10.166641    3.754835   -0.779461
     68          1           0      -10.222092   -2.475690   -1.249863
     69          1           0       -2.470931   -0.988503    2.156281
     70          1           0       -2.294535    1.717518    1.100319
     71          1           0       -2.148297    0.953628    3.907715
     72          1           0       -3.425294    2.225424    3.686192
     73          1           0       -4.197750    0.532491    3.850630
     74          1           0       -1.758884   -1.633832    0.149339
     75          1           0       -2.156013    0.117082   -0.652903
     76          1           0       -0.172572    0.760244    1.074167
     77          1           0       -0.246327   -1.024586    1.408867
     78          1           0       -5.009631    6.152552    0.473302
     79          1           0       -6.439931    6.592466    1.402664
     80          1           0       -5.077924    5.545010    2.179500
     81          1           0       -9.764645    5.703531    0.421506
     82          1           0       -8.999305    8.035571    0.053685
     83          1           0       -7.170580    7.495940   -0.173650
     84          1           0      -11.979341    3.124553   -2.080814
     85          1           0      -13.193247    1.732140   -1.794139
     86          1           0      -12.555713    2.781753   -0.603198
     87          1           0      -12.030028   -1.793718   -1.023200
     88          1           0      -13.377371   -0.583281   -1.369524
     89          1           0      -12.970760   -2.251387   -3.375136
     90          1           0      -12.420394   -0.355432   -3.757834
     91          1           0      -11.268766   -1.685113   -3.407166
     92          1           0       -9.067263   -4.865697   -1.985008
     93          1           0       -7.996231   -5.730005   -0.996606
     94          1           0       -9.341556   -4.959089   -0.225304
     95          1           0       -3.605524   -3.400861   -0.294959
     96          1           0       -1.551400   -4.234487    3.242411
     97          1           0       -2.468124   -5.648751    3.652543
     98          1           0       -1.062620   -5.854801    2.410633
     99          1           0        2.456312   -1.557377   -1.501352
    100          1           0        2.617896    0.213853   -1.982418
    101          1           0        4.064224   -1.027477    0.480895
    102          1           0        4.071262    1.571543   -2.217669
    103          1           0        5.804969    2.094607   -1.754431
    104          1           0        5.680412    0.680583   -3.076579
    105          1           0        6.566727    1.454381    0.192971
    106          1           0        6.401957   -0.119822    0.723747
    107          1           0        7.207694   -1.356141   -1.161816
    108          1           0        7.613116    0.289872   -1.893983
    109          1           0        9.114488    1.054039   -0.091825
    110          1           0        8.742909   -0.572913    0.744181
    111          1           0       10.334996    0.093867   -1.802571
    112          1           0        9.156553   -2.233962   -2.056799
    113          1           0       10.976543   -2.214526   -2.200265
    114          1           0       10.085895   -2.644648   -0.494024
    115          1           0       11.464325    0.809790    0.123620
    116          1           0       11.212621   -0.747761    1.016581
    117          1           0       12.974635   -1.756078   -1.130561
    118          1           0       12.780569   -0.212065   -1.831320
    119          1           0       13.812278    0.995397    0.269676
    120          1           0       13.843648   -0.770595    1.085043
    121          1           0       15.244519    0.357543   -1.268250
    122          1           0       15.868980   -2.453719   -0.014188
    123          1           0       14.911909   -2.248373   -1.219529
    124          1           0       16.674902   -1.835969   -1.489405
    125          1           0       15.948762    1.387841    0.777775
    126          1           0       16.569651   -0.104594    1.380762
    127          1           0       18.037923   -0.464301   -0.186097
    128          1           0       17.555679    1.119512   -1.073599
    129          1           0       18.421275    2.349072    1.239708
    130          1           0       18.822541    0.824713    1.660138
    131          1           0       20.259682    0.455070    0.038356
    132          1           0       19.816359    3.308411   -0.834115
    133          1           0       21.086591    2.496645   -1.530721
    134          1           0       19.825187    1.765346   -1.902408
    135          1           0       20.887371    1.151929    2.052076
    136          1           0       22.280371    2.027465    1.091023
    137          1           0       20.926401    3.091407    1.248027
 ---------------------------------------------------------------------

 SCF Done:  E(RCAM-B3LYP) =  -2932.64975398     A.U. after   17 cycles

 Excitation energies and oscillator strengths:

 Excited State   1:      Singlet-A      2.2359 eV  554.52 nm  f=0.1159  <S**2>=0.000
     240 -> 243       -0.33861
     241 -> 242        0.60983
 This state for optimization and/or second-order correction.
 Total Energy, E(TD-HF/TD-KS) =  -2932.56758731
 Copying the excited state density for this state as the 1-particle RhoCI density.

 The electronic state is 1-A.
 Alpha  occ. eigenvalues --  -46.84430 -19.25720 -19.25287 -19.21723 -19.20377
 Alpha  occ. eigenvalues --  -19.19193 -14.41475 -14.39687 -14.39468 -14.38064
 Alpha  occ. eigenvalues --  -10.39446 -10.38408 -10.36662 -10.32123 -10.31441
 Alpha  occ. eigenvalues --  -10.31390 -10.30471 -10.30453 -10.29313 -10.29197
 Alpha  occ. eigenvalues --  -10.28886 -10.28867 -10.28853 -10.28849 -10.28846
 Alpha  occ. eigenvalues --  -10.28393 -10.28190 -10.27930 -10.27685 -10.27613
 Alpha  occ. eigenvalues --  -10.27597 -10.27580 -10.27576 -10.27426 -10.27295
 Alpha  occ. eigenvalues --  -10.27239 -10.27007 -10.26926 -10.26797 -10.26625
 Alpha  occ. eigenvalues --  -10.26517 -10.26503 -10.26436 -10.26409 -10.26399
 Alpha  occ. eigenvalues --  -10.26272 -10.26113 -10.26080 -10.26080 -10.25872
 Alpha  occ. eigenvalues --  -10.25795 -10.25707 -10.25650 -10.25629 -10.25158
 Alpha  occ. eigenvalues --  -10.24965 -10.24923 -10.24816 -10.24808 -10.24516
 Alpha  occ. eigenvalues --  -10.24430 -10.24405 -10.23877 -10.23561 -10.22535
 Alpha  occ. eigenvalues --   -3.13542  -1.88232  -1.87771  -1.87738  -1.18973
 Alpha  occ. eigenvalues --   -1.16753  -1.11462  -1.07019  -1.06776  -1.06594
 Alpha  occ. eigenvalues --   -1.04341  -1.03336  -1.01463  -0.92758  -0.92126
 Alpha  occ. eigenvalues --   -0.91167  -0.90893  -0.89568  -0.89435  -0.89046
 Alpha  occ. eigenvalues --   -0.87936  -0.87719  -0.87075  -0.86562  -0.86038
 Alpha  occ. eigenvalues --   -0.84740  -0.84361  -0.83416  -0.83023  -0.82640
 Alpha  occ. eigenvalues --   -0.81407  -0.81017  -0.80402  -0.79773  -0.78406
 Alpha  occ. eigenvalues --   -0.78025  -0.77401  -0.77069  -0.77004  -0.75757
 Alpha  occ. eigenvalues --   -0.75413  -0.75170  -0.73894  -0.73018  -0.72346
 Alpha  occ. eigenvalues --   -0.71603  -0.70269  -0.69313  -0.68964  -0.68422
 Alpha  occ. eigenvalues --   -0.67532  -0.66247  -0.65142  -0.64698  -0.64502
 Alpha  occ. eigenvalues --   -0.63986  -0.63451  -0.62781  -0.62168  -0.62026
 Alpha  occ. eigenvalues --   -0.61920  -0.60457  -0.59700  -0.59549  -0.59176
 Alpha  occ. eigenvalues --   -0.58951  -0.58341  -0.58172  -0.58033  -0.56768
 Alpha  occ. eigenvalues --   -0.56750  -0.56041  -0.55995  -0.55480  -0.54517
 Alpha  occ. eigenvalues --   -0.54493  -0.54249  -0.53584  -0.53444  -0.53092
 Alpha  occ. eigenvalues --   -0.52870  -0.52470  -0.52158  -0.51835  -0.51498
 Alpha  occ. eigenvalues --   -0.51362  -0.51276  -0.50813  -0.50651  -0.50619
 Alpha  occ. eigenvalues --   -0.50355  -0.50194  -0.49943  -0.49832  -0.49721
 Alpha  occ. eigenvalues --   -0.49266  -0.49173  -0.49011  -0.48852  -0.48552
 Alpha  occ. eigenvalues --   -0.48332  -0.48154  -0.48047  -0.47705  -0.47425
 Alpha  occ. eigenvalues --   -0.47163  -0.46918  -0.46725  -0.46500  -0.46436
 Alpha  occ. eigenvalues --   -0.46238  -0.45508  -0.45359  -0.45291  -0.44945
 Alpha  occ. eigenvalues --   -0.44851  -0.44719  -0.44280  -0.44200  -0.43959
 Alpha  occ. eigenvalues --   -0.43619  -0.43521  -0.43310  -0.43216  -0.42956
 Alpha  occ. eigenvalues --   -0.42780  -0.42716  -0.42557  -0.42261  -0.42111
 Alpha  occ. eigenvalues --   -0.42047  -0.41919  -0.41634  -0.41351  -0.41244
 Alpha  occ. eigenvalues --   -0.40758  -0.40662  -0.40568  -0.40423  -0.40265
 Alpha  occ. eigenvalues --   -0.39713  -0.39643  -0.39508  -0.39365  -0.39065
 Alpha  occ. eigenvalues --   -0.38900  -0.38564  -0.38459  -0.38229  -0.37784
 Alpha  occ. eigenvalues --   -0.37713  -0.37186  -0.37052  -0.36725  -0.36418
 Alpha  occ. eigenvalues --   -0.36098  -0.35716  -0.35484  -0.35335  -0.35091
 Alpha  occ. eigenvalues --   -0.35012  -0.34610  -0.33481  -0.33454  -0.33365
 Alpha  occ. eigenvalues --   -0.32633  -0.32578  -0.31984  -0.31291  -0.30668
 Alpha  occ. eigenvalues --   -0.30289  -0.29869  -0.27797  -0.27378  -0.23066
 Alpha  occ. eigenvalues --   -0.21129
 Alpha virt. eigenvalues --   -0.04902  -0.03733   0.01335   0.03543   0.05350
 Alpha virt. eigenvalues --    0.05543   0.05621   0.06410   0.06903   0.07768
 Alpha virt. eigenvalues --    0.08940   0.10181   0.10597   0.11003   0.11283

 Mulliken charges:
               1
     1  Mg   0.826579
     2  C    0.041712
     3  C   -0.224720
     4  C   -0.210879
     5  C   -0.171718
     6  N   -0.584326
     7  C    0.300743
     8  C   -0.139739
     9  C   -0.127418
    10  C    0.294850
    11  C   -0.285334
    12  C   -0.174478
    13  C   -0.286820
    14  C    0.603387
    15  O   -0.507628
    16  O   -0.461852
    17  N   -0.729928
    18  C    0.358434
    19  C   -0.041146
    20  C    0.042956
    21  C    0.335763
    22  C   -0.366188
    23  C   -0.089961
    24  C   -0.239342
    25  N   -0.674597
    26  C    0.318328
    27  C   -0.069346
    28  C    0.085822
    29  C    0.183889
    30  C   -0.338581
    31  C   -0.245836
    32  C   -0.301567
    33  N   -0.739962
    34  C    0.261376
    35  C   -0.022875
    36  C   -0.005121
    37  C    0.336900
    38  C   -0.348980
    39  C    0.382425
    40  O   -0.445518
    41  C   -0.315798
    42  C    0.631871
    43  O   -0.508665
    44  O   -0.467905
    45  C   -0.083317
    46  C    0.022484
    47  C   -0.130534
    48  C    0.150813
    49  C   -0.353723
    50  C   -0.210516
    51  C   -0.191490
    52  C   -0.169556
    53  C   -0.079080
    54  C   -0.300892
    55  C   -0.171849
    56  C   -0.183599
    57  C   -0.174703
    58  C   -0.034271
    59  C   -0.332178
    60  C   -0.171321
    61  C   -0.189045
    62  C   -0.176072
    63  C   -0.054077
    64  C   -0.301941
    65  C   -0.289703
    66  H    0.076181
    67  H    0.073484
    68  H    0.083895
    69  H    0.121825
    70  H    0.108946
    71  H    0.092181
    72  H    0.132507
    73  H    0.108051
    74  H    0.126501
    75  H    0.121332
    76  H    0.130573
    77  H    0.138283
    78  H    0.138232
    79  H    0.118270
    80  H    0.119528
    81  H    0.112171
    82  H    0.107605
    83  H    0.111475
    84  H    0.114119
    85  H    0.108845
    86  H    0.134387
    87  H    0.087749
    88  H    0.103749
    89  H    0.106761
    90  H    0.118254
    91  H    0.104702
    92  H    0.106729
    93  H    0.147867
    94  H    0.141624
    95  H    0.187863
    96  H    0.126933
    97  H    0.139030
    98  H    0.135075
    99  H    0.127042
   100  H    0.105065
   101  H    0.077372
   102  H    0.120894
   103  H    0.096193
   104  H    0.106122
   105  H    0.083600
   106  H    0.100993
   107  H    0.092515
   108  H    0.100897
   109  H    0.054829
   110  H    0.094492
   111  H    0.093410
   112  H    0.105931
   113  H    0.106813
   114  H    0.108156
   115  H    0.079573
   116  H    0.096747
   117  H    0.102332
   118  H    0.065925
   119  H    0.088027
   120  H    0.073266
   121  H    0.097126
   122  H    0.113369
   123  H    0.096211
   124  H    0.099421
   125  H    0.092080
   126  H    0.092836
   127  H    0.103877
   128  H    0.097047
   129  H    0.044398
   130  H    0.091035
   131  H    0.087292
   132  H    0.092297
   133  H    0.105778
   134  H    0.111426
   135  H    0.086202
   136  H    0.081704
   137  H    0.088740
 Sum of Mulliken charges =   0.00000

 Dipole moment (field-independent basis, Debye):
    X=              1.9978    Y=              3.2817    Z=              0.2834  Tot=              3.8524
 Quadrupole moment (field-independent basis, Debye-Ang):
   XX=           -365.4671   YY=           -387.2622   ZZ=           -401.1867
   XY=            -25.0083   XZ=              2.2879   YZ=             -2.7740

 Normal termination of Gaussian 09 at Sun Jun 30 15:31:47 2019.
