 Gaussian 09, Revision D.01,
 Gaussian 09:  ES64L-G09RevD.01 24-Apr-2013

 -------------------------------------
 # td=(NStates=1) CAM-B3LYP/6-31G(d,p)
 -------------------------------------

 --
 TD
 --
 Symbolic Z-matrix:
 Charge =  0 Multiplicity = 1

                         Standard orientation:
 ---------------------------------------------------------------------
 Center     Atomic      Atomic             Coordinates (Angstroms)
 Number     Number       Type             X           Y           Z
 ---------------------------------------------------------------------
      1         12           0       -7.230202    0.626627    0.110082
      2          6           0       -4.892752   -1.885686    0.489410
      3          6           0       -4.848263    2.916647    1.094520
      4          6           0       -9.481177    2.985383   -0.379503
      5          6           0       -9.538851   -1.738340   -0.785897
      6          7           0       -5.165077    0.501137    0.694961
      7          6           0       -4.280931   -0.594727    0.768958
      8          6           0       -2.861416   -0.329081    1.174764
      9          6           0       -2.963174    1.155951    1.607795
     10          6           0       -4.425596    1.518984    1.132485
     11          6           0       -2.713481    1.427126    3.123685
     12          6           0       -1.889085   -0.517378   -0.018508
     13          6           0       -0.418484   -0.445548    0.566515
     14          6           0        0.537966   -0.706591   -0.574739
     15          8           0        0.285729   -1.116704   -1.717987
     16          8           0        1.836783   -0.501755   -0.172679
     17          7           0       -7.223278    2.653687    0.232791
     18          6           0       -6.065813    3.379934    0.717773
     19          6           0       -6.546505    4.821712    0.913063
     20          6           0       -7.837577    4.797291    0.402080
     21          6           0       -8.308429    3.474415    0.046075
     22          6           0       -5.723534    5.978060    1.362546
     23          6           0       -8.773126    5.999419    0.359553
     24          6           0       -8.304579    7.157196    0.125033
     25          7           0       -9.160405    0.563365   -0.564707
     26          6           0      -10.038714    1.707231   -0.606513
     27          6           0      -11.297164    1.381144   -1.005950
     28          6           0      -11.296307    0.016227   -1.236994
     29          6           0      -10.002790   -0.512293   -0.865986
     30          6           0      -12.333581    2.357928   -1.448518
     31          6           0      -12.408750   -0.831467   -1.719983
     32          6           0      -12.401176   -1.185804   -3.273772
     33          7           0       -7.125908   -1.419675   -0.201383
     34          6           0       -8.188460   -2.209688   -0.507980
     35          6           0       -7.765124   -3.649240   -0.417218
     36          6           0       -6.490307   -3.502304   -0.028725
     37          6           0       -6.180989   -2.194960    0.136861
     38          6           0       -8.549373   -4.894991   -0.767123
     39          6           0       -5.315471   -4.368404    0.183789
     40          8           0       -5.150686   -5.555982    0.198127
     41          6           0       -4.242436   -3.260698    0.623932
     42          6           0       -3.673546   -3.728365    1.914570
     43          8           0       -3.872069   -3.051928    2.951178
     44          8           0       -2.781931   -4.790022    1.741416
     45          6           0       -2.061616   -5.150100    2.940546
     46          6           0        2.835918   -0.644455   -1.229604
     47          6           0        4.151183   -0.495741   -0.488412
     48          6           0        5.201257    0.276612   -0.998064
     49          6           0        4.990103    1.211410   -2.199740
     50          6           0        6.433627    0.523062   -0.157389
     51          6           0        7.655582   -0.055765   -0.853273
     52          6           0        8.981571   -0.167119    0.005495
     53          6           0       10.244232   -0.365273   -0.814566
     54          6           0       10.210349   -1.944777   -1.448404
     55          6           0       11.459503   -0.387714    0.060050
     56          6           0       12.839824   -0.650020   -0.625198
     57          6           0       14.017078   -0.188315    0.248119
     58          6           0       15.365808   -0.250862   -0.477750
     59          6           0       15.765922   -1.633375   -0.954247
     60          6           0       16.485511    0.444276    0.444505
     61          6           0       17.890344    0.588414   -0.242880
     62          6           0       18.807148    1.409889    0.753502
     63          6           0       20.307204    1.325189    0.235273
     64          6           0       20.382416    1.922655   -1.190474
     65          6           0       21.265410    2.045193    1.147343
     66          1           0       -4.095579    3.758681    1.596010
     67          1           0      -10.392601    3.766312   -0.527046
     68          1           0      -10.266055   -2.514774   -1.245365
     69          1           0       -2.650597   -0.970110    2.009035
     70          1           0       -2.358147    1.711971    0.964370
     71          1           0       -1.688720    1.199921    3.514663
     72          1           0       -3.081680    2.405687    3.330753
     73          1           0       -3.319469    0.710936    3.695567
     74          1           0       -2.119167   -1.555452   -0.523130
     75          1           0       -1.961872    0.108558   -0.711662
     76          1           0        0.003763    0.572888    1.113434
     77          1           0       -0.297846   -1.148765    1.358463
     78          1           0       -5.101841    6.237818    0.559701
     79          1           0       -6.299637    6.742341    1.702167
     80          1           0       -4.940620    5.792859    2.110057
     81          1           0       -9.672946    5.748033    0.423834
     82          1           0       -8.982983    8.043893    0.117644
     83          1           0       -7.244493    7.364934    0.115152
     84          1           0      -11.995063    2.985229   -2.330267
     85          1           0      -13.180031    1.590962   -1.878000
     86          1           0      -12.863697    3.157862   -0.664626
     87          1           0      -12.397597   -1.841570   -1.460222
     88          1           0      -13.254988   -0.435541   -1.278476
     89          1           0      -13.324946   -1.719213   -3.705648
     90          1           0      -12.457145   -0.114308   -3.739509
     91          1           0      -11.266067   -1.445532   -3.558857
     92          1           0       -9.187584   -4.791219   -1.684665
     93          1           0       -7.782397   -5.710278   -1.039172
     94          1           0       -9.476666   -4.988051   -0.004069
     95          1           0       -3.404524   -3.384045   -0.073710
     96          1           0       -1.602554   -4.157276    3.481715
     97          1           0       -2.844339   -5.614903    3.606682
     98          1           0       -1.334569   -5.879252    2.691466
     99          1           0        2.614059   -1.764696   -1.563459
    100          1           0        2.728943    0.078021   -2.098350
    101          1           0        4.300899   -0.913296    0.507926
    102          1           0        4.015263    1.274587   -2.499418
    103          1           0        5.278019    2.326332   -1.980220
    104          1           0        5.766612    0.809340   -2.956221
    105          1           0        6.788145    1.371728    0.261802
    106          1           0        6.409233   -0.086028    0.854739
    107          1           0        7.388030   -1.198270   -1.193360
    108          1           0        7.961641    0.541854   -1.752708
    109          1           0        9.284731    1.080768    0.345335
    110          1           0        8.788335   -0.547676    0.877013
    111          1           0       10.136937    0.297259   -1.716030
    112          1           0        9.393013   -1.854406   -2.077970
    113          1           0       11.054269   -2.154918   -2.104918
    114          1           0       10.099729   -2.570657   -0.493958
    115          1           0       11.585161    0.653126    0.485331
    116          1           0       11.190377   -1.213985    0.794424
    117          1           0       12.923750   -1.782247   -0.695738
    118          1           0       12.868327   -0.155805   -1.537494
    119          1           0       13.886359    0.814129    0.665853
    120          1           0       14.136521   -0.908726    1.069462
    121          1           0       15.359226    0.346573   -1.294029
    122          1           0       15.710108   -2.227381   -0.042200
    123          1           0       15.048372   -1.905175   -1.789548
    124          1           0       16.623475   -1.624116   -1.343485
    125          1           0       16.063911    1.435740    0.708832
    126          1           0       16.746063   -0.174799    1.529070
    127          1           0       18.221017   -0.474634   -0.254072
    128          1           0       17.866805    1.057954   -1.254836
    129          1           0       18.426937    2.315935    0.601870
    130          1           0       18.738499    0.995770    1.783853
    131          1           0       20.589891    0.253156    0.224862
    132          1           0       20.161934    2.998278   -1.100800
    133          1           0       21.362619    1.795444   -1.686499
    134          1           0       19.631141    1.514096   -1.899313
    135          1           0       21.061177    1.540638    2.218797
    136          1           0       22.320453    1.881362    0.994695
    137          1           0       20.998905    3.074525    1.426445
 ---------------------------------------------------------------------

 SCF Done:  E(RCAM-B3LYP) =  -2932.63770753     A.U. after   18 cycles

 Excitation energies and oscillator strengths:

 Excited State   1:      Singlet-A      2.1453 eV  577.94 nm  f=0.1843  <S**2>=0.000
     240 -> 242       -0.10232
     240 -> 243        0.27808
     241 -> 242        0.63307
 This state for optimization and/or second-order correction.
 Total Energy, E(TD-HF/TD-KS) =  -2932.55887002
 Copying the excited state density for this state as the 1-particle RhoCI density.

 The electronic state is 1-A.
 Alpha  occ. eigenvalues --  -46.84289 -19.26502 -19.25956 -19.21319 -19.20861
 Alpha  occ. eigenvalues --  -19.20845 -14.43191 -14.38856 -14.38844 -14.38346
 Alpha  occ. eigenvalues --  -10.39679 -10.39498 -10.34965 -10.33131 -10.32376
 Alpha  occ. eigenvalues --  -10.32196 -10.31257 -10.30860 -10.29540 -10.29309
 Alpha  occ. eigenvalues --  -10.29027 -10.28809 -10.28764 -10.28564 -10.28218
 Alpha  occ. eigenvalues --  -10.27895 -10.27862 -10.27775 -10.27765 -10.27678
 Alpha  occ. eigenvalues --  -10.27602 -10.27407 -10.27403 -10.27356 -10.27079
 Alpha  occ. eigenvalues --  -10.27077 -10.27031 -10.27003 -10.26874 -10.26868
 Alpha  occ. eigenvalues --  -10.26868 -10.26851 -10.26841 -10.26640 -10.26598
 Alpha  occ. eigenvalues --  -10.26560 -10.26411 -10.26116 -10.26058 -10.26026
 Alpha  occ. eigenvalues --  -10.25530 -10.25523 -10.25432 -10.25397 -10.25075
 Alpha  occ. eigenvalues --  -10.24825 -10.24760 -10.24727 -10.24469 -10.24420
 Alpha  occ. eigenvalues --  -10.24413 -10.24335 -10.24331 -10.23565 -10.22775
 Alpha  occ. eigenvalues --   -3.13262  -1.87969  -1.87510  -1.87425  -1.16948
 Alpha  occ. eigenvalues --   -1.15876  -1.12036  -1.07949  -1.07749  -1.06525
 Alpha  occ. eigenvalues --   -1.04394  -1.01810  -1.00760  -0.92371  -0.90972
 Alpha  occ. eigenvalues --   -0.90732  -0.89999  -0.89393  -0.88920  -0.88905
 Alpha  occ. eigenvalues --   -0.88542  -0.87972  -0.87400  -0.87062  -0.86173
 Alpha  occ. eigenvalues --   -0.84833  -0.84211  -0.83050  -0.82850  -0.82424
 Alpha  occ. eigenvalues --   -0.81326  -0.80711  -0.80407  -0.79541  -0.78166
 Alpha  occ. eigenvalues --   -0.78045  -0.76524  -0.76105  -0.75774  -0.75308
 Alpha  occ. eigenvalues --   -0.75052  -0.74961  -0.74008  -0.73475  -0.72422
 Alpha  occ. eigenvalues --   -0.71488  -0.70881  -0.69702  -0.69088  -0.68351
 Alpha  occ. eigenvalues --   -0.67088  -0.66489  -0.65669  -0.64991  -0.64418
 Alpha  occ. eigenvalues --   -0.63246  -0.63156  -0.62958  -0.62844  -0.62190
 Alpha  occ. eigenvalues --   -0.61137  -0.60950  -0.60564  -0.60127  -0.59616
 Alpha  occ. eigenvalues --   -0.58602  -0.58284  -0.57078  -0.56921  -0.56793
 Alpha  occ. eigenvalues --   -0.56196  -0.55651  -0.55454  -0.55306  -0.54500
 Alpha  occ. eigenvalues --   -0.53919  -0.53710  -0.53634  -0.53286  -0.52754
 Alpha  occ. eigenvalues --   -0.52615  -0.52469  -0.52180  -0.51961  -0.51874
 Alpha  occ. eigenvalues --   -0.51410  -0.51078  -0.50901  -0.50839  -0.50675
 Alpha  occ. eigenvalues --   -0.50399  -0.50036  -0.49555  -0.49513  -0.49178
 Alpha  occ. eigenvalues --   -0.49132  -0.48727  -0.48701  -0.48540  -0.48364
 Alpha  occ. eigenvalues --   -0.48167  -0.47905  -0.47727  -0.47177  -0.47046
 Alpha  occ. eigenvalues --   -0.46998  -0.46838  -0.46573  -0.46394  -0.46311
 Alpha  occ. eigenvalues --   -0.45825  -0.45685  -0.45524  -0.45282  -0.44916
 Alpha  occ. eigenvalues --   -0.44792  -0.44618  -0.44570  -0.44554  -0.44157
 Alpha  occ. eigenvalues --   -0.44061  -0.43816  -0.43585  -0.43349  -0.43215
 Alpha  occ. eigenvalues --   -0.43165  -0.42889  -0.42680  -0.42540  -0.42455
 Alpha  occ. eigenvalues --   -0.42191  -0.41942  -0.41532  -0.41437  -0.41345
 Alpha  occ. eigenvalues --   -0.41290  -0.41052  -0.40749  -0.40559  -0.40405
 Alpha  occ. eigenvalues --   -0.40331  -0.40019  -0.39484  -0.39417  -0.38953
 Alpha  occ. eigenvalues --   -0.38877  -0.38674  -0.38006  -0.37917  -0.37839
 Alpha  occ. eigenvalues --   -0.37584  -0.37081  -0.37057  -0.36885  -0.36823
 Alpha  occ. eigenvalues --   -0.36532  -0.36489  -0.36352  -0.35975  -0.35841
 Alpha  occ. eigenvalues --   -0.35475  -0.35374  -0.34009  -0.33519  -0.33285
 Alpha  occ. eigenvalues --   -0.33168  -0.32648  -0.31842  -0.30735  -0.29983
 Alpha  occ. eigenvalues --   -0.29454  -0.28999  -0.28116  -0.27339  -0.23018
 Alpha  occ. eigenvalues --   -0.20980
 Alpha virt. eigenvalues --   -0.05612  -0.03357   0.01715   0.04529   0.04709
 Alpha virt. eigenvalues --    0.05038   0.05553   0.05852   0.06906   0.07525
 Alpha virt. eigenvalues --    0.07988   0.10452   0.10987   0.11085   0.11638

 Mulliken charges:
               1
     1  Mg   0.818354
     2  C    0.062453
     3  C   -0.225596
     4  C   -0.226933
     5  C   -0.208010
     6  N   -0.590776
     7  C    0.250949
     8  C   -0.145729
     9  C   -0.132180
    10  C    0.325038
    11  C   -0.318720
    12  C   -0.150698
    13  C   -0.277705
    14  C    0.619452
    15  O   -0.487784
    16  O   -0.494404
    17  N   -0.759475
    18  C    0.319720
    19  C    0.022607
    20  C   -0.060292
    21  C    0.391985
    22  C   -0.383881
    23  C    0.023868
    24  C   -0.256397
    25  N   -0.705525
    26  C    0.294889
    27  C    0.059258
    28  C    0.023233
    29  C    0.345189
    30  C   -0.366693
    31  C   -0.252848
    32  C   -0.324024
    33  N   -0.688357
    34  C    0.213819
    35  C    0.028969
    36  C    0.020293
    37  C    0.315094
    38  C   -0.382336
    39  C    0.369318
    40  O   -0.440651
    41  C   -0.366479
    42  C    0.642263
    43  O   -0.494043
    44  O   -0.465579
    45  C   -0.075763
    46  C    0.023628
    47  C   -0.125482
    48  C    0.101578
    49  C   -0.343980
    50  C   -0.219401
    51  C   -0.176440
    52  C   -0.138372
    53  C   -0.078863
    54  C   -0.325758
    55  C   -0.147471
    56  C   -0.180140
    57  C   -0.170132
    58  C   -0.075174
    59  C   -0.291423
    60  C   -0.172875
    61  C   -0.196467
    62  C   -0.164924
    63  C   -0.049132
    64  C   -0.313679
    65  C   -0.304317
    66  H    0.080593
    67  H    0.067997
    68  H    0.085290
    69  H    0.135140
    70  H    0.119927
    71  H    0.111437
    72  H    0.117666
    73  H    0.130152
    74  H    0.122430
    75  H    0.125331
    76  H    0.123932
    77  H    0.153107
    78  H    0.141418
    79  H    0.134851
    80  H    0.109834
    81  H    0.067344
    82  H    0.090602
    83  H    0.102044
    84  H    0.132184
    85  H    0.092535
    86  H    0.099830
    87  H    0.120837
    88  H    0.113763
    89  H    0.116795
    90  H    0.092880
    91  H    0.113140
    92  H    0.119812
    93  H    0.146888
    94  H    0.120140
    95  H    0.157592
    96  H    0.108873
    97  H    0.132211
    98  H    0.134074
    99  H    0.122965
   100  H    0.123151
   101  H    0.103076
   102  H    0.116680
   103  H    0.107053
   104  H    0.117556
   105  H    0.120092
   106  H    0.075794
   107  H    0.080912
   108  H    0.088615
   109  H    0.018665
   110  H    0.101992
   111  H    0.083670
   112  H    0.108261
   113  H    0.106589
   114  H    0.092011
   115  H    0.076940
   116  H    0.086828
   117  H    0.098242
   118  H    0.097567
   119  H    0.085914
   120  H    0.088472
   121  H    0.087674
   122  H    0.097133
   123  H    0.090857
   124  H    0.110582
   125  H    0.083949
   126  H    0.045622
   127  H    0.097266
   128  H    0.095356
   129  H    0.105583
   130  H    0.091841
   131  H    0.085321
   132  H    0.098116
   133  H    0.097108
   134  H    0.095844
   135  H    0.066016
   136  H    0.108642
   137  H    0.104344
 Sum of Mulliken charges =   0.00000

 Dipole moment (field-independent basis, Debye):
    X=              1.8820    Y=              4.9603    Z=              0.8057  Tot=              5.3661
 Quadrupole moment (field-independent basis, Debye-Ang):
   XX=           -357.6853   YY=           -394.6351   ZZ=           -398.3367
   XY=            -15.0081   XZ=              4.4914   YZ=             -0.3238

 Normal termination of Gaussian 09 at Fri Jun 28 18:37:22 2019.
