 Gaussian 09, Revision D.01,
 Gaussian 09:  ES64L-G09RevD.01 24-Apr-2013

 -------------------------------------
 # td=(NStates=1) CAM-B3LYP/6-31G(d,p)
 -------------------------------------

 --
 TD
 --
 Symbolic Z-matrix:
 Charge =  0 Multiplicity = 1

                         Standard orientation:
 ---------------------------------------------------------------------
 Center     Atomic      Atomic             Coordinates (Angstroms)
 Number     Number       Type             X           Y           Z
 ---------------------------------------------------------------------
      1         12           0       -7.237633    0.593541    0.083631
      2          6           0       -4.786277   -1.990968    0.437461
      3          6           0       -4.890040    2.835809    1.130102
      4          6           0       -9.406906    3.021481   -0.341525
      5          6           0       -9.490110   -1.754001   -0.909250
      6          7           0       -5.160933    0.426526    0.782381
      7          6           0       -4.454616   -0.668180    0.813527
      8          6           0       -3.014608   -0.352889    1.242012
      9          6           0       -3.013737    1.130869    1.669585
     10          6           0       -4.433175    1.524824    1.100125
     11          6           0       -3.026547    1.260636    3.282153
     12          6           0       -1.941838   -0.652606    0.090130
     13          6           0       -0.496693   -0.452336    0.511293
     14          6           0        0.538064   -0.745863   -0.636911
     15          8           0        0.243528   -1.143191   -1.666882
     16          8           0        1.802538   -0.523910   -0.192200
     17          7           0       -7.102323    2.610233    0.318187
     18          6           0       -6.059714    3.413681    0.731455
     19          6           0       -6.483909    4.707989    0.854079
     20          6           0       -7.764027    4.879475    0.330278
     21          6           0       -8.154182    3.514630    0.094540
     22          6           0       -5.491841    5.769982    1.301759
     23          6           0       -8.528227    6.028030    0.313559
     24          6           0       -8.132359    7.405239    0.151866
     25          7           0       -9.147242    0.594096   -0.605862
     26          6           0       -9.890164    1.773813   -0.685210
     27          6           0      -11.195156    1.407604   -1.045284
     28          6           0      -11.284356    0.102538   -1.268379
     29          6           0       -9.966501   -0.409807   -0.917078
     30          6           0      -12.195775    2.476024   -1.243159
     31          6           0      -12.402975   -0.866164   -1.787805
     32          6           0      -12.373657   -1.050145   -3.264936
     33          7           0       -7.212614   -1.431196   -0.188077
     34          6           0       -8.194014   -2.226464   -0.622426
     35          6           0       -7.761698   -3.626146   -0.572897
     36          6           0       -6.508450   -3.564559   -0.122826
     37          6           0       -6.152835   -2.155178    0.107309
     38          6           0       -8.641379   -4.803247   -0.934366
     39          6           0       -5.291975   -4.322901    0.333981
     40          8           0       -5.132326   -5.569041    0.293102
     41          6           0       -4.208975   -3.322005    0.629892
     42          6           0       -3.581052   -3.559884    1.974123
     43          8           0       -3.847401   -3.104079    3.155447
     44          8           0       -2.703181   -4.647315    1.822804
     45          6           0       -2.012538   -4.990120    3.056477
     46          6           0        2.882374   -0.698644   -1.221947
     47          6           0        4.191970   -0.414869   -0.430947
     48          6           0        5.071571    0.334361   -1.001324
     49          6           0        5.031054    1.017249   -2.332733
     50          6           0        6.489480    0.446224   -0.228411
     51          6           0        7.583706   -0.086548   -1.081754
     52          6           0        8.907741   -0.150718   -0.136419
     53          6           0       10.206045   -0.615368   -0.875410
     54          6           0       10.143111   -2.071161   -1.348754
     55          6           0       11.443052   -0.312944   -0.070563
     56          6           0       12.693777   -0.554954   -0.720196
     57          6           0       13.974577   -0.119125    0.015966
     58          6           0       15.353547   -0.208454   -0.549028
     59          6           0       15.607591   -1.562635   -1.072510
     60          6           0       16.443715    0.409409    0.426501
     61          6           0       17.906338    0.565046   -0.062614
     62          6           0       18.822381    1.271820    0.865032
     63          6           0       20.226193    1.376460    0.313677
     64          6           0       20.336684    2.214744   -0.991957
     65          6           0       21.138694    2.021346    1.401702
     66          1           0       -4.048344    3.539946    1.634660
     67          1           0       -9.931138    3.871551   -0.430713
     68          1           0      -10.323693   -2.460869   -0.973505
     69          1           0       -2.778179   -0.850971    2.212315
     70          1           0       -2.318572    1.873102    1.253172
     71          1           0       -2.130765    0.691400    3.640462
     72          1           0       -2.981509    2.265311    3.528116
     73          1           0       -3.952019    0.668222    3.545528
     74          1           0       -2.214459   -1.549646   -0.415029
     75          1           0       -2.080096    0.240093   -0.740523
     76          1           0       -0.360692    0.596034    0.789845
     77          1           0       -0.273536   -1.061372    1.308738
     78          1           0       -4.684111    6.096558    0.619078
     79          1           0       -6.114253    6.677704    1.639949
     80          1           0       -4.879842    5.300759    2.071539
     81          1           0       -9.735382    5.753208    0.347018
     82          1           0       -9.105020    8.163446   -0.098159
     83          1           0       -7.050784    7.731457    0.293973
     84          1           0      -11.589401    3.193455   -1.847967
     85          1           0      -13.060416    1.982502   -1.741736
     86          1           0      -12.684399    2.954302   -0.369483
     87          1           0      -12.342978   -1.728264   -1.173824
     88          1           0      -13.343927   -0.372028   -1.432109
     89          1           0      -13.192720   -1.699965   -3.404137
     90          1           0      -12.519213   -0.212161   -4.140275
     91          1           0      -11.355535   -1.431653   -3.483688
     92          1           0       -9.161461   -4.595806   -1.947504
     93          1           0       -7.860273   -5.730749   -0.887019
     94          1           0       -9.594164   -4.879970   -0.324391
     95          1           0       -3.213417   -3.382429    0.026453
     96          1           0       -1.581283   -3.940131    3.442996
     97          1           0       -2.788587   -5.333735    3.713890
     98          1           0       -1.294033   -5.742255    2.773353
     99          1           0        2.836654   -1.619473   -1.595715
    100          1           0        2.796050   -0.106257   -2.000766
    101          1           0        4.340505   -1.112939    0.291766
    102          1           0        4.126988    0.918533   -2.805777
    103          1           0        5.217402    2.287065   -2.258998
    104          1           0        5.747737    0.491192   -3.107063
    105          1           0        6.700524    1.386449    0.156851
    106          1           0        6.447713   -0.072708    0.572843
    107          1           0        7.416999   -1.136658   -1.405628
    108          1           0        7.897619    0.525182   -2.038897
    109          1           0        8.863079    0.818516    0.078931
    110          1           0        8.546170   -0.787179    0.776882
    111          1           0       10.410652   -0.134907   -1.874209
    112          1           0        9.330083   -2.379600   -1.870385
    113          1           0       11.043392   -2.497913   -2.004662
    114          1           0       10.304967   -2.639863   -0.292305
    115          1           0       11.420550    0.546642    0.343789
    116          1           0       11.279005   -0.980988    0.839767
    117          1           0       12.694758   -1.732229   -0.805894
    118          1           0       12.927647   -0.109837   -1.711608
    119          1           0       13.835607    0.959597    0.447425
    120          1           0       14.045651   -0.584529    1.134850
    121          1           0       15.339648    0.509290   -1.448279
    122          1           0       15.557654   -2.201072   -0.240017
    123          1           0       14.887291   -2.072784   -1.782198
    124          1           0       16.595693   -1.618652   -1.731162
    125          1           0       16.104539    1.436940    0.927593
    126          1           0       16.415627   -0.321594    1.264925
    127          1           0       18.388406   -0.356501   -0.654523
    128          1           0       17.754057    1.016208   -1.110147
    129          1           0       18.158663    2.136577    0.933528
    130          1           0       18.741134    0.903789    1.885548
    131          1           0       20.665019    0.278753    0.065591
    132          1           0       20.127082    3.157172   -0.641710
    133          1           0       21.463192    2.137538   -1.309367
    134          1           0       19.842684    1.824931   -1.916609
    135          1           0       20.896927    1.432184    2.412520
    136          1           0       22.185549    1.812610    0.956158
    137          1           0       20.931236    3.037268    1.425969
 ---------------------------------------------------------------------

 SCF Done:  E(RCAM-B3LYP) =  -2932.61122387     A.U. after   18 cycles

 Excitation energies and oscillator strengths:

 Excited State   1:      Singlet-A      2.0163 eV  614.91 nm  f=0.2754  <S**2>=0.000
     240 -> 243       -0.24675
     241 -> 242        0.65189
 This state for optimization and/or second-order correction.
 Total Energy, E(TD-HF/TD-KS) =  -2932.53712676
 Copying the excited state density for this state as the 1-particle RhoCI density.

 The electronic state is 1-A.
 Alpha  occ. eigenvalues --  -46.84629 -19.26268 -19.25210 -19.21957 -19.21331
 Alpha  occ. eigenvalues --  -19.21197 -14.41970 -14.39631 -14.38955 -14.38909
 Alpha  occ. eigenvalues --  -10.40745 -10.38388 -10.36616 -10.31526 -10.31475
 Alpha  occ. eigenvalues --  -10.30470 -10.30392 -10.29838 -10.29787 -10.29450
 Alpha  occ. eigenvalues --  -10.29382 -10.29299 -10.29017 -10.28896 -10.28610
 Alpha  occ. eigenvalues --  -10.28405 -10.28160 -10.28071 -10.27938 -10.27759
 Alpha  occ. eigenvalues --  -10.27734 -10.27704 -10.27505 -10.27425 -10.27355
 Alpha  occ. eigenvalues --  -10.27149 -10.27088 -10.26717 -10.26617 -10.26610
 Alpha  occ. eigenvalues --  -10.26528 -10.26464 -10.26418 -10.26409 -10.26384
 Alpha  occ. eigenvalues --  -10.26207 -10.26170 -10.26056 -10.26007 -10.25993
 Alpha  occ. eigenvalues --  -10.25906 -10.25846 -10.25765 -10.25707 -10.25706
 Alpha  occ. eigenvalues --  -10.25705 -10.25635 -10.25534 -10.25353 -10.25246
 Alpha  occ. eigenvalues --  -10.25033 -10.24773 -10.24626 -10.24238 -10.23351
 Alpha  occ. eigenvalues --   -3.13631  -1.88346  -1.87883  -1.87787  -1.19054
 Alpha  occ. eigenvalues --   -1.15711  -1.10250  -1.09745  -1.06364  -1.06098
 Alpha  occ. eigenvalues --   -1.05079  -1.03858  -1.02678  -0.94349  -0.91928
 Alpha  occ. eigenvalues --   -0.91232  -0.90101  -0.89607  -0.89103  -0.88839
 Alpha  occ. eigenvalues --   -0.88713  -0.88605  -0.88017  -0.87185  -0.86529
 Alpha  occ. eigenvalues --   -0.85489  -0.84482  -0.84018  -0.83383  -0.82427
 Alpha  occ. eigenvalues --   -0.81821  -0.81324  -0.80500  -0.80040  -0.77882
 Alpha  occ. eigenvalues --   -0.77496  -0.76862  -0.76650  -0.76348  -0.75409
 Alpha  occ. eigenvalues --   -0.75346  -0.75042  -0.74794  -0.73959  -0.72744
 Alpha  occ. eigenvalues --   -0.72182  -0.70288  -0.69801  -0.69430  -0.69102
 Alpha  occ. eigenvalues --   -0.67695  -0.66493  -0.65429  -0.65337  -0.64407
 Alpha  occ. eigenvalues --   -0.64068  -0.63590  -0.63455  -0.62999  -0.61881
 Alpha  occ. eigenvalues --   -0.61305  -0.60863  -0.60837  -0.60057  -0.59470
 Alpha  occ. eigenvalues --   -0.58751  -0.58201  -0.57858  -0.57274  -0.57163
 Alpha  occ. eigenvalues --   -0.56379  -0.55855  -0.55756  -0.55521  -0.54918
 Alpha  occ. eigenvalues --   -0.54747  -0.54384  -0.53985  -0.53585  -0.53579
 Alpha  occ. eigenvalues --   -0.53342  -0.52910  -0.52805  -0.52667  -0.51786
 Alpha  occ. eigenvalues --   -0.51609  -0.51428  -0.51234  -0.50643  -0.50351
 Alpha  occ. eigenvalues --   -0.50326  -0.50003  -0.49889  -0.49731  -0.49544
 Alpha  occ. eigenvalues --   -0.49360  -0.48897  -0.48671  -0.48402  -0.48323
 Alpha  occ. eigenvalues --   -0.48031  -0.47907  -0.47675  -0.47544  -0.47479
 Alpha  occ. eigenvalues --   -0.47351  -0.47117  -0.46737  -0.46468  -0.46354
 Alpha  occ. eigenvalues --   -0.46149  -0.45819  -0.45518  -0.45463  -0.45380
 Alpha  occ. eigenvalues --   -0.45178  -0.44942  -0.44776  -0.44488  -0.44408
 Alpha  occ. eigenvalues --   -0.43994  -0.43915  -0.43571  -0.43402  -0.43337
 Alpha  occ. eigenvalues --   -0.43050  -0.42918  -0.42816  -0.42480  -0.42407
 Alpha  occ. eigenvalues --   -0.42162  -0.41892  -0.41803  -0.41540  -0.41268
 Alpha  occ. eigenvalues --   -0.41153  -0.40832  -0.40767  -0.40699  -0.40316
 Alpha  occ. eigenvalues --   -0.39857  -0.39691  -0.39336  -0.39301  -0.39268
 Alpha  occ. eigenvalues --   -0.38963  -0.38777  -0.38266  -0.38054  -0.37689
 Alpha  occ. eigenvalues --   -0.37645  -0.37319  -0.37132  -0.36656  -0.36575
 Alpha  occ. eigenvalues --   -0.36438  -0.35762  -0.35595  -0.35451  -0.35102
 Alpha  occ. eigenvalues --   -0.35010  -0.34534  -0.34005  -0.33933  -0.33538
 Alpha  occ. eigenvalues --   -0.33278  -0.33051  -0.32305  -0.31270  -0.31196
 Alpha  occ. eigenvalues --   -0.30906  -0.30427  -0.28913  -0.26267  -0.23180
 Alpha  occ. eigenvalues --   -0.21210
 Alpha virt. eigenvalues --   -0.06758  -0.03476   0.00490   0.02472   0.03554
 Alpha virt. eigenvalues --    0.05695   0.06189   0.06522   0.06875   0.08304
 Alpha virt. eigenvalues --    0.09200   0.10439   0.10802   0.11543   0.11957

 Mulliken charges:
               1
     1  Mg   0.821686
     2  C    0.076151
     3  C   -0.219796
     4  C   -0.139533
     5  C   -0.195414
     6  N   -0.616474
     7  C    0.338599
     8  C   -0.187157
     9  C   -0.150857
    10  C    0.299385
    11  C   -0.303242
    12  C   -0.166478
    13  C   -0.262944
    14  C    0.585471
    15  O   -0.416878
    16  O   -0.506439
    17  N   -0.714884
    18  C    0.364380
    19  C   -0.006200
    20  C    0.099274
    21  C    0.234790
    22  C   -0.368026
    23  C   -0.129878
    24  C   -0.255954
    25  N   -0.705197
    26  C    0.316172
    27  C    0.026969
    28  C    0.004102
    29  C    0.291197
    30  C   -0.370052
    31  C   -0.226296
    32  C   -0.292938
    33  N   -0.723442
    34  C    0.285280
    35  C    0.028662
    36  C   -0.014789
    37  C    0.294627
    38  C   -0.374745
    39  C    0.407063
    40  O   -0.466392
    41  C   -0.287123
    42  C    0.600504
    43  O   -0.504429
    44  O   -0.463902
    45  C   -0.067979
    46  C    0.009014
    47  C   -0.117798
    48  C    0.112795
    49  C   -0.347758
    50  C   -0.207692
    51  C   -0.198691
    52  C   -0.181215
    53  C   -0.066662
    54  C   -0.301548
    55  C   -0.144731
    56  C   -0.158202
    57  C   -0.176560
    58  C   -0.055076
    59  C   -0.296950
    60  C   -0.174820
    61  C   -0.181515
    62  C   -0.150952
    63  C   -0.072219
    64  C   -0.297574
    65  C   -0.294356
    66  H    0.063809
    67  H    0.053199
    68  H    0.080783
    69  H    0.121632
    70  H    0.103427
    71  H    0.106877
    72  H    0.115767
    73  H    0.127016
    74  H    0.116289
    75  H    0.085817
    76  H    0.132053
    77  H    0.133828
    78  H    0.122396
    79  H    0.101210
    80  H    0.113063
    81  H    0.084544
    82  H    0.100657
    83  H    0.118361
    84  H    0.122485
    85  H    0.104767
    86  H    0.119790
    87  H    0.120707
    88  H    0.098726
    89  H    0.114907
    90  H    0.097555
    91  H    0.113368
    92  H    0.120347
    93  H    0.141099
    94  H    0.129024
    95  H    0.177771
    96  H    0.113438
    97  H    0.146645
    98  H    0.130546
    99  H    0.132015
   100  H    0.115720
   101  H    0.100305
   102  H    0.121422
   103  H    0.088355
   104  H    0.121216
   105  H    0.106294
   106  H    0.103824
   107  H    0.095547
   108  H    0.085770
   109  H    0.111095
   110  H    0.082665
   111  H    0.081040
   112  H    0.113994
   113  H    0.089911
   114  H    0.069617
   115  H    0.095022
   116  H    0.077074
   117  H    0.086548
   118  H    0.092944
   119  H    0.070823
   120  H    0.051054
   121  H    0.067102
   122  H    0.108243
   123  H    0.103044
   124  H    0.083563
   125  H    0.077204
   126  H    0.089885
   127  H    0.066932
   128  H    0.083476
   129  H    0.094830
   130  H    0.096404
   131  H    0.069997
   132  H    0.114423
   133  H    0.081587
   134  H    0.108839
   135  H    0.089409
   136  H    0.093008
   137  H    0.113539
 Sum of Mulliken charges =   0.00000

 Dipole moment (field-independent basis, Debye):
    X=              1.4561    Y=              3.2531    Z=             -0.6163  Tot=              3.6170
 Quadrupole moment (field-independent basis, Debye-Ang):
   XX=           -349.5623   YY=           -404.0068   ZZ=           -400.2011
   XY=             -5.3219   XZ=              4.8525   YZ=              0.5686

 Normal termination of Gaussian 09 at Thu Jun 27 07:21:41 2019.
