 Gaussian 09, Revision D.01,
 Gaussian 09:  ES64L-G09RevD.01 24-Apr-2013

 -------------------------------------
 # td=(NStates=1) CAM-B3LYP/6-31G(d,p)
 -------------------------------------

 --
 TD
 --
 Symbolic Z-matrix:
 Charge =  0 Multiplicity = 1

                         Standard orientation:
 ---------------------------------------------------------------------
 Center     Atomic      Atomic             Coordinates (Angstroms)
 Number     Number       Type             X           Y           Z
 ---------------------------------------------------------------------
      1         12           0       -7.112425    0.589383    0.080329
      2          6           0       -4.834838   -1.928709    0.545607
      3          6           0       -4.835037    2.894920    1.209768
      4          6           0       -9.452307    3.051300   -0.260634
      5          6           0       -9.556784   -1.783169   -1.018824
      6          7           0       -5.099293    0.483111    0.816237
      7          6           0       -4.316993   -0.681523    0.834162
      8          6           0       -2.930825   -0.375822    1.270473
      9          6           0       -3.007464    1.073691    1.679051
     10          6           0       -4.406343    1.522027    1.204983
     11          6           0       -2.829154    1.397799    3.173604
     12          6           0       -1.930365   -0.580097    0.131889
     13          6           0       -0.488126   -0.392842    0.548614
     14          6           0        0.549609   -0.818939   -0.598353
     15          8           0        0.235677   -1.117603   -1.735735
     16          8           0        1.772283   -0.594610   -0.050076
     17          7           0       -7.054548    2.558001    0.411926
     18          6           0       -6.028333    3.412447    0.880199
     19          6           0       -6.508511    4.775404    0.885276
     20          6           0       -7.862342    4.786266    0.514856
     21          6           0       -8.203328    3.363710    0.180123
     22          6           0       -5.674615    5.907332    1.307313
     23          6           0       -8.778084    5.933807    0.389069
     24          6           0       -8.374331    7.156585   -0.037846
     25          7           0       -9.090262    0.626857   -0.478593
     26          6           0       -9.870330    1.775447   -0.539721
     27          6           0      -11.202432    1.456094   -1.107126
     28          6           0      -11.155259    0.072055   -1.372078
     29          6           0       -9.961589   -0.427023   -0.858090
     30          6           0      -12.374154    2.407394   -1.382375
     31          6           0      -12.223606   -0.793932   -1.937143
     32          6           0      -12.257533   -0.932974   -3.514508
     33          7           0       -7.230205   -1.345691   -0.217041
     34          6           0       -8.241129   -2.249550   -0.642079
     35          6           0       -7.781914   -3.583546   -0.525128
     36          6           0       -6.486817   -3.555897   -0.060226
     37          6           0       -6.179868   -2.145704    0.111641
     38          6           0       -8.532758   -4.817707   -0.995062
     39          6           0       -5.335170   -4.326298    0.215583
     40          8           0       -5.124955   -5.553827    0.252204
     41          6           0       -4.158260   -3.314304    0.564331
     42          6           0       -3.458137   -3.660732    1.889685
     43          8           0       -3.667629   -3.214606    2.974148
     44          8           0       -2.598405   -4.631979    1.699783
     45          6           0       -2.057088   -5.224915    2.902203
     46          6           0        2.839135   -0.660921   -1.105963
     47          6           0        4.145593   -0.584443   -0.417302
     48          6           0        5.157216    0.337949   -0.891861
     49          6           0        5.128522    1.148231   -2.128889
     50          6           0        6.405922    0.383636   -0.113444
     51          6           0        7.593331   -0.197185   -0.797148
     52          6           0        8.911752   -0.010212   -0.009768
     53          6           0       10.232872   -0.599013   -0.763104
     54          6           0       10.078987   -2.014281   -1.201058
     55          6           0       11.412006   -0.325619    0.048497
     56          6           0       12.757363   -0.422003   -0.588009
     57          6           0       13.960515   -0.041663    0.252328
     58          6           0       15.242465   -0.075110   -0.548161
     59          6           0       15.669685   -1.522013   -1.012393
     60          6           0       16.306408    0.457731    0.515469
     61          6           0       17.686299    0.676777   -0.175204
     62          6           0       18.747782    1.286408    0.694622
     63          6           0       20.215844    1.353246   -0.016275
     64          6           0       20.233098    2.181394   -1.218900
     65          6           0       21.159560    1.834212    1.018892
     66          1           0       -3.968800    3.508409    1.516589
     67          1           0      -10.276642    3.586067   -0.344224
     68          1           0      -10.308718   -2.507683   -1.274247
     69          1           0       -2.683955   -1.068327    2.111408
     70          1           0       -2.267934    1.681555    1.126304
     71          1           0       -1.952555    0.956392    3.452815
     72          1           0       -2.832963    2.358664    3.718026
     73          1           0       -3.630851    0.708372    3.723353
     74          1           0       -2.088673   -1.594268   -0.163904
     75          1           0       -2.285828    0.044119   -0.729105
     76          1           0       -0.102790    0.569835    0.945115
     77          1           0       -0.314074   -1.049856    1.347591
     78          1           0       -5.366965    6.263954    0.305307
     79          1           0       -6.357195    6.737482    1.631417
     80          1           0       -4.878767    5.732278    1.985530
     81          1           0       -9.861134    5.667862    0.392662
     82          1           0       -9.187555    7.971636    0.140298
     83          1           0       -7.252083    7.510143   -0.287068
     84          1           0      -12.214411    3.051316   -2.248453
     85          1           0      -13.324660    1.875042   -1.437174
     86          1           0      -12.436080    3.160889   -0.650631
     87          1           0      -12.366353   -1.660807   -1.458141
     88          1           0      -13.182534   -0.269160   -1.664929
     89          1           0      -13.112006   -1.474745   -3.815725
     90          1           0      -12.184275   -0.038174   -3.995807
     91          1           0      -11.192177   -1.427807   -3.643545
     92          1           0       -9.153946   -4.607371   -1.981326
     93          1           0       -7.867660   -5.524090   -1.002671
     94          1           0       -9.205212   -5.285907   -0.230400
     95          1           0       -3.257875   -3.604529   -0.111809
     96          1           0       -1.366654   -4.537703    3.417551
     97          1           0       -2.900051   -5.803052    3.477294
     98          1           0       -1.244387   -5.785832    2.390194
     99          1           0        2.690076   -1.608412   -1.545999
    100          1           0        2.569697   -0.111117   -1.898113
    101          1           0        4.308987   -1.120701    0.550518
    102          1           0        4.067492    1.081341   -2.463673
    103          1           0        5.340195    2.171831   -2.003381
    104          1           0        5.833256    0.785376   -2.955088
    105          1           0        6.675201    1.316459    0.179681
    106          1           0        6.433884   -0.223499    0.826597
    107          1           0        7.399468   -1.399548   -1.047128
    108          1           0        7.810464    0.304933   -1.871878
    109          1           0        9.172256    1.282502    0.081351
    110          1           0        8.924534   -0.546380    0.825250
    111          1           0       10.242552    0.027839   -1.616262
    112          1           0        9.273839   -2.327536   -1.774605
    113          1           0       10.756796   -2.316480   -1.970305
    114          1           0       10.277152   -2.661956   -0.548719
    115          1           0       11.502649    0.700832    0.096449
    116          1           0       11.363923   -0.737406    1.186584
    117          1           0       12.769927   -1.560616   -0.809095
    118          1           0       12.646619   -0.059787   -1.637527
    119          1           0       13.757570    1.059749    0.618939
    120          1           0       13.937682   -0.807901    0.964801
    121          1           0       15.285228    0.469623   -1.491254
    122          1           0       15.624102   -2.300356   -0.273104
    123          1           0       15.229876   -1.743033   -1.867364
    124          1           0       16.593205   -1.809018   -1.399557
    125          1           0       16.080178    1.347084    0.993079
    126          1           0       16.385994   -0.273495    1.303701
    127          1           0       17.926923   -0.271509   -0.428955
    128          1           0       17.517036    1.403447   -1.076091
    129          1           0       18.487782    2.219852    1.062887
    130          1           0       18.811524    0.602735    1.497137
    131          1           0       20.436704    0.319849   -0.441640
    132          1           0       20.061415    3.278542   -0.792529
    133          1           0       21.388341    2.167164   -1.523121
    134          1           0       19.709464    1.952171   -2.040267
    135          1           0       21.230961    1.428844    1.981626
    136          1           0       22.196284    1.884597    0.682690
    137          1           0       20.799152    2.903423    1.378450
 ---------------------------------------------------------------------

 SCF Done:  E(RCAM-B3LYP) =  -2932.70048503     A.U. after   18 cycles

 Excitation energies and oscillator strengths:

 Excited State   1:      Singlet-A      2.1057 eV  588.79 nm  f=0.2273  <S**2>=0.000
     240 -> 243       -0.25082
     241 -> 242        0.65022
 This state for optimization and/or second-order correction.
 Total Energy, E(TD-HF/TD-KS) =  -2932.62310030
 Copying the excited state density for this state as the 1-particle RhoCI density.

 The electronic state is 1-A.
 Alpha  occ. eigenvalues --  -46.82972 -19.26624 -19.25730 -19.21840 -19.19694
 Alpha  occ. eigenvalues --  -19.18995 -14.41909 -14.39577 -14.39183 -14.38514
 Alpha  occ. eigenvalues --  -10.39674 -10.37888 -10.34334 -10.31956 -10.31543
 Alpha  occ. eigenvalues --  -10.30798 -10.30282 -10.30187 -10.30130 -10.29108
 Alpha  occ. eigenvalues --  -10.28701 -10.28684 -10.28657 -10.28626 -10.28582
 Alpha  occ. eigenvalues --  -10.28293 -10.28278 -10.28033 -10.27930 -10.27741
 Alpha  occ. eigenvalues --  -10.27631 -10.27535 -10.27486 -10.27430 -10.27429
 Alpha  occ. eigenvalues --  -10.27186 -10.26971 -10.26620 -10.26565 -10.26549
 Alpha  occ. eigenvalues --  -10.26382 -10.26334 -10.26081 -10.26031 -10.25976
 Alpha  occ. eigenvalues --  -10.25926 -10.25765 -10.25626 -10.25624 -10.25379
 Alpha  occ. eigenvalues --  -10.25349 -10.25203 -10.25003 -10.24796 -10.24769
 Alpha  occ. eigenvalues --  -10.24757 -10.24646 -10.24504 -10.24325 -10.24239
 Alpha  occ. eigenvalues --  -10.23738 -10.23647 -10.23359 -10.22658 -10.21652
 Alpha  occ. eigenvalues --   -3.12217  -1.86905  -1.86505  -1.86373  -1.19275
 Alpha  occ. eigenvalues --   -1.17211  -1.09470  -1.09034  -1.08310  -1.04930
 Alpha  occ. eigenvalues --   -1.02565  -1.01548  -1.00427  -0.91942  -0.91811
 Alpha  occ. eigenvalues --   -0.91122  -0.90531  -0.89871  -0.89450  -0.88905
 Alpha  occ. eigenvalues --   -0.88605  -0.87629  -0.87383  -0.86565  -0.86343
 Alpha  occ. eigenvalues --   -0.85140  -0.84512  -0.83790  -0.83374  -0.82679
 Alpha  occ. eigenvalues --   -0.82193  -0.81488  -0.81387  -0.80864  -0.78297
 Alpha  occ. eigenvalues --   -0.77982  -0.77854  -0.77110  -0.77035  -0.76059
 Alpha  occ. eigenvalues --   -0.76029  -0.75157  -0.74977  -0.73264  -0.72780
 Alpha  occ. eigenvalues --   -0.71775  -0.70895  -0.70126  -0.69212  -0.68238
 Alpha  occ. eigenvalues --   -0.66596  -0.65874  -0.65503  -0.65062  -0.64642
 Alpha  occ. eigenvalues --   -0.64153  -0.63690  -0.63570  -0.62991  -0.62594
 Alpha  occ. eigenvalues --   -0.61370  -0.60822  -0.60108  -0.59973  -0.59428
 Alpha  occ. eigenvalues --   -0.58114  -0.58051  -0.57345  -0.56677  -0.56532
 Alpha  occ. eigenvalues --   -0.56345  -0.55953  -0.55626  -0.55153  -0.55041
 Alpha  occ. eigenvalues --   -0.54831  -0.54544  -0.54392  -0.53845  -0.53314
 Alpha  occ. eigenvalues --   -0.52646  -0.52606  -0.52412  -0.51890  -0.51837
 Alpha  occ. eigenvalues --   -0.51543  -0.51516  -0.51076  -0.51002  -0.50493
 Alpha  occ. eigenvalues --   -0.50327  -0.50272  -0.50022  -0.49481  -0.49376
 Alpha  occ. eigenvalues --   -0.49216  -0.48738  -0.48600  -0.48408  -0.48182
 Alpha  occ. eigenvalues --   -0.48021  -0.47850  -0.47751  -0.47619  -0.47250
 Alpha  occ. eigenvalues --   -0.47026  -0.46964  -0.46720  -0.46575  -0.46376
 Alpha  occ. eigenvalues --   -0.46054  -0.45706  -0.45441  -0.45283  -0.45238
 Alpha  occ. eigenvalues --   -0.45161  -0.45078  -0.44999  -0.44644  -0.44365
 Alpha  occ. eigenvalues --   -0.44212  -0.44113  -0.43676  -0.43608  -0.43262
 Alpha  occ. eigenvalues --   -0.43047  -0.42846  -0.42651  -0.42395  -0.42329
 Alpha  occ. eigenvalues --   -0.41958  -0.41785  -0.41708  -0.41644  -0.41466
 Alpha  occ. eigenvalues --   -0.41135  -0.40746  -0.40734  -0.40616  -0.40585
 Alpha  occ. eigenvalues --   -0.40447  -0.40222  -0.40204  -0.39900  -0.39393
 Alpha  occ. eigenvalues --   -0.39137  -0.38981  -0.38892  -0.38378  -0.38005
 Alpha  occ. eigenvalues --   -0.37942  -0.37814  -0.37224  -0.36862  -0.36765
 Alpha  occ. eigenvalues --   -0.36726  -0.36437  -0.36098  -0.35996  -0.35830
 Alpha  occ. eigenvalues --   -0.35252  -0.35035  -0.33826  -0.33232  -0.33041
 Alpha  occ. eigenvalues --   -0.32985  -0.32238  -0.31742  -0.30691  -0.29458
 Alpha  occ. eigenvalues --   -0.29328  -0.28546  -0.27504  -0.27007  -0.23447
 Alpha  occ. eigenvalues --   -0.20979
 Alpha virt. eigenvalues --   -0.05987  -0.03189   0.01265   0.03765   0.03843
 Alpha virt. eigenvalues --    0.06355   0.06571   0.06747   0.07520   0.07884
 Alpha virt. eigenvalues --    0.08463   0.10912   0.10964   0.11910   0.12288

 Mulliken charges:
               1
     1  Mg   0.803373
     2  C    0.094342
     3  C   -0.242272
     4  C   -0.112532
     5  C   -0.157612
     6  N   -0.631688
     7  C    0.280761
     8  C   -0.175237
     9  C   -0.149281
    10  C    0.361632
    11  C   -0.318619
    12  C   -0.164726
    13  C   -0.271757
    14  C    0.608041
    15  O   -0.470541
    16  O   -0.489067
    17  N   -0.740540
    18  C    0.378525
    19  C    0.010460
    20  C    0.005587
    21  C    0.332026
    22  C   -0.378721
    23  C   -0.076348
    24  C   -0.242549
    25  N   -0.689476
    26  C    0.280253
    27  C   -0.010208
    28  C    0.042210
    29  C    0.259979
    30  C   -0.377130
    31  C   -0.258057
    32  C   -0.301343
    33  N   -0.731446
    34  C    0.240643
    35  C    0.002258
    36  C    0.059630
    37  C    0.275223
    38  C   -0.357276
    39  C    0.348054
    40  O   -0.496110
    41  C   -0.331370
    42  C    0.606403
    43  O   -0.473842
    44  O   -0.436928
    45  C   -0.083832
    46  C    0.004982
    47  C   -0.140768
    48  C    0.110612
    49  C   -0.363675
    50  C   -0.207280
    51  C   -0.165333
    52  C   -0.151763
    53  C   -0.069196
    54  C   -0.320812
    55  C   -0.152832
    56  C   -0.208443
    57  C   -0.143869
    58  C   -0.059946
    59  C   -0.334759
    60  C   -0.184313
    61  C   -0.177185
    62  C   -0.173187
    63  C   -0.053596
    64  C   -0.269752
    65  C   -0.302128
    66  H    0.079158
    67  H    0.052610
    68  H    0.105153
    69  H    0.133247
    70  H    0.108694
    71  H    0.120806
    72  H    0.119129
    73  H    0.105311
    74  H    0.120366
    75  H    0.112647
    76  H    0.133272
    77  H    0.134646
    78  H    0.130868
    79  H    0.123761
    80  H    0.123795
    81  H    0.105799
    82  H    0.099424
    83  H    0.105872
    84  H    0.124741
    85  H    0.121229
    86  H    0.120916
    87  H    0.115937
    88  H    0.086514
    89  H    0.112641
    90  H    0.125271
    91  H    0.092170
    92  H    0.107245
    93  H    0.149603
    94  H    0.118240
    95  H    0.159578
    96  H    0.126506
    97  H    0.144672
    98  H    0.122589
    99  H    0.135198
   100  H    0.135645
   101  H    0.110543
   102  H    0.105285
   103  H    0.129818
   104  H    0.127290
   105  H    0.108281
   106  H    0.094868
   107  H    0.074350
   108  H    0.062302
   109  H    0.046857
   110  H    0.104360
   111  H    0.087149
   112  H    0.104500
   113  H    0.098969
   114  H    0.111413
   115  H    0.098391
   116  H    0.060872
   117  H    0.072253
   118  H    0.083473
   119  H    0.082847
   120  H    0.112170
   121  H    0.090936
   122  H    0.099263
   123  H    0.110172
   124  H    0.102919
   125  H    0.090153
   126  H    0.086684
   127  H    0.103434
   128  H    0.067929
   129  H    0.089128
   130  H    0.089885
   131  H    0.073994
   132  H    0.074936
   133  H    0.073572
   134  H    0.116014
   135  H    0.111497
   136  H    0.096359
   137  H    0.076240
 Sum of Mulliken charges =   0.00000

 Dipole moment (field-independent basis, Debye):
    X=              3.0063    Y=              5.0792    Z=              0.0384  Tot=              5.9024
 Quadrupole moment (field-independent basis, Debye-Ang):
   XX=           -343.6748   YY=           -392.0252   ZZ=           -397.1886
   XY=            -37.0514   XZ=              9.8450   YZ=             -1.0795

 Normal termination of Gaussian 09 at Fri Jun 28 06:04:40 2019.
