 Gaussian 09, Revision D.01,
 Gaussian 09:  ES64L-G09RevD.01 24-Apr-2013

 -------------------------------------
 # td=(NStates=1) CAM-B3LYP/6-31G(d,p)
 -------------------------------------

 --
 TD
 --
 Symbolic Z-matrix:
 Charge =  0 Multiplicity = 1

                         Standard orientation:
 ---------------------------------------------------------------------
 Center     Atomic      Atomic             Coordinates (Angstroms)
 Number     Number       Type             X           Y           Z
 ---------------------------------------------------------------------
      1         12           0       -7.180987    0.547355    0.102423
      2          6           0       -4.826467   -1.996722    0.491199
      3          6           0       -4.876643    2.781342    1.182379
      4          6           0       -9.414256    3.026944   -0.362936
      5          6           0       -9.530463   -1.704921   -0.980461
      6          7           0       -5.072815    0.446221    0.721794
      7          6           0       -4.367878   -0.657963    0.780272
      8          6           0       -2.905065   -0.420883    1.278961
      9          6           0       -3.005363    1.095270    1.709174
     10          6           0       -4.423435    1.489118    1.307954
     11          6           0       -2.992240    1.107839    3.269957
     12          6           0       -1.930484   -0.682681    0.150308
     13          6           0       -0.463961   -0.336280    0.656824
     14          6           0        0.589150   -0.568982   -0.551989
     15          8           0        0.304783   -0.951314   -1.669170
     16          8           0        1.881846   -0.185371   -0.216884
     17          7           0       -7.223324    2.546875    0.441013
     18          6           0       -6.108814    3.257011    0.916490
     19          6           0       -6.426742    4.733190    0.860859
     20          6           0       -7.707312    4.755773    0.494899
     21          6           0       -8.237248    3.468466    0.116332
     22          6           0       -5.583174    5.864150    1.435066
     23          6           0       -8.576986    5.993198    0.222417
     24          6           0       -8.115114    7.266844    0.170484
     25          7           0       -9.165941    0.633047   -0.578078
     26          6           0       -9.925645    1.737696   -0.692499
     27          6           0      -11.259083    1.377850   -1.077018
     28          6           0      -11.359933    0.048825   -1.164007
     29          6           0      -10.039999   -0.410413   -0.881057
     30          6           0      -12.291249    2.452655   -1.243885
     31          6           0      -12.451341   -0.818652   -1.814516
     32          6           0      -12.225132   -1.038631   -3.295493
     33          7           0       -7.156358   -1.438501   -0.346212
     34          6           0       -8.217320   -2.202794   -0.728370
     35          6           0       -7.742364   -3.624074   -0.667357
     36          6           0       -6.425613   -3.585154   -0.161772
     37          6           0       -6.160294   -2.192156   -0.004533
     38          6           0       -8.613061   -4.786357   -0.897475
     39          6           0       -5.225786   -4.378752    0.144638
     40          8           0       -5.081220   -5.604589    0.210283
     41          6           0       -4.131457   -3.327840    0.531714
     42          6           0       -3.544145   -3.710290    1.903120
     43          8           0       -3.845051   -3.118505    2.930886
     44          8           0       -2.714099   -4.748839    1.789001
     45          6           0       -2.220582   -5.259500    2.992621
     46          6           0        2.840359   -0.424166   -1.185788
     47          6           0        4.143598   -0.366139   -0.608604
     48          6           0        5.118546    0.378390   -1.000485
     49          6           0        5.031870    1.232209   -2.131244
     50          6           0        6.415061    0.420452   -0.325874
     51          6           0        7.610815    0.007159   -1.006433
     52          6           0        8.912796   -0.022064   -0.162935
     53          6           0       10.191190   -0.469790   -0.928157
     54          6           0       10.127816   -1.887747   -1.519133
     55          6           0       11.413137   -0.232098    0.088869
     56          6           0       12.827807   -0.472534   -0.573389
     57          6           0       13.963318   -0.115226    0.255599
     58          6           0       15.331195   -0.296420   -0.410701
     59          6           0       15.679371   -1.771098   -0.769942
     60          6           0       16.409838    0.340944    0.466005
     61          6           0       17.808413    0.404836   -0.223272
     62          6           0       18.804201    1.147070    0.735890
     63          6           0       20.193054    1.384663    0.136659
     64          6           0       20.369392    2.171026   -1.122144
     65          6           0       21.151795    1.812100    1.321381
     66          1           0       -4.124721    3.554406    1.410516
     67          1           0      -10.153651    3.924595   -0.576069
     68          1           0      -10.190440   -2.380029   -1.273618
     69          1           0       -2.737678   -1.076488    2.046658
     70          1           0       -2.299621    1.712392    1.318287
     71          1           0       -1.873088    0.918340    3.564398
     72          1           0       -2.963880    2.207629    3.622842
     73          1           0       -3.688996    0.348017    3.734164
     74          1           0       -2.013083   -1.727346   -0.195282
     75          1           0       -2.136477   -0.206465   -0.950729
     76          1           0       -0.431400    0.783263    1.046304
     77          1           0       -0.247973   -0.996309    1.434524
     78          1           0       -4.818210    6.441876    0.684699
     79          1           0       -6.194654    6.548225    1.887608
     80          1           0       -4.864125    5.547839    2.374742
     81          1           0       -9.718071    5.741759    0.105677
     82          1           0       -8.829441    8.080120   -0.029257
     83          1           0       -7.178375    7.477017    0.284577
     84          1           0      -12.167764    3.469930   -1.732544
     85          1           0      -13.224253    2.050500   -1.557092
     86          1           0      -12.584727    2.683339   -0.067720
     87          1           0      -12.703637   -1.780757   -1.208294
     88          1           0      -13.284026   -0.130396   -1.937528
     89          1           0      -13.022621   -1.612001   -3.750940
     90          1           0      -12.377513   -0.146299   -3.923483
     91          1           0      -11.271161   -1.342402   -3.418516
     92          1           0       -8.602793   -5.053098   -2.079014
     93          1           0       -7.915762   -5.566814   -0.663646
     94          1           0       -9.471502   -4.723568   -0.227500
     95          1           0       -3.366359   -3.324428   -0.178514
     96          1           0       -1.765294   -4.531126    3.668180
     97          1           0       -2.802365   -5.720996    3.798952
     98          1           0       -1.537606   -6.045690    2.732049
     99          1           0        2.501579   -1.329001   -1.773851
    100          1           0        2.588041    0.301886   -2.056404
    101          1           0        4.223713   -0.874962    0.408352
    102          1           0        4.093089    1.441083   -2.449869
    103          1           0        5.418931    2.262716   -1.928857
    104          1           0        5.579571    0.838403   -2.945003
    105          1           0        6.580841    1.439110    0.303952
    106          1           0        6.314727   -0.124139    0.412121
    107          1           0        7.329418   -0.955069   -1.499375
    108          1           0        7.731796    0.689757   -1.891532
    109          1           0        9.153355    0.985148    0.237289
    110          1           0        8.698208   -0.682338    0.597159
    111          1           0       10.117819    0.252141   -1.697207
    112          1           0        9.409173   -1.803056   -2.365588
    113          1           0       11.107596   -2.008835   -2.186700
    114          1           0       10.064958   -2.665200   -0.622829
    115          1           0       11.312463    0.902314    0.384135
    116          1           0       11.226270   -0.703027    1.038867
    117          1           0       12.852453   -1.537795   -0.805889
    118          1           0       13.014695    0.024800   -1.633774
    119          1           0       14.003951    1.024932    0.654112
    120          1           0       13.937598   -0.777574    1.130616
    121          1           0       15.454601    0.170457   -1.465842
    122          1           0       15.470010   -2.554813    0.194839
    123          1           0       14.841290   -2.109468   -1.447133
    124          1           0       16.553813   -2.049965   -1.455510
    125          1           0       16.148614    1.393244    0.553556
    126          1           0       16.411245   -0.231720    1.426879
    127          1           0       18.266055   -0.649496   -0.388666
    128          1           0       17.545643    0.887114   -1.153187
    129          1           0       18.289603    2.061545    0.962634
    130          1           0       18.932145    0.479579    1.599312
    131          1           0       20.496235    0.503886   -0.368007
    132          1           0       20.051941    3.165410   -0.925869
    133          1           0       21.381783    2.361818   -1.308157
    134          1           0       19.852222    1.715993   -2.006132
    135          1           0       20.805548    1.256894    2.163833
    136          1           0       22.336191    1.956416    0.994089
    137          1           0       20.946495    2.835808    1.345971
 ---------------------------------------------------------------------

 SCF Done:  E(RCAM-B3LYP) =  -2932.71034343     A.U. after   18 cycles

 Excitation energies and oscillator strengths:

 Excited State   1:      Singlet-A      2.1290 eV  582.35 nm  f=0.1948  <S**2>=0.000
     240 -> 242       -0.15240
     240 -> 243       -0.27920
     241 -> 242        0.61257
     241 -> 243       -0.13051
 This state for optimization and/or second-order correction.
 Total Energy, E(TD-HF/TD-KS) =  -2932.63210355
 Copying the excited state density for this state as the 1-particle RhoCI density.

 The electronic state is 1-A.
 Alpha  occ. eigenvalues --  -46.84853 -19.28095 -19.26060 -19.22302 -19.21440
 Alpha  occ. eigenvalues --  -19.20407 -14.41784 -14.39277 -14.39103 -14.39066
 Alpha  occ. eigenvalues --  -10.40424 -10.39946 -10.35509 -10.30996 -10.30959
 Alpha  occ. eigenvalues --  -10.30947 -10.30678 -10.30288 -10.29548 -10.29151
 Alpha  occ. eigenvalues --  -10.28960 -10.28622 -10.28499 -10.28414 -10.28299
 Alpha  occ. eigenvalues --  -10.28281 -10.28249 -10.28030 -10.27989 -10.27612
 Alpha  occ. eigenvalues --  -10.27602 -10.27469 -10.27372 -10.27340 -10.27152
 Alpha  occ. eigenvalues --  -10.27065 -10.26891 -10.26767 -10.26726 -10.26626
 Alpha  occ. eigenvalues --  -10.26556 -10.26442 -10.26385 -10.26157 -10.26020
 Alpha  occ. eigenvalues --  -10.25863 -10.25831 -10.25743 -10.25701 -10.25513
 Alpha  occ. eigenvalues --  -10.25367 -10.25288 -10.25251 -10.25240 -10.24949
 Alpha  occ. eigenvalues --  -10.24932 -10.24893 -10.24765 -10.24735 -10.24617
 Alpha  occ. eigenvalues --  -10.24556 -10.24026 -10.23565 -10.23385 -10.23303
 Alpha  occ. eigenvalues --   -3.13748  -1.88470  -1.87983  -1.87912  -1.19847
 Alpha  occ. eigenvalues --   -1.18394  -1.10147  -1.10016  -1.09865  -1.05303
 Alpha  occ. eigenvalues --   -1.04392  -1.03432  -1.01790  -0.93561  -0.92406
 Alpha  occ. eigenvalues --   -0.90555  -0.89895  -0.89462  -0.89337  -0.88844
 Alpha  occ. eigenvalues --   -0.88563  -0.88339  -0.87373  -0.87075  -0.86055
 Alpha  occ. eigenvalues --   -0.85287  -0.84163  -0.83905  -0.83470  -0.82755
 Alpha  occ. eigenvalues --   -0.81982  -0.81650  -0.80407  -0.80059  -0.78300
 Alpha  occ. eigenvalues --   -0.77864  -0.77549  -0.76960  -0.76642  -0.76306
 Alpha  occ. eigenvalues --   -0.74927  -0.74533  -0.74267  -0.73368  -0.71887
 Alpha  occ. eigenvalues --   -0.71687  -0.70176  -0.69786  -0.68864  -0.68502
 Alpha  occ. eigenvalues --   -0.67138  -0.66819  -0.66082  -0.65540  -0.64437
 Alpha  occ. eigenvalues --   -0.63980  -0.63703  -0.63242  -0.63119  -0.62929
 Alpha  occ. eigenvalues --   -0.61330  -0.61153  -0.61042  -0.59958  -0.59472
 Alpha  occ. eigenvalues --   -0.58716  -0.58534  -0.58156  -0.57855  -0.56876
 Alpha  occ. eigenvalues --   -0.56437  -0.55850  -0.55501  -0.55158  -0.55118
 Alpha  occ. eigenvalues --   -0.55081  -0.54673  -0.54063  -0.53834  -0.53258
 Alpha  occ. eigenvalues --   -0.53062  -0.53026  -0.52604  -0.51787  -0.51538
 Alpha  occ. eigenvalues --   -0.51353  -0.51251  -0.50977  -0.50829  -0.50718
 Alpha  occ. eigenvalues --   -0.50605  -0.50325  -0.50185  -0.49976  -0.49803
 Alpha  occ. eigenvalues --   -0.49673  -0.49471  -0.49016  -0.48783  -0.48416
 Alpha  occ. eigenvalues --   -0.48189  -0.47926  -0.47738  -0.47623  -0.47292
 Alpha  occ. eigenvalues --   -0.47175  -0.46688  -0.46630  -0.46397  -0.46163
 Alpha  occ. eigenvalues --   -0.46023  -0.45549  -0.45261  -0.45106  -0.44906
 Alpha  occ. eigenvalues --   -0.44767  -0.44698  -0.44461  -0.44297  -0.44089
 Alpha  occ. eigenvalues --   -0.43865  -0.43652  -0.43546  -0.43347  -0.43091
 Alpha  occ. eigenvalues --   -0.43042  -0.42845  -0.42676  -0.42541  -0.42491
 Alpha  occ. eigenvalues --   -0.42060  -0.41953  -0.41839  -0.41735  -0.41523
 Alpha  occ. eigenvalues --   -0.41449  -0.41215  -0.40643  -0.40537  -0.39860
 Alpha  occ. eigenvalues --   -0.39828  -0.39606  -0.39176  -0.39114  -0.39036
 Alpha  occ. eigenvalues --   -0.38720  -0.38498  -0.38460  -0.38082  -0.37731
 Alpha  occ. eigenvalues --   -0.37317  -0.37107  -0.37067  -0.36746  -0.36414
 Alpha  occ. eigenvalues --   -0.36339  -0.36264  -0.36081  -0.35982  -0.35469
 Alpha  occ. eigenvalues --   -0.35421  -0.35089  -0.34667  -0.34577  -0.34190
 Alpha  occ. eigenvalues --   -0.33470  -0.32906  -0.32398  -0.30739  -0.30204
 Alpha  occ. eigenvalues --   -0.29800  -0.29336  -0.28534  -0.28185  -0.22915
 Alpha  occ. eigenvalues --   -0.20902
 Alpha virt. eigenvalues --   -0.05674  -0.03327   0.01402   0.03921   0.05497
 Alpha virt. eigenvalues --    0.05721   0.06158   0.06738   0.06995   0.07358
 Alpha virt. eigenvalues --    0.08551   0.10764   0.11466   0.11975   0.12173

 Mulliken charges:
               1
     1  Mg   0.817977
     2  C    0.072133
     3  C   -0.193130
     4  C   -0.207457
     5  C   -0.160160
     6  N   -0.607735
     7  C    0.294520
     8  C   -0.130422
     9  C   -0.149774
    10  C    0.316197
    11  C   -0.311823
    12  C   -0.189296
    13  C   -0.259434
    14  C    0.594745
    15  O   -0.452527
    16  O   -0.469511
    17  N   -0.737169
    18  C    0.315574
    19  C    0.020015
    20  C    0.016902
    21  C    0.344807
    22  C   -0.377051
    23  C   -0.068389
    24  C   -0.234760
    25  N   -0.684001
    26  C    0.330785
    27  C    0.031519
    28  C    0.029996
    29  C    0.266640
    30  C   -0.381404
    31  C   -0.235373
    32  C   -0.307350
    33  N   -0.735647
    34  C    0.274965
    35  C   -0.031807
    36  C    0.029707
    37  C    0.310413
    38  C   -0.389235
    39  C    0.368089
    40  O   -0.471453
    41  C   -0.327502
    42  C    0.632076
    43  O   -0.479236
    44  O   -0.416065
    45  C   -0.101951
    46  C   -0.005219
    47  C   -0.132507
    48  C    0.141565
    49  C   -0.366454
    50  C   -0.181056
    51  C   -0.192487
    52  C   -0.175365
    53  C   -0.061481
    54  C   -0.301060
    55  C   -0.184201
    56  C   -0.172080
    57  C   -0.151113
    58  C   -0.059192
    59  C   -0.308065
    60  C   -0.162036
    61  C   -0.193617
    62  C   -0.166207
    63  C   -0.058784
    64  C   -0.324722
    65  C   -0.310796
    66  H    0.080935
    67  H    0.074643
    68  H    0.070856
    69  H    0.130894
    70  H    0.107433
    71  H    0.088143
    72  H    0.100861
    73  H    0.143051
    74  H    0.115180
    75  H    0.110830
    76  H    0.124168
    77  H    0.146140
    78  H    0.106457
    79  H    0.143421
    80  H    0.097309
    81  H    0.086913
    82  H    0.102111
    83  H    0.097890
    84  H    0.125581
    85  H    0.114829
    86  H    0.097882
    87  H    0.103207
    88  H    0.107719
    89  H    0.106605
    90  H    0.104880
    91  H    0.120693
    92  H    0.115762
    93  H    0.153203
    94  H    0.136791
    95  H    0.167646
    96  H    0.120904
    97  H    0.129245
    98  H    0.125248
    99  H    0.125274
   100  H    0.101832
   101  H    0.086168
   102  H    0.111461
   103  H    0.104871
   104  H    0.125387
   105  H    0.064230
   106  H    0.094217
   107  H    0.094271
   108  H    0.079375
   109  H    0.092504
   110  H    0.094442
   111  H    0.093890
   112  H    0.111164
   113  H    0.088566
   114  H    0.098008
   115  H    0.072832
   116  H    0.099474
   117  H    0.107176
   118  H    0.075014
   119  H    0.072364
   120  H    0.092781
   121  H    0.068535
   122  H    0.064235
   123  H    0.094405
   124  H    0.108707
   125  H    0.089728
   126  H    0.085758
   127  H    0.084078
   128  H    0.094414
   129  H    0.090727
   130  H    0.096105
   131  H    0.090230
   132  H    0.089837
   133  H    0.109392
   134  H    0.100741
   135  H    0.108886
   136  H    0.074265
   137  H    0.114705
 Sum of Mulliken charges =   0.00000

 Dipole moment (field-independent basis, Debye):
    X=              0.9207    Y=              4.3033    Z=              0.6731  Tot=              4.4519
 Quadrupole moment (field-independent basis, Debye-Ang):
   XX=           -366.0021   YY=           -394.1676   ZZ=           -394.6165
   XY=            -20.1324   XZ=              6.5383   YZ=             -3.0526

 Normal termination of Gaussian 09 at Mon Jul  1 01:30:18 2019.
