 Gaussian 09, Revision D.01,
 Gaussian 09:  ES64L-G09RevD.01 24-Apr-2013

 -------------------------------------
 # td=(NStates=1) CAM-B3LYP/6-31G(d,p)
 -------------------------------------

 --
 TD
 --
 Symbolic Z-matrix:
 Charge =  0 Multiplicity = 1

                         Standard orientation:
 ---------------------------------------------------------------------
 Center     Atomic      Atomic             Coordinates (Angstroms)
 Number     Number       Type             X           Y           Z
 ---------------------------------------------------------------------
      1         12           0       -7.195083    0.610232    0.143306
      2          6           0       -4.803406   -1.943203    0.427370
      3          6           0       -4.858345    2.890842    1.146252
      4          6           0       -9.427167    3.044673   -0.309985
      5          6           0       -9.502831   -1.836563   -0.845344
      6          7           0       -5.140272    0.494822    0.719263
      7          6           0       -4.346567   -0.624639    0.779852
      8          6           0       -2.915026   -0.308526    1.329638
      9          6           0       -3.016093    1.248183    1.673062
     10          6           0       -4.406152    1.574441    1.123645
     11          6           0       -3.031593    1.329075    3.215798
     12          6           0       -1.831145   -0.542533    0.119667
     13          6           0       -0.432144   -0.356212    0.585651
     14          6           0        0.488379   -0.571993   -0.493860
     15          8           0        0.242221   -0.987468   -1.607108
     16          8           0        1.780381   -0.410333   -0.144383
     17          7           0       -7.114551    2.650949    0.376147
     18          6           0       -6.097969    3.388749    0.783366
     19          6           0       -6.523610    4.788305    0.873129
     20          6           0       -7.883232    4.838284    0.453744
     21          6           0       -8.268474    3.448893    0.122564
     22          6           0       -5.723227    5.873479    1.535829
     23          6           0       -8.679240    5.987771    0.338747
     24          6           0       -8.369182    7.283216    0.022630
     25          7           0       -9.183261    0.570397   -0.433938
     26          6           0       -9.895861    1.753502   -0.681367
     27          6           0      -11.239655    1.414329   -1.225694
     28          6           0      -11.255063    0.061808   -1.249543
     29          6           0       -9.922181   -0.408021   -0.828148
     30          6           0      -12.309320    2.454192   -1.675427
     31          6           0      -12.309763   -0.830877   -1.879618
     32          6           0      -12.065310   -1.184411   -3.294138
     33          7           0       -7.157976   -1.385967   -0.293282
     34          6           0       -8.210967   -2.228620   -0.571038
     35          6           0       -7.766062   -3.592785   -0.590584
     36          6           0       -6.492460   -3.476353   -0.178528
     37          6           0       -6.145306   -2.073390    0.070105
     38          6           0       -8.531577   -4.898531   -0.674978
     39          6           0       -5.281162   -4.357991    0.188440
     40          8           0       -5.194604   -5.561755    0.255574
     41          6           0       -4.118833   -3.295944    0.500144
     42          6           0       -3.525654   -3.667432    1.929364
     43          8           0       -3.888798   -3.154750    3.020325
     44          8           0       -2.638679   -4.666895    1.774336
     45          6           0       -2.092711   -5.048152    2.992404
     46          6           0        2.802079   -0.703937   -1.134088
     47          6           0        4.052514   -0.565165   -0.663955
     48          6           0        5.115399    0.223302   -1.028028
     49          6           0        5.110482    0.937775   -2.340964
     50          6           0        6.406337    0.330963   -0.210303
     51          6           0        7.625274   -0.325300   -0.879069
     52          6           0        8.919086   -0.256695   -0.157663
     53          6           0       10.165727   -0.775255   -0.922897
     54          6           0       10.232771   -2.182001   -1.270293
     55          6           0       11.422062   -0.381991   -0.029445
     56          6           0       12.838796   -0.475503   -0.582539
     57          6           0       13.935982   -0.214471    0.452111
     58          6           0       15.357720   -0.281155   -0.351305
     59          6           0       15.678142   -1.562091   -0.890028
     60          6           0       16.414144    0.419437    0.506266
     61          6           0       17.810969    0.561374   -0.130545
     62          6           0       18.780210    1.401125    0.720294
     63          6           0       20.183973    1.519207    0.086266
     64          6           0       20.298550    2.474541   -1.200667
     65          6           0       21.254381    1.963955    1.078158
     66          1           0       -4.034353    3.585958    1.501116
     67          1           0      -10.394187    3.831784   -0.587187
     68          1           0       -9.990604   -2.686696   -1.312684
     69          1           0       -2.566945   -0.931615    2.113723
     70          1           0       -2.241051    1.645118    1.017883
     71          1           0       -2.299035    1.061456    3.564320
     72          1           0       -3.243305    2.433479    3.420304
     73          1           0       -3.804055    0.622736    3.565439
     74          1           0       -2.054676   -1.581681   -0.411407
     75          1           0       -2.124007    0.230809   -0.784444
     76          1           0       -0.190756    0.681235    0.829140
     77          1           0       -0.277154   -0.956197    1.544276
     78          1           0       -4.783963    6.065262    0.623922
     79          1           0       -6.384041    6.681950    1.727656
     80          1           0       -5.253791    5.707312    2.508329
     81          1           0       -9.674323    5.827574    0.755306
     82          1           0       -9.171993    8.119353    0.111667
     83          1           0       -7.303142    7.570183   -0.122570
     84          1           0      -11.968704    2.821158   -2.582156
     85          1           0      -13.318516    2.016811   -1.871704
     86          1           0      -12.465627    3.268411   -0.923216
     87          1           0      -12.278888   -1.740213   -1.365670
     88          1           0      -13.177398   -0.393808   -1.621881
     89          1           0      -12.769737   -1.929094   -3.631973
     90          1           0      -11.886514   -0.348383   -4.206843
     91          1           0      -11.126675   -1.782871   -3.335116
     92          1           0       -8.939021   -4.993612   -1.741146
     93          1           0       -7.956247   -5.834270   -0.647005
     94          1           0       -9.289385   -4.816550   -0.074168
     95          1           0       -3.314784   -3.513429   -0.195650
     96          1           0       -1.540075   -4.423224    3.546930
     97          1           0       -2.722076   -5.466507    3.799446
     98          1           0       -1.534920   -5.891674    2.739480
     99          1           0        2.593156   -1.744443   -1.222230
    100          1           0        2.532840   -0.094943   -2.111419
    101          1           0        4.227182   -0.870382    0.439367
    102          1           0        3.942214    1.057976   -2.659253
    103          1           0        5.472151    1.968638   -1.930021
    104          1           0        5.837494    0.650927   -3.036489
    105          1           0        6.787122    1.269857   -0.033702
    106          1           0        6.286104   -0.085276    0.859000
    107          1           0        7.319785   -1.305782   -1.339435
    108          1           0        7.656615    0.294709   -1.890151
    109          1           0        9.204150    0.796547    0.180087
    110          1           0        8.934496   -0.858444    0.774930
    111          1           0       10.426708   -0.305277   -1.986565
    112          1           0        9.419381   -2.427164   -1.969584
    113          1           0       11.216079   -2.518147   -1.816553
    114          1           0       10.138523   -2.801714   -0.564174
    115          1           0       11.152798    0.864411    0.303609
    116          1           0       11.613391   -1.047525    0.940359
    117          1           0       12.900786   -1.684029   -0.944941
    118          1           0       12.796804    0.004597   -1.458337
    119          1           0       13.675881    0.726809    0.677499
    120          1           0       13.926755   -1.076252    1.191119
    121          1           0       15.266861    0.573164   -1.137467
    122          1           0       16.071836   -2.129123   -0.004454
    123          1           0       14.677015   -2.169721   -1.400564
    124          1           0       16.626234   -1.328068   -1.392865
    125          1           0       16.235062    1.514254    0.806154
    126          1           0       16.339235   -0.228182    1.359039
    127          1           0       18.245461   -0.444810   -0.330140
    128          1           0       17.652430    0.992438   -1.081780
    129          1           0       18.573783    2.419655    0.646906
    130          1           0       18.914062    1.134744    1.719107
    131          1           0       20.474400    0.407380   -0.374466
    132          1           0       19.913132    3.409738   -1.034062
    133          1           0       21.232841    2.638748   -1.503634
    134          1           0       19.711919    2.173277   -1.899880
    135          1           0       21.189131    1.273660    1.970509
    136          1           0       22.240988    2.054911    0.723866
    137          1           0       21.070273    3.177453    1.302812
 ---------------------------------------------------------------------

 SCF Done:  E(RCAM-B3LYP) =  -2932.55303416     A.U. after   15 cycles

 Excitation energies and oscillator strengths:

 Excited State   1:      Singlet-A      2.1741 eV  570.27 nm  f=0.1969  <S**2>=0.000
     240 -> 243       -0.26920
     241 -> 242        0.63502
     241 -> 243        0.10128
 This state for optimization and/or second-order correction.
 Total Energy, E(TD-HF/TD-KS) =  -2932.47313672
 Copying the excited state density for this state as the 1-particle RhoCI density.

 The electronic state is 1-A.
 Alpha  occ. eigenvalues --  -46.84888 -19.28563 -19.24973 -19.21721 -19.21719
 Alpha  occ. eigenvalues --  -19.20120 -14.42021 -14.39407 -14.39406 -14.39386
 Alpha  occ. eigenvalues --  -10.40529 -10.38565 -10.36277 -10.32160 -10.31273
 Alpha  occ. eigenvalues --  -10.30741 -10.29751 -10.29580 -10.29372 -10.29002
 Alpha  occ. eigenvalues --  -10.28949 -10.28948 -10.28696 -10.28463 -10.28365
 Alpha  occ. eigenvalues --  -10.28311 -10.28220 -10.28021 -10.27958 -10.27907
 Alpha  occ. eigenvalues --  -10.27765 -10.27708 -10.27662 -10.27326 -10.27314
 Alpha  occ. eigenvalues --  -10.27292 -10.27151 -10.27149 -10.27059 -10.26900
 Alpha  occ. eigenvalues --  -10.26756 -10.26697 -10.26677 -10.26606 -10.26424
 Alpha  occ. eigenvalues --  -10.26117 -10.26039 -10.26034 -10.25993 -10.25784
 Alpha  occ. eigenvalues --  -10.25750 -10.25741 -10.25583 -10.25435 -10.25280
 Alpha  occ. eigenvalues --  -10.25206 -10.25194 -10.25140 -10.24994 -10.24585
 Alpha  occ. eigenvalues --  -10.24469 -10.24197 -10.24159 -10.23388 -10.21516
 Alpha  occ. eigenvalues --   -3.13839  -1.88557  -1.88099  -1.87986  -1.19871
 Alpha  occ. eigenvalues --   -1.18095  -1.12205  -1.08457  -1.08313  -1.06170
 Alpha  occ. eigenvalues --   -1.03653  -1.03451  -1.02290  -0.92122  -0.91869
 Alpha  occ. eigenvalues --   -0.91190  -0.90632  -0.89962  -0.89304  -0.88744
 Alpha  occ. eigenvalues --   -0.88596  -0.88352  -0.87919  -0.87743  -0.86547
 Alpha  occ. eigenvalues --   -0.85758  -0.84609  -0.84241  -0.83339  -0.82331
 Alpha  occ. eigenvalues --   -0.82229  -0.82033  -0.81543  -0.80040  -0.79018
 Alpha  occ. eigenvalues --   -0.77760  -0.77397  -0.77119  -0.76907  -0.76528
 Alpha  occ. eigenvalues --   -0.75428  -0.75286  -0.74701  -0.73733  -0.72532
 Alpha  occ. eigenvalues --   -0.71953  -0.70344  -0.69546  -0.69049  -0.68021
 Alpha  occ. eigenvalues --   -0.67423  -0.67130  -0.65407  -0.65369  -0.64530
 Alpha  occ. eigenvalues --   -0.64224  -0.63185  -0.62754  -0.62393  -0.62223
 Alpha  occ. eigenvalues --   -0.60735  -0.60531  -0.59876  -0.59369  -0.58926
 Alpha  occ. eigenvalues --   -0.58756  -0.58202  -0.57813  -0.57765  -0.57298
 Alpha  occ. eigenvalues --   -0.56559  -0.55964  -0.55629  -0.55411  -0.55367
 Alpha  occ. eigenvalues --   -0.54721  -0.54546  -0.54398  -0.54060  -0.53462
 Alpha  occ. eigenvalues --   -0.53257  -0.52836  -0.52505  -0.52150  -0.52067
 Alpha  occ. eigenvalues --   -0.51534  -0.51460  -0.51289  -0.51062  -0.50631
 Alpha  occ. eigenvalues --   -0.50505  -0.50446  -0.50257  -0.49966  -0.49886
 Alpha  occ. eigenvalues --   -0.49698  -0.49457  -0.49357  -0.48973  -0.48716
 Alpha  occ. eigenvalues --   -0.48400  -0.48197  -0.47988  -0.47629  -0.47554
 Alpha  occ. eigenvalues --   -0.47374  -0.47052  -0.46802  -0.46374  -0.46079
 Alpha  occ. eigenvalues --   -0.45838  -0.45719  -0.45590  -0.45383  -0.45338
 Alpha  occ. eigenvalues --   -0.45078  -0.44925  -0.44657  -0.44603  -0.44576
 Alpha  occ. eigenvalues --   -0.44363  -0.44289  -0.44159  -0.43963  -0.43631
 Alpha  occ. eigenvalues --   -0.43302  -0.43081  -0.42969  -0.42727  -0.42492
 Alpha  occ. eigenvalues --   -0.42354  -0.42236  -0.42056  -0.41789  -0.41435
 Alpha  occ. eigenvalues --   -0.41031  -0.40981  -0.40716  -0.40599  -0.40477
 Alpha  occ. eigenvalues --   -0.40276  -0.39651  -0.39548  -0.39452  -0.39206
 Alpha  occ. eigenvalues --   -0.39041  -0.38585  -0.38341  -0.38119  -0.37526
 Alpha  occ. eigenvalues --   -0.37436  -0.37309  -0.36771  -0.36699  -0.36622
 Alpha  occ. eigenvalues --   -0.36500  -0.36247  -0.35921  -0.35499  -0.34932
 Alpha  occ. eigenvalues --   -0.34841  -0.34222  -0.34157  -0.33818  -0.33312
 Alpha  occ. eigenvalues --   -0.33109  -0.32738  -0.32505  -0.30824  -0.30260
 Alpha  occ. eigenvalues --   -0.29962  -0.29282  -0.28529  -0.26502  -0.23304
 Alpha  occ. eigenvalues --   -0.20739
 Alpha virt. eigenvalues --   -0.05185  -0.03081   0.01738   0.03879   0.04750
 Alpha virt. eigenvalues --    0.05270   0.05540   0.06121   0.06920   0.07529
 Alpha virt. eigenvalues --    0.08263   0.09698   0.10771   0.11114   0.11249

 Mulliken charges:
               1
     1  Mg   0.822995
     2  C    0.032569
     3  C   -0.215961
     4  C   -0.186384
     5  C   -0.159575
     6  N   -0.637748
     7  C    0.319133
     8  C   -0.168549
     9  C   -0.151914
    10  C    0.329702
    11  C   -0.255843
    12  C   -0.191111
    13  C   -0.259804
    14  C    0.617078
    15  O   -0.482260
    16  O   -0.508965
    17  N   -0.737415
    18  C    0.370119
    19  C   -0.017757
    20  C    0.030625
    21  C    0.332160
    22  C   -0.341415
    23  C   -0.103161
    24  C   -0.248822
    25  N   -0.654277
    26  C    0.217499
    27  C    0.039952
    28  C   -0.049689
    29  C    0.295445
    30  C   -0.372474
    31  C   -0.203575
    32  C   -0.294615
    33  N   -0.729752
    34  C    0.240514
    35  C    0.020742
    36  C   -0.071115
    37  C    0.377512
    38  C   -0.362388
    39  C    0.404597
    40  O   -0.442040
    41  C   -0.312461
    42  C    0.619048
    43  O   -0.496987
    44  O   -0.414380
    45  C   -0.097895
    46  C    0.047517
    47  C   -0.123754
    48  C    0.106877
    49  C   -0.350802
    50  C   -0.218800
    51  C   -0.179653
    52  C   -0.161015
    53  C   -0.052872
    54  C   -0.293843
    55  C   -0.147452
    56  C   -0.173657
    57  C   -0.160707
    58  C   -0.062621
    59  C   -0.295234
    60  C   -0.168762
    61  C   -0.193711
    62  C   -0.163566
    63  C   -0.061884
    64  C   -0.321083
    65  C   -0.294038
    66  H    0.080394
    67  H    0.087448
    68  H    0.100303
    69  H    0.116481
    70  H    0.113838
    71  H    0.105708
    72  H    0.096904
    73  H    0.126690
    74  H    0.117791
    75  H    0.096986
    76  H    0.145136
    77  H    0.142459
    78  H    0.073945
    79  H    0.123157
    80  H    0.122943
    81  H    0.096296
    82  H    0.101871
    83  H    0.106764
    84  H    0.143097
    85  H    0.113400
    86  H    0.115837
    87  H    0.106332
    88  H    0.104615
    89  H    0.104047
    90  H    0.081096
    91  H    0.101766
    92  H    0.105857
    93  H    0.154289
    94  H    0.142438
    95  H    0.162273
    96  H    0.130487
    97  H    0.124353
    98  H    0.121094
    99  H    0.126490
   100  H    0.112400
   101  H    0.082190
   102  H    0.097080
   103  H    0.101423
   104  H    0.138563
   105  H    0.112991
   106  H    0.085721
   107  H    0.102215
   108  H    0.070785
   109  H    0.092977
   110  H    0.102544
   111  H    0.069509
   112  H    0.094779
   113  H    0.089158
   114  H    0.112429
   115  H    0.024502
   116  H    0.068848
   117  H    0.039131
   118  H    0.106982
   119  H    0.110178
   120  H    0.092653
   121  H    0.061376
   122  H    0.091234
   123  H    0.097593
   124  H    0.113230
   125  H    0.085304
   126  H    0.085699
   127  H    0.090119
   128  H    0.102174
   129  H    0.103352
   130  H    0.101789
   131  H    0.046192
   132  H    0.098162
   133  H    0.110596
   134  H    0.107718
   135  H    0.095698
   136  H    0.115354
   137  H    0.062467
 Sum of Mulliken charges =   0.00000

 Dipole moment (field-independent basis, Debye):
    X=              3.0283    Y=              2.7370    Z=              1.1136  Tot=              4.2311
 Quadrupole moment (field-independent basis, Debye-Ang):
   XX=           -353.7811   YY=           -394.0232   ZZ=           -398.9924
   XY=             -5.2346   XZ=              4.9365   YZ=             -0.2509

 Normal termination of Gaussian 09 at Sat Jun 29 12:30:54 2019.
