 Gaussian 09, Revision D.01,
 Gaussian 09:  ES64L-G09RevD.01 24-Apr-2013

 -------------------------------------
 # td=(NStates=1) CAM-B3LYP/6-31G(d,p)
 -------------------------------------

 --
 TD
 --
 Symbolic Z-matrix:
 Charge =  0 Multiplicity = 1

                         Standard orientation:
 ---------------------------------------------------------------------
 Center     Atomic      Atomic             Coordinates (Angstroms)
 Number     Number       Type             X           Y           Z
 ---------------------------------------------------------------------
      1         12           0       -7.110566    0.626618    0.084072
      2          6           0       -4.783284   -1.976914    0.517144
      3          6           0       -4.793213    2.776315    1.202651
      4          6           0       -9.411585    3.117460   -0.350178
      5          6           0       -9.414585   -1.686106   -1.093997
      6          7           0       -5.057914    0.433047    0.806038
      7          6           0       -4.355025   -0.760036    0.911453
      8          6           0       -2.956885   -0.442464    1.383013
      9          6           0       -3.123524    1.078510    1.890862
     10          6           0       -4.372815    1.452058    1.245712
     11          6           0       -3.059502    1.220726    3.343164
     12          6           0       -1.833108   -0.606668    0.349957
     13          6           0       -0.353620   -0.480400    0.745876
     14          6           0        0.541026   -0.770223   -0.475573
     15          8           0        0.170936   -1.015817   -1.610596
     16          8           0        1.878172   -0.431034   -0.215177
     17          7           0       -7.026041    2.697730    0.387423
     18          6           0       -6.036732    3.330767    0.842767
     19          6           0       -6.275525    4.727584    0.812037
     20          6           0       -7.543335    4.881975    0.343803
     21          6           0       -8.097892    3.531625    0.101518
     22          6           0       -5.398974    5.824584    1.446671
     23          6           0       -8.475485    6.057254    0.406904
     24          6           0       -8.128649    7.382237    0.178775
     25          7           0       -9.122024    0.655969   -0.484236
     26          6           0       -9.921622    1.825712   -0.582965
     27          6           0      -11.189974    1.495350   -1.145636
     28          6           0      -11.150672    0.149389   -1.309169
     29          6           0       -9.907476   -0.468195   -0.884823
     30          6           0      -12.154896    2.565496   -1.404901
     31          6           0      -12.255710   -0.782673   -1.735073
     32          6           0      -12.207880   -0.864624   -3.303584
     33          7           0       -7.210929   -1.395412   -0.253238
     34          6           0       -8.286262   -2.194611   -0.640256
     35          6           0       -7.745946   -3.591176   -0.602897
     36          6           0       -6.468480   -3.528180   -0.136855
     37          6           0       -6.185961   -2.201935    0.043357
     38          6           0       -8.539050   -4.938639   -0.906945
     39          6           0       -5.236005   -4.352798    0.157130
     40          8           0       -5.079699   -5.561192    0.009421
     41          6           0       -4.184537   -3.329543    0.575556
     42          6           0       -3.633095   -3.846866    1.906961
     43          8           0       -3.807385   -3.221214    2.917038
     44          8           0       -2.888447   -4.960571    1.776039
     45          6           0       -2.348329   -5.487245    2.905873
     46          6           0        2.826839   -0.632645   -1.230290
     47          6           0        4.079797   -0.348664   -0.566801
     48          6           0        5.012889    0.469327   -1.054129
     49          6           0        4.989210    1.402272   -2.255934
     50          6           0        6.345562    0.569129   -0.271076
     51          6           0        7.587193    0.020301   -1.152324
     52          6           0        8.846965   -0.079857   -0.339252
     53          6           0       10.171963   -0.516451   -1.039242
     54          6           0       10.071199   -1.866488   -1.447648
     55          6           0       11.307546   -0.283955    0.028267
     56          6           0       12.669965   -0.525184   -0.685185
     57          6           0       13.860004   -0.111813    0.218816
     58          6           0       15.308796   -0.202774   -0.414911
     59          6           0       15.685576   -1.610451   -1.005384
     60          6           0       16.264755    0.490983    0.525327
     61          6           0       17.668956    0.514817   -0.132750
     62          6           0       18.709303    1.218222    0.737404
     63          6           0       20.196748    1.215587    0.309531
     64          6           0       20.408971    1.884139   -1.086037
     65          6           0       21.062661    1.911561    1.336976
     66          1           0       -3.797133    3.347816    1.664008
     67          1           0      -10.209007    3.817566   -0.699438
     68          1           0      -10.015178   -2.527134   -1.535944
     69          1           0       -2.762413   -1.090039    2.150282
     70          1           0       -2.364025    1.579722    1.455404
     71          1           0       -2.072774    1.015087    3.616341
     72          1           0       -3.415860    2.174113    3.808292
     73          1           0       -3.799636    0.511424    3.818144
     74          1           0       -1.897201   -1.575944    0.044719
     75          1           0       -2.111799    0.154090   -0.343559
     76          1           0        0.035609    0.514708    1.188373
     77          1           0       -0.132622   -1.162819    1.599415
     78          1           0       -4.804727    6.189377    0.530811
     79          1           0       -5.881691    6.677942    1.728151
     80          1           0       -4.737109    5.454129    2.226718
     81          1           0       -9.450628    5.880385    0.570706
     82          1           0       -9.019499    8.157231    0.282648
     83          1           0       -7.020207    7.628509   -0.126814
     84          1           0      -12.171420    3.273631   -2.259731
     85          1           0      -13.140174    1.856331   -1.648381
     86          1           0      -12.226236    3.204674   -0.680535
     87          1           0      -12.108711   -1.856001   -1.325182
     88          1           0      -13.335024   -0.457267   -1.537842
     89          1           0      -13.108191   -1.325383   -3.484419
     90          1           0      -12.295238    0.091903   -3.723892
     91          1           0      -11.257597   -1.418806   -3.779490
     92          1           0       -9.002741   -4.677171   -2.013194
     93          1           0       -7.631053   -5.761977   -1.108699
     94          1           0       -9.422028   -5.228323   -0.155109
     95          1           0       -3.309520   -3.417190   -0.272840
     96          1           0       -1.914746   -4.487979    3.570030
     97          1           0       -3.227747   -5.951957    3.511887
     98          1           0       -1.662072   -6.344271    2.606792
     99          1           0        2.572021   -1.738077   -1.882857
    100          1           0        2.442471    0.084511   -2.003779
    101          1           0        4.123377   -0.898330    0.273647
    102          1           0        3.789216    1.219499   -2.609993
    103          1           0        5.274617    2.436636   -2.121964
    104          1           0        5.702890    0.755538   -3.189118
    105          1           0        6.593721    1.512913    0.221341
    106          1           0        6.216239   -0.013504    0.505291
    107          1           0        7.253163   -0.917111   -1.509666
    108          1           0        7.586586    0.626353   -2.011531
    109          1           0        9.108119    0.829101    0.239666
    110          1           0        8.725274   -0.893618    0.538308
    111          1           0       10.367991    0.106033   -1.922760
    112          1           0        9.257197   -2.029976   -2.362975
    113          1           0       10.946242   -2.304327   -1.866284
    114          1           0        9.748935   -2.511508   -0.602972
    115          1           0       11.326250    0.799778    0.351214
    116          1           0       11.068621   -0.957214    0.826988
    117          1           0       12.748668   -1.555794   -1.128518
    118          1           0       12.584712    0.092545   -1.534713
    119          1           0       13.765825    0.851616    0.570468
    120          1           0       13.744873   -0.800046    1.075937
    121          1           0       15.122009    0.556367   -1.276289
    122          1           0       15.605259   -2.265167   -0.191614
    123          1           0       14.885958   -2.010393   -1.663905
    124          1           0       16.750873   -1.628193   -1.406284
    125          1           0       16.072677    1.430268    0.919113
    126          1           0       16.404228   -0.168394    1.456151
    127          1           0       18.090019   -0.518014   -0.358186
    128          1           0       17.656319    0.891356   -1.140401
    129          1           0       18.318317    2.251478    0.926136
    130          1           0       18.847455    0.733081    1.746641
    131          1           0       20.486926    0.124891    0.186674
    132          1           0       20.349278    3.039316   -0.477573
    133          1           0       21.393684    1.962664   -1.534096
    134          1           0       19.700330    1.636346   -1.839743
    135          1           0       21.029646    1.426352    2.433222
    136          1           0       22.131480    2.163938    1.036904
    137          1           0       20.815715    2.937761    1.153145
 ---------------------------------------------------------------------

 SCF Done:  E(RCAM-B3LYP) =  -2932.63174916     A.U. after   17 cycles

 Excitation energies and oscillator strengths:

 Excited State   1:      Singlet-A      2.0958 eV  591.57 nm  f=0.2453  <S**2>=0.000
     240 -> 243        0.23150
     241 -> 242        0.66189
 This state for optimization and/or second-order correction.
 Total Energy, E(TD-HF/TD-KS) =  -2932.55472845
 Copying the excited state density for this state as the 1-particle RhoCI density.

 The electronic state is 1-A.
 Alpha  occ. eigenvalues --  -46.85021 -19.27216 -19.25505 -19.22088 -19.21998
 Alpha  occ. eigenvalues --  -19.21148 -14.41111 -14.39304 -14.39298 -14.39024
 Alpha  occ. eigenvalues --  -10.40290 -10.40155 -10.36016 -10.33541 -10.32416
 Alpha  occ. eigenvalues --  -10.30652 -10.30255 -10.30038 -10.29851 -10.29621
 Alpha  occ. eigenvalues --  -10.29561 -10.29478 -10.29466 -10.28829 -10.28823
 Alpha  occ. eigenvalues --  -10.28666 -10.28428 -10.28357 -10.28197 -10.28138
 Alpha  occ. eigenvalues --  -10.27832 -10.27212 -10.27212 -10.27100 -10.27021
 Alpha  occ. eigenvalues --  -10.26914 -10.26618 -10.26582 -10.26581 -10.26353
 Alpha  occ. eigenvalues --  -10.26274 -10.26243 -10.26187 -10.26048 -10.25937
 Alpha  occ. eigenvalues --  -10.25860 -10.25846 -10.25842 -10.25784 -10.25633
 Alpha  occ. eigenvalues --  -10.25395 -10.25278 -10.25268 -10.25161 -10.25093
 Alpha  occ. eigenvalues --  -10.25044 -10.25015 -10.24969 -10.24823 -10.24738
 Alpha  occ. eigenvalues --  -10.24726 -10.24716 -10.24578 -10.24355 -10.24305
 Alpha  occ. eigenvalues --   -3.13795  -1.88533  -1.88011  -1.87957  -1.20591
 Alpha  occ. eigenvalues --   -1.17431  -1.11662  -1.11080  -1.09580  -1.06228
 Alpha  occ. eigenvalues --   -1.04864  -1.03835  -1.00813  -0.93377  -0.91270
 Alpha  occ. eigenvalues --   -0.90684  -0.90280  -0.89809  -0.89396  -0.88848
 Alpha  occ. eigenvalues --   -0.88302  -0.88122  -0.87839  -0.86430  -0.85926
 Alpha  occ. eigenvalues --   -0.85150  -0.84722  -0.84133  -0.83343  -0.82386
 Alpha  occ. eigenvalues --   -0.81727  -0.81207  -0.80503  -0.79783  -0.78040
 Alpha  occ. eigenvalues --   -0.77524  -0.77063  -0.76512  -0.75851  -0.75464
 Alpha  occ. eigenvalues --   -0.75195  -0.74656  -0.74449  -0.73442  -0.72433
 Alpha  occ. eigenvalues --   -0.71686  -0.70721  -0.69385  -0.68660  -0.68146
 Alpha  occ. eigenvalues --   -0.67338  -0.66859  -0.66006  -0.65128  -0.64894
 Alpha  occ. eigenvalues --   -0.64205  -0.63396  -0.63006  -0.62697  -0.62090
 Alpha  occ. eigenvalues --   -0.61509  -0.61027  -0.60911  -0.60396  -0.59442
 Alpha  occ. eigenvalues --   -0.59190  -0.58266  -0.58138  -0.57774  -0.57100
 Alpha  occ. eigenvalues --   -0.56515  -0.56193  -0.55658  -0.55219  -0.55030
 Alpha  occ. eigenvalues --   -0.54644  -0.54364  -0.54195  -0.53904  -0.53574
 Alpha  occ. eigenvalues --   -0.53200  -0.52785  -0.52186  -0.51874  -0.51649
 Alpha  occ. eigenvalues --   -0.51191  -0.51073  -0.50958  -0.50660  -0.50546
 Alpha  occ. eigenvalues --   -0.50514  -0.50325  -0.50151  -0.49593  -0.49511
 Alpha  occ. eigenvalues --   -0.49214  -0.49043  -0.48873  -0.48568  -0.48395
 Alpha  occ. eigenvalues --   -0.48267  -0.48121  -0.47841  -0.47605  -0.47219
 Alpha  occ. eigenvalues --   -0.47165  -0.47037  -0.46843  -0.46501  -0.46441
 Alpha  occ. eigenvalues --   -0.45721  -0.45665  -0.45399  -0.45266  -0.44816
 Alpha  occ. eigenvalues --   -0.44562  -0.44395  -0.44236  -0.44139  -0.43911
 Alpha  occ. eigenvalues --   -0.43731  -0.43680  -0.43195  -0.43143  -0.42885
 Alpha  occ. eigenvalues --   -0.42753  -0.42592  -0.42439  -0.42283  -0.42040
 Alpha  occ. eigenvalues --   -0.41926  -0.41778  -0.41705  -0.41383  -0.40972
 Alpha  occ. eigenvalues --   -0.40947  -0.40819  -0.40730  -0.40615  -0.40175
 Alpha  occ. eigenvalues --   -0.39949  -0.39905  -0.39886  -0.39637  -0.39597
 Alpha  occ. eigenvalues --   -0.39243  -0.38715  -0.38322  -0.37896  -0.37553
 Alpha  occ. eigenvalues --   -0.37534  -0.37341  -0.36979  -0.36819  -0.36552
 Alpha  occ. eigenvalues --   -0.36409  -0.35849  -0.35787  -0.35308  -0.35123
 Alpha  occ. eigenvalues --   -0.35066  -0.34677  -0.34609  -0.34529  -0.34261
 Alpha  occ. eigenvalues --   -0.32884  -0.32836  -0.32106  -0.31147  -0.30678
 Alpha  occ. eigenvalues --   -0.29687  -0.29513  -0.27791  -0.27363  -0.23381
 Alpha  occ. eigenvalues --   -0.21456
 Alpha virt. eigenvalues --   -0.06574  -0.02859   0.01567   0.04092   0.04511
 Alpha virt. eigenvalues --    0.05551   0.05764   0.05872   0.06628   0.07035
 Alpha virt. eigenvalues --    0.08561   0.10142   0.10967   0.11246   0.11388

 Mulliken charges:
               1
     1  Mg   0.818289
     2  C    0.091672
     3  C   -0.213352
     4  C   -0.179712
     5  C   -0.153215
     6  N   -0.655840
     7  C    0.299110
     8  C   -0.190349
     9  C   -0.153235
    10  C    0.374199
    11  C   -0.299627
    12  C   -0.138435
    13  C   -0.293183
    14  C    0.615158
    15  O   -0.452617
    16  O   -0.491872
    17  N   -0.703338
    18  C    0.372428
    19  C    0.002184
    20  C   -0.021119
    21  C    0.274124
    22  C   -0.351969
    23  C   -0.061961
    24  C   -0.254685
    25  N   -0.694078
    26  C    0.275931
    27  C    0.069152
    28  C    0.011222
    29  C    0.285437
    30  C   -0.367024
    31  C   -0.265661
    32  C   -0.303127
    33  N   -0.729538
    34  C    0.268655
    35  C   -0.053166
    36  C    0.047534
    37  C    0.294231
    38  C   -0.353270
    39  C    0.386627
    40  O   -0.460011
    41  C   -0.340552
    42  C    0.621121
    43  O   -0.455277
    44  O   -0.405650
    45  C   -0.084975
    46  C    0.006892
    47  C   -0.087840
    48  C    0.094983
    49  C   -0.319632
    50  C   -0.225640
    51  C   -0.185686
    52  C   -0.160543
    53  C   -0.067679
    54  C   -0.283373
    55  C   -0.173582
    56  C   -0.191849
    57  C   -0.178317
    58  C   -0.057045
    59  C   -0.321021
    60  C   -0.163576
    61  C   -0.190360
    62  C   -0.153931
    63  C   -0.069211
    64  C   -0.286767
    65  C   -0.304080
    66  H    0.071428
    67  H    0.090612
    68  H    0.100554
    69  H    0.115512
    70  H    0.107312
    71  H    0.114735
    72  H    0.107072
    73  H    0.118389
    74  H    0.119806
    75  H    0.118649
    76  H    0.135279
    77  H    0.134642
    78  H    0.111412
    79  H    0.130897
    80  H    0.119856
    81  H    0.094869
    82  H    0.100667
    83  H    0.103314
    84  H    0.124094
    85  H    0.083341
    86  H    0.133062
    87  H    0.100641
    88  H    0.100205
    89  H    0.107847
    90  H    0.117699
    91  H    0.094642
    92  H    0.093838
    93  H    0.138194
    94  H    0.126903
    95  H    0.163299
    96  H    0.100223
    97  H    0.116346
    98  H    0.128903
    99  H    0.087782
   100  H    0.118817
   101  H    0.100846
   102  H    0.080236
   103  H    0.137223
   104  H    0.082731
   105  H    0.093360
   106  H    0.103313
   107  H    0.107574
   108  H    0.101646
   109  H    0.084623
   110  H    0.062847
   111  H    0.083424
   112  H    0.070339
   113  H    0.104913
   114  H    0.094462
   115  H    0.088122
   116  H    0.093829
   117  H    0.087223
   118  H    0.095938
   119  H    0.094862
   120  H    0.082397
   121  H    0.068341
   122  H    0.113548
   123  H    0.106669
   124  H    0.104288
   125  H    0.105680
   126  H    0.081627
   127  H    0.082693
   128  H    0.098120
   129  H    0.079833
   130  H    0.084397
   131  H    0.076898
   132  H    0.038498
   133  H    0.109661
   134  H    0.109796
   135  H    0.096259
   136  H    0.095133
   137  H    0.105830
 Sum of Mulliken charges =   0.00000

 Dipole moment (field-independent basis, Debye):
    X=              1.3588    Y=              3.3128    Z=              1.1118  Tot=              3.7492
 Quadrupole moment (field-independent basis, Debye-Ang):
   XX=           -355.5054   YY=           -393.9737   ZZ=           -399.7041
   XY=            -20.9444   XZ=              8.5502   YZ=             -2.9850

 Normal termination of Gaussian 09 at Sun Jun 30 13:53:08 2019.
