 Gaussian 09, Revision D.01,
 Gaussian 09:  ES64L-G09RevD.01 24-Apr-2013

 -------------------------------------
 # td=(NStates=1) CAM-B3LYP/6-31G(d,p)
 -------------------------------------

 --
 TD
 --
 Symbolic Z-matrix:
 Charge =  0 Multiplicity = 1

                         Standard orientation:
 ---------------------------------------------------------------------
 Center     Atomic      Atomic             Coordinates (Angstroms)
 Number     Number       Type             X           Y           Z
 ---------------------------------------------------------------------
      1         12           0       -7.194774    0.627823    0.187409
      2          6           0       -4.932848   -1.978758    0.537051
      3          6           0       -4.744628    2.773220    1.191893
      4          6           0       -9.427651    3.140372   -0.426760
      5          6           0       -9.489414   -1.710600   -0.841947
      6          7           0       -5.099314    0.372792    0.796860
      7          6           0       -4.404711   -0.733085    0.758717
      8          6           0       -2.960948   -0.525380    1.192861
      9          6           0       -3.080604    1.108833    1.672028
     10          6           0       -4.424023    1.503232    1.223010
     11          6           0       -3.035068    1.165598    3.173146
     12          6           0       -1.956702   -0.594546    0.061593
     13          6           0       -0.582801   -0.578999    0.563017
     14          6           0        0.501616   -0.671868   -0.623089
     15          8           0        0.275052   -1.044205   -1.692503
     16          8           0        1.748278   -0.371397   -0.128335
     17          7           0       -7.044087    2.575764    0.399997
     18          6           0       -6.087372    3.389796    0.813870
     19          6           0       -6.416251    4.687668    0.785609
     20          6           0       -7.718236    4.842044    0.347921
     21          6           0       -8.110108    3.528917    0.036472
     22          6           0       -5.587880    5.819212    1.401513
     23          6           0       -8.600674    5.962945    0.233636
     24          6           0       -8.207611    7.340459    0.122679
     25          7           0       -9.146275    0.629391   -0.510835
     26          6           0       -9.929490    1.823499   -0.678858
     27          6           0      -11.250935    1.501854   -1.201955
     28          6           0      -11.272527    0.074412   -1.232811
     29          6           0       -9.988593   -0.402231   -0.857040
     30          6           0      -12.347482    2.411998   -1.348782
     31          6           0      -12.312035   -0.812324   -1.730186
     32          6           0      -12.159456   -1.141994   -3.336667
     33          7           0       -7.226093   -1.423680   -0.085860
     34          6           0       -8.326844   -2.244977   -0.439843
     35          6           0       -7.866849   -3.674296   -0.377701
     36          6           0       -6.561731   -3.506040   -0.079934
     37          6           0       -6.219110   -2.197453    0.179714
     38          6           0       -8.759302   -4.876825   -0.641772
     39          6           0       -5.300066   -4.333024    0.101562
     40          8           0       -5.200583   -5.490241   -0.020452
     41          6           0       -4.126570   -3.302227    0.467472
     42          6           0       -3.551282   -3.661586    1.778119
     43          8           0       -3.734494   -3.137609    2.830639
     44          8           0       -2.660459   -4.689950    1.618260
     45          6           0       -2.123628   -5.238786    2.912749
     46          6           0        2.835184   -0.652507   -1.015948
     47          6           0        4.109199   -0.404275   -0.353122
     48          6           0        5.062150    0.438502   -0.902736
     49          6           0        4.900193    1.383175   -2.004230
     50          6           0        6.463887    0.392995   -0.258656
     51          6           0        7.658224   -0.134222   -1.019970
     52          6           0        8.972135   -0.095420   -0.244090
     53          6           0       10.290152   -0.424099   -0.905090
     54          6           0       10.195685   -1.885243   -1.601342
     55          6           0       11.428770   -0.202478    0.061827
     56          6           0       12.779489   -0.346476   -0.779429
     57          6           0       14.013057    0.067056    0.138099
     58          6           0       15.407015   -0.140336   -0.538798
     59          6           0       15.672363   -1.514678   -1.027149
     60          6           0       16.416048    0.400370    0.443825
     61          6           0       17.868779    0.336254   -0.137660
     62          6           0       18.890261    1.118670    0.765504
     63          6           0       20.319691    1.171418    0.259803
     64          6           0       20.523379    1.834103   -1.079307
     65          6           0       21.246323    1.904054    1.412493
     66          1           0       -4.156824    3.565314    1.606577
     67          1           0      -10.340145    3.804280   -0.645173
     68          1           0      -10.237000   -2.591923   -0.987338
     69          1           0       -2.660911   -1.067424    2.151019
     70          1           0       -2.243573    1.810672    1.400174
     71          1           0       -1.947930    0.831657    3.444978
     72          1           0       -3.017248    2.234516    3.482275
     73          1           0       -3.862215    0.792992    3.865041
     74          1           0       -2.382411   -1.432280   -0.554914
     75          1           0       -2.091917    0.406848   -0.790998
     76          1           0       -0.370413    0.385289    1.091498
     77          1           0       -0.339706   -1.392108    1.219710
     78          1           0       -4.973788    6.250727    0.534037
     79          1           0       -6.252172    6.618781    1.793111
     80          1           0       -4.959779    5.482245    2.301983
     81          1           0       -9.644411    5.818018    0.289540
     82          1           0       -9.104341    7.801421    0.006932
     83          1           0       -7.216667    7.722103    0.038073
     84          1           0      -12.324882    3.278594   -2.175313
     85          1           0      -13.386108    2.013403   -1.472200
     86          1           0      -12.224752    3.082500   -0.397124
     87          1           0      -12.421349   -1.809389   -1.406676
     88          1           0      -13.380133   -0.353671   -1.803956
     89          1           0      -12.722079   -1.852444   -3.784361
     90          1           0      -12.221676   -0.140596   -3.876810
     91          1           0      -11.148687   -1.512235   -3.478152
     92          1           0       -9.309594   -4.819477   -1.524431
     93          1           0       -8.159331   -5.745003   -0.459638
     94          1           0       -9.657527   -4.863221    0.091395
     95          1           0       -3.433708   -3.194768   -0.537046
     96          1           0       -1.605953   -4.426087    3.386151
     97          1           0       -3.202211   -5.365578    3.533824
     98          1           0       -1.593238   -6.163861    2.730714
     99          1           0        2.701710   -1.723317   -1.286202
    100          1           0        2.603962   -0.294653   -2.047475
    101          1           0        4.446152   -1.007464    0.563752
    102          1           0        3.778770    1.605180   -2.423847
    103          1           0        5.369973    2.463395   -1.731805
    104          1           0        5.403824    0.985600   -2.828937
    105          1           0        6.731390    1.290600   -0.009156
    106          1           0        6.501045   -0.421355    0.728195
    107          1           0        7.462662   -1.290208   -1.165010
    108          1           0        7.692017    0.199158   -2.027915
    109          1           0        8.909092    0.893982    0.235877
    110          1           0        9.010178   -0.808346    0.484590
    111          1           0       10.402991    0.343034   -1.751943
    112          1           0        9.155265   -2.083458   -1.961481
    113          1           0       11.055772   -2.077958   -2.255324
    114          1           0       10.295041   -2.670292   -0.618522
    115          1           0       11.324521    0.813574    0.743735
    116          1           0       11.187140   -0.931480    0.760869
    117          1           0       12.856939   -1.400785   -0.846812
    118          1           0       12.696778    0.147879   -1.652783
    119          1           0       13.897243    1.159665    0.514155
    120          1           0       14.108351   -0.746046    0.994089
    121          1           0       15.471140    0.457387   -1.602779
    122          1           0       15.740671   -2.182634   -0.187604
    123          1           0       15.000384   -1.739120   -1.835105
    124          1           0       16.665666   -1.380205   -1.338502
    125          1           0       16.122720    1.708923    0.435435
    126          1           0       16.309106    0.023086    1.436050
    127          1           0       18.379022   -0.735536   -0.492094
    128          1           0       17.559427    0.844990   -1.093595
    129          1           0       18.463670    2.244840    1.006784
    130          1           0       19.089290    0.850868    1.818871
    131          1           0       20.793321    0.088544    0.075297
    132          1           0       20.112925    2.937553   -0.805213
    133          1           0       21.612963    1.868912   -1.308260
    134          1           0       19.833509    1.451508   -1.718348
    135          1           0       20.955672    1.556802    2.333757
    136          1           0       22.348896    1.861138    1.237891
    137          1           0       20.927780    2.964880    1.527647
 ---------------------------------------------------------------------

 SCF Done:  E(RCAM-B3LYP) =  -2932.62749821     A.U. after   15 cycles

 Excitation energies and oscillator strengths:

 Excited State   1:      Singlet-A      2.1526 eV  575.97 nm  f=0.2289  <S**2>=0.000
     240 -> 243        0.26447
     241 -> 242        0.64627
 This state for optimization and/or second-order correction.
 Total Energy, E(TD-HF/TD-KS) =  -2932.54839074
 Copying the excited state density for this state as the 1-particle RhoCI density.

 The electronic state is 1-A.
 Alpha  occ. eigenvalues --  -46.83868 -19.25340 -19.25023 -19.22037 -19.21660
 Alpha  occ. eigenvalues --  -19.21459 -14.40371 -14.39295 -14.39231 -14.38349
 Alpha  occ. eigenvalues --  -10.39168 -10.38687 -10.36018 -10.32504 -10.31178
 Alpha  occ. eigenvalues --  -10.30356 -10.29819 -10.29632 -10.29511 -10.29430
 Alpha  occ. eigenvalues --  -10.29137 -10.28979 -10.28767 -10.28738 -10.28248
 Alpha  occ. eigenvalues --  -10.28231 -10.28070 -10.27973 -10.27814 -10.27783
 Alpha  occ. eigenvalues --  -10.27728 -10.27566 -10.27519 -10.27469 -10.27301
 Alpha  occ. eigenvalues --  -10.27286 -10.27248 -10.27219 -10.27042 -10.26879
 Alpha  occ. eigenvalues --  -10.26759 -10.26666 -10.26643 -10.26637 -10.26619
 Alpha  occ. eigenvalues --  -10.26488 -10.26451 -10.26423 -10.26389 -10.26160
 Alpha  occ. eigenvalues --  -10.26048 -10.26007 -10.25773 -10.25732 -10.25721
 Alpha  occ. eigenvalues --  -10.25494 -10.25234 -10.24880 -10.24871 -10.24799
 Alpha  occ. eigenvalues --  -10.24397 -10.24324 -10.24187 -10.24157 -10.23292
 Alpha  occ. eigenvalues --   -3.12867  -1.87582  -1.87102  -1.87045  -1.18910
 Alpha  occ. eigenvalues --   -1.17782  -1.15010  -1.10859  -1.08896  -1.05141
 Alpha  occ. eigenvalues --   -1.03622  -1.02841  -1.01127  -0.92698  -0.91457
 Alpha  occ. eigenvalues --   -0.90695  -0.89673  -0.89261  -0.89140  -0.88392
 Alpha  occ. eigenvalues --   -0.88241  -0.87933  -0.87707  -0.87308  -0.85558
 Alpha  occ. eigenvalues --   -0.84824  -0.83821  -0.83413  -0.82452  -0.81979
 Alpha  occ. eigenvalues --   -0.81277  -0.80798  -0.80305  -0.79954  -0.78592
 Alpha  occ. eigenvalues --   -0.77411  -0.76642  -0.75969  -0.75879  -0.75827
 Alpha  occ. eigenvalues --   -0.75248  -0.74777  -0.74162  -0.72977  -0.72389
 Alpha  occ. eigenvalues --   -0.71325  -0.70096  -0.69754  -0.69059  -0.67900
 Alpha  occ. eigenvalues --   -0.67247  -0.66392  -0.64661  -0.64624  -0.64424
 Alpha  occ. eigenvalues --   -0.63679  -0.62956  -0.62634  -0.61366  -0.61156
 Alpha  occ. eigenvalues --   -0.60445  -0.60329  -0.60306  -0.59886  -0.59432
 Alpha  occ. eigenvalues --   -0.58771  -0.57815  -0.57653  -0.57428  -0.56386
 Alpha  occ. eigenvalues --   -0.56091  -0.55408  -0.55132  -0.55092  -0.54995
 Alpha  occ. eigenvalues --   -0.54332  -0.53896  -0.53765  -0.53362  -0.53089
 Alpha  occ. eigenvalues --   -0.52901  -0.52291  -0.52253  -0.51857  -0.51764
 Alpha  occ. eigenvalues --   -0.51613  -0.51354  -0.51321  -0.50943  -0.50825
 Alpha  occ. eigenvalues --   -0.50546  -0.50349  -0.50256  -0.49932  -0.49630
 Alpha  occ. eigenvalues --   -0.49507  -0.49145  -0.48749  -0.48591  -0.48493
 Alpha  occ. eigenvalues --   -0.48404  -0.48147  -0.47834  -0.47735  -0.47051
 Alpha  occ. eigenvalues --   -0.46924  -0.46565  -0.46380  -0.46240  -0.46135
 Alpha  occ. eigenvalues --   -0.46041  -0.45760  -0.45579  -0.45375  -0.44939
 Alpha  occ. eigenvalues --   -0.44849  -0.44567  -0.44401  -0.44193  -0.44005
 Alpha  occ. eigenvalues --   -0.43918  -0.43783  -0.43610  -0.43251  -0.43197
 Alpha  occ. eigenvalues --   -0.42899  -0.42841  -0.42552  -0.42220  -0.42115
 Alpha  occ. eigenvalues --   -0.42092  -0.41599  -0.41545  -0.41361  -0.41136
 Alpha  occ. eigenvalues --   -0.41083  -0.40784  -0.40652  -0.40554  -0.40439
 Alpha  occ. eigenvalues --   -0.40086  -0.39819  -0.39717  -0.39607  -0.39345
 Alpha  occ. eigenvalues --   -0.38960  -0.38721  -0.38186  -0.37945  -0.37299
 Alpha  occ. eigenvalues --   -0.37017  -0.36978  -0.36855  -0.36110  -0.35924
 Alpha  occ. eigenvalues --   -0.35769  -0.35627  -0.35555  -0.35332  -0.35299
 Alpha  occ. eigenvalues --   -0.35096  -0.34668  -0.34539  -0.34030  -0.33287
 Alpha  occ. eigenvalues --   -0.33114  -0.32407  -0.31720  -0.31326  -0.30473
 Alpha  occ. eigenvalues --   -0.29895  -0.29189  -0.27163  -0.26535  -0.23097
 Alpha  occ. eigenvalues --   -0.21730
 Alpha virt. eigenvalues --   -0.06292  -0.03348   0.02651   0.03407   0.04981
 Alpha virt. eigenvalues --    0.05046   0.06449   0.07300   0.07529   0.08139
 Alpha virt. eigenvalues --    0.09127   0.09562   0.10543   0.11179   0.11268

 Mulliken charges:
               1
     1  Mg   0.817446
     2  C    0.045176
     3  C   -0.168302
     4  C   -0.145259
     5  C   -0.198004
     6  N   -0.657948
     7  C    0.321088
     8  C   -0.176228
     9  C   -0.165393
    10  C    0.381688
    11  C   -0.308701
    12  C   -0.132201
    13  C   -0.260516
    14  C    0.582709
    15  O   -0.419489
    16  O   -0.486245
    17  N   -0.706427
    18  C    0.318010
    19  C   -0.036001
    20  C    0.106345
    21  C    0.191861
    22  C   -0.374043
    23  C   -0.134651
    24  C   -0.215676
    25  N   -0.688597
    26  C    0.234015
    27  C    0.081415
    28  C    0.045651
    29  C    0.320033
    30  C   -0.407017
    31  C   -0.274454
    32  C   -0.327332
    33  N   -0.747183
    34  C    0.258651
    35  C    0.034679
    36  C   -0.040825
    37  C    0.398653
    38  C   -0.371105
    39  C    0.374988
    40  O   -0.400665
    41  C   -0.340499
    42  C    0.652926
    43  O   -0.456528
    44  O   -0.489972
    45  C   -0.079208
    46  C   -0.000198
    47  C   -0.131420
    48  C    0.132681
    49  C   -0.365906
    50  C   -0.201160
    51  C   -0.190882
    52  C   -0.159966
    53  C   -0.073205
    54  C   -0.311533
    55  C   -0.166211
    56  C   -0.183453
    57  C   -0.162837
    58  C   -0.071782
    59  C   -0.292045
    60  C   -0.151822
    61  C   -0.180688
    62  C   -0.158727
    63  C   -0.059918
    64  C   -0.273051
    65  C   -0.330647
    66  H    0.073126
    67  H    0.093783
    68  H    0.071847
    69  H    0.139070
    70  H    0.103609
    71  H    0.085713
    72  H    0.096289
    73  H    0.121894
    74  H    0.105375
    75  H    0.070578
    76  H    0.132086
    77  H    0.139222
    78  H    0.112827
    79  H    0.119651
    80  H    0.107890
    81  H    0.101401
    82  H    0.100185
    83  H    0.115766
    84  H    0.107725
    85  H    0.127211
    86  H    0.115172
    87  H    0.115311
    88  H    0.093472
    89  H    0.111576
    90  H    0.098792
    91  H    0.106858
    92  H    0.142310
    93  H    0.152274
    94  H    0.119943
    95  H    0.165907
    96  H    0.141663
    97  H    0.115996
    98  H    0.139550
    99  H    0.112752
   100  H    0.124247
   101  H    0.096910
   102  H    0.106684
   103  H    0.102944
   104  H    0.140289
   105  H    0.106835
   106  H    0.065867
   107  H    0.071846
   108  H    0.097461
   109  H    0.084441
   110  H    0.097123
   111  H    0.066682
   112  H    0.120415
   113  H    0.117760
   114  H    0.057708
   115  H    0.067723
   116  H    0.098596
   117  H    0.114750
   118  H    0.107722
   119  H    0.084321
   120  H    0.073764
   121  H    0.049383
   122  H    0.095001
   123  H    0.108894
   124  H    0.108350
   125  H    0.049750
   126  H    0.103104
   127  H    0.081418
   128  H    0.107912
   129  H    0.064444
   130  H    0.098958
   131  H    0.062211
   132  H    0.066984
   133  H    0.102542
   134  H    0.111815
   135  H    0.107603
   136  H    0.100499
   137  H    0.096127
 Sum of Mulliken charges =   0.00000

 Dipole moment (field-independent basis, Debye):
    X=              0.8813    Y=              1.6518    Z=              0.4470  Tot=              1.9248
 Quadrupole moment (field-independent basis, Debye-Ang):
   XX=           -344.0004   YY=           -389.4652   ZZ=           -398.7940
   XY=            -15.0997   XZ=              7.7839   YZ=             -4.3400

 Normal termination of Gaussian 09 at Sun Jun 30 05:26:25 2019.
