 Gaussian 09, Revision D.01,
 Gaussian 09:  ES64L-G09RevD.01 24-Apr-2013

 -------------------------------------
 # td=(NStates=1) CAM-B3LYP/6-31G(d,p)
 -------------------------------------

 --
 TD
 --
 Symbolic Z-matrix:
 Charge =  0 Multiplicity = 1

                         Standard orientation:
 ---------------------------------------------------------------------
 Center     Atomic      Atomic             Coordinates (Angstroms)
 Number     Number       Type             X           Y           Z
 ---------------------------------------------------------------------
      1         12           0       -7.108847    0.687721    0.089690
      2          6           0       -4.917757   -1.918183    0.543325
      3          6           0       -4.770127    2.772612    1.414197
      4          6           0       -9.330049    3.130856   -0.381034
      5          6           0       -9.536502   -1.727858   -0.965734
      6          7           0       -5.167330    0.448306    0.805791
      7          6           0       -4.407602   -0.719428    0.757096
      8          6           0       -2.986918   -0.461765    1.261677
      9          6           0       -3.025783    1.007799    1.740352
     10          6           0       -4.346060    1.502480    1.328744
     11          6           0       -2.787862    1.229300    3.322557
     12          6           0       -2.063415   -0.740857    0.141378
     13          6           0       -0.566061   -0.481126    0.542513
     14          6           0        0.443957   -0.687053   -0.559409
     15          8           0        0.296257   -1.129997   -1.691249
     16          8           0        1.705059   -0.371235   -0.136659
     17          7           0       -7.066914    2.568101    0.442215
     18          6           0       -5.993362    3.355569    0.856959
     19          6           0       -6.300981    4.782846    0.888729
     20          6           0       -7.658518    4.882715    0.421191
     21          6           0       -8.098675    3.508006    0.104767
     22          6           0       -5.449729    5.921123    1.384699
     23          6           0       -8.506234    5.942617    0.325529
     24          6           0       -8.193023    7.210228    0.026017
     25          7           0       -9.093453    0.661919   -0.412282
     26          6           0       -9.788388    1.816639   -0.646371
     27          6           0      -11.080778    1.497047   -1.139194
     28          6           0      -11.129052    0.072124   -1.385890
     29          6           0       -9.830810   -0.364408   -0.870317
     30          6           0      -12.153844    2.499939   -1.410494
     31          6           0      -12.244245   -0.675479   -1.912446
     32          6           0      -12.156392   -0.984026   -3.388603
     33          7           0       -7.197978   -1.450850   -0.189326
     34          6           0       -8.255232   -2.187701   -0.614932
     35          6           0       -7.902207   -3.578876   -0.570463
     36          6           0       -6.537834   -3.489738   -0.204421
     37          6           0       -6.214356   -2.268402    0.085015
     38          6           0       -8.630598   -4.861950   -0.805153
     39          6           0       -5.449708   -4.387134    0.064728
     40          8           0       -5.302761   -5.643164    0.109940
     41          6           0       -4.271709   -3.305993    0.579685
     42          6           0       -3.648151   -3.635366    1.894827
     43          8           0       -3.964438   -3.296226    3.008224
     44          8           0       -2.789491   -4.723752    1.721292
     45          6           0       -2.174947   -5.096206    2.937145
     46          6           0        2.816948   -0.652190   -1.152175
     47          6           0        4.111088   -0.371504   -0.517740
     48          6           0        5.107036    0.523763   -0.945704
     49          6           0        5.138271    1.303328   -2.185303
     50          6           0        6.411629    0.480384   -0.255359
     51          6           0        7.522707   -0.194080   -0.989895
     52          6           0        8.807676   -0.012630   -0.102068
     53          6           0       10.141190   -0.563956   -0.785967
     54          6           0       10.101028   -2.137300   -1.136913
     55          6           0       11.394603   -0.187870   -0.010655
     56          6           0       12.710001   -0.474042   -0.792812
     57          6           0       13.886350   -0.202096    0.036742
     58          6           0       15.319996   -0.315202   -0.443996
     59          6           0       15.638511   -1.729401   -0.856537
     60          6           0       16.392045    0.246227    0.393961
     61          6           0       17.768980    0.537791   -0.190278
     62          6           0       18.731490    1.319476    0.784225
     63          6           0       20.229685    1.321073    0.296626
     64          6           0       20.314757    2.099766   -1.136276
     65          6           0       21.134354    2.075650    1.174731
     66          1           0       -3.995558    3.387451    1.902375
     67          1           0      -10.199954    3.952616   -0.458058
     68          1           0      -10.241265   -2.483538   -1.345177
     69          1           0       -2.608008   -1.064349    2.081102
     70          1           0       -2.230354    1.656714    1.250437
     71          1           0       -1.937221    0.847336    3.679992
     72          1           0       -2.802175    2.297765    3.610419
     73          1           0       -3.664057    0.799910    3.988590
     74          1           0       -1.915922   -1.804026   -0.039103
     75          1           0       -2.321076   -0.266339   -0.809410
     76          1           0       -0.544706    0.595050    0.763594
     77          1           0       -0.312679   -1.221987    1.410291
     78          1           0       -5.206703    6.466678    0.321879
     79          1           0       -6.003061    6.584418    2.021877
     80          1           0       -4.523751    5.609326    1.875612
     81          1           0       -9.541000    5.747326    0.426477
     82          1           0       -9.023395    8.069506    0.022066
     83          1           0       -7.218162    7.629570    0.019939
     84          1           0      -11.736962    3.264912   -2.278409
     85          1           0      -13.069258    2.130628   -1.768249
     86          1           0      -12.309569    3.252685   -0.496863
     87          1           0      -12.238467   -1.643660   -1.468172
     88          1           0      -13.248506   -0.229454   -1.669016
     89          1           0      -12.739792   -1.836211   -3.880489
     90          1           0      -12.279677    0.166063   -3.951892
     91          1           0      -11.123141   -1.287866   -3.524216
     92          1           0       -9.199436   -4.699079   -1.779066
     93          1           0       -7.909557   -5.708143   -0.945297
     94          1           0       -9.370390   -5.094758   -0.057907
     95          1           0       -3.509684   -3.454413   -0.138409
     96          1           0       -1.399637   -4.329861    3.423198
     97          1           0       -2.772411   -5.439606    4.028382
     98          1           0       -1.648741   -5.991331    2.560366
     99          1           0        2.892500   -1.681980   -1.702773
    100          1           0        2.530822    0.037319   -2.052005
    101          1           0        4.447745   -0.892732    0.294171
    102          1           0        4.179040    1.218496   -2.838591
    103          1           0        5.259730    2.266107   -1.928818
    104          1           0        6.030938    0.978183   -2.764941
    105          1           0        6.731919    1.440369    0.075469
    106          1           0        6.420855    0.026463    0.692244
    107          1           0        7.439866   -1.299242   -1.064234
    108          1           0        7.902481    0.216305   -2.121892
    109          1           0        8.912321    1.045747   -0.068952
    110          1           0        8.753788   -0.318590    1.064207
    111          1           0       10.228615   -0.008737   -1.889200
    112          1           0        9.263715   -2.321218   -1.796644
    113          1           0       10.865047   -2.487908   -1.847228
    114          1           0        9.975445   -2.814356   -0.325510
    115          1           0       11.484326    0.897010    0.237640
    116          1           0       11.516489   -0.761477    1.016187
    117          1           0       12.636029   -1.586270   -0.930046
    118          1           0       12.650429   -0.007124   -1.786031
    119          1           0       13.771045    0.705818    0.401878
    120          1           0       13.824841   -0.864461    0.824151
    121          1           0       15.200083    0.004261   -1.666031
    122          1           0       15.554488   -2.343653    0.035388
    123          1           0       15.145987   -2.272885   -1.599796
    124          1           0       16.723735   -1.855040   -1.255640
    125          1           0       16.184034    1.256529    0.896433
    126          1           0       16.275680   -0.480204    1.158047
    127          1           0       18.219882   -0.458167   -0.463468
    128          1           0       17.745068    0.956139   -1.105069
    129          1           0       18.443662    2.444048    0.714105
    130          1           0       18.681577    1.067821    1.764345
    131          1           0       20.610145    0.257983    0.090855
    132          1           0       19.975802    3.204113   -1.129445
    133          1           0       21.420712    1.924432   -1.488903
    134          1           0       19.779195    1.589040   -1.959379
    135          1           0       21.387373    1.444609    2.002671
    136          1           0       22.154086    2.258165    0.778853
    137          1           0       20.761307    3.016510    1.559995
 ---------------------------------------------------------------------

 SCF Done:  E(RCAM-B3LYP) =  -2932.72283628     A.U. after   17 cycles

 Excitation energies and oscillator strengths:

 Excited State   1:      Singlet-A      2.0808 eV  595.86 nm  f=0.2662  <S**2>=0.000
     240 -> 242        0.18817
     240 -> 243        0.22179
     241 -> 242        0.62948
 This state for optimization and/or second-order correction.
 Total Energy, E(TD-HF/TD-KS) =  -2932.64636934
 Copying the excited state density for this state as the 1-particle RhoCI density.

 The electronic state is 1-A.
 Alpha  occ. eigenvalues --  -46.83615 -19.25453 -19.25307 -19.20627 -19.20424
 Alpha  occ. eigenvalues --  -19.20236 -14.40895 -14.40622 -14.39928 -14.38222
 Alpha  occ. eigenvalues --  -10.38765 -10.38188 -10.35550 -10.32977 -10.32213
 Alpha  occ. eigenvalues --  -10.32044 -10.30681 -10.30606 -10.29860 -10.29499
 Alpha  occ. eigenvalues --  -10.29296 -10.29181 -10.29015 -10.28869 -10.28686
 Alpha  occ. eigenvalues --  -10.28640 -10.28579 -10.28532 -10.28259 -10.28165
 Alpha  occ. eigenvalues --  -10.28062 -10.27892 -10.27590 -10.27536 -10.27390
 Alpha  occ. eigenvalues --  -10.27372 -10.27365 -10.27254 -10.27131 -10.26983
 Alpha  occ. eigenvalues --  -10.26908 -10.26731 -10.26679 -10.26678 -10.26591
 Alpha  occ. eigenvalues --  -10.26514 -10.26447 -10.26410 -10.26211 -10.26090
 Alpha  occ. eigenvalues --  -10.25991 -10.25727 -10.25515 -10.25393 -10.25307
 Alpha  occ. eigenvalues --  -10.25172 -10.25074 -10.25038 -10.24723 -10.24645
 Alpha  occ. eigenvalues --  -10.24527 -10.23867 -10.23757 -10.23648 -10.22398
 Alpha  occ. eigenvalues --   -3.12852  -1.87539  -1.87107  -1.87040  -1.17028
 Alpha  occ. eigenvalues --   -1.15953  -1.08425  -1.08020  -1.06692  -1.05850
 Alpha  occ. eigenvalues --   -1.03986  -1.02493  -1.01428  -0.92674  -0.91894
 Alpha  occ. eigenvalues --   -0.91500  -0.90924  -0.90305  -0.89833  -0.88851
 Alpha  occ. eigenvalues --   -0.88726  -0.88314  -0.87864  -0.87274  -0.85929
 Alpha  occ. eigenvalues --   -0.85530  -0.84500  -0.84007  -0.83378  -0.82946
 Alpha  occ. eigenvalues --   -0.81723  -0.81293  -0.80558  -0.80190  -0.78860
 Alpha  occ. eigenvalues --   -0.78422  -0.76870  -0.76345  -0.75706  -0.75560
 Alpha  occ. eigenvalues --   -0.75475  -0.74241  -0.74211  -0.73490  -0.73060
 Alpha  occ. eigenvalues --   -0.71867  -0.70721  -0.69814  -0.69351  -0.68787
 Alpha  occ. eigenvalues --   -0.67789  -0.67329  -0.65613  -0.65157  -0.64768
 Alpha  occ. eigenvalues --   -0.63347  -0.62871  -0.62429  -0.61883  -0.61493
 Alpha  occ. eigenvalues --   -0.61260  -0.60554  -0.60317  -0.59870  -0.59492
 Alpha  occ. eigenvalues --   -0.59129  -0.58071  -0.58047  -0.56873  -0.56613
 Alpha  occ. eigenvalues --   -0.56417  -0.55887  -0.55761  -0.54907  -0.54600
 Alpha  occ. eigenvalues --   -0.53854  -0.53564  -0.53356  -0.53267  -0.53169
 Alpha  occ. eigenvalues --   -0.52795  -0.52646  -0.52104  -0.51959  -0.51556
 Alpha  occ. eigenvalues --   -0.51464  -0.51362  -0.51136  -0.50728  -0.50618
 Alpha  occ. eigenvalues --   -0.50338  -0.50268  -0.49872  -0.49728  -0.49610
 Alpha  occ. eigenvalues --   -0.49238  -0.48942  -0.48788  -0.48655  -0.48323
 Alpha  occ. eigenvalues --   -0.48173  -0.48129  -0.47951  -0.47448  -0.47359
 Alpha  occ. eigenvalues --   -0.47127  -0.46685  -0.46610  -0.46282  -0.46227
 Alpha  occ. eigenvalues --   -0.45929  -0.45791  -0.45409  -0.45232  -0.45133
 Alpha  occ. eigenvalues --   -0.44924  -0.44861  -0.44355  -0.44186  -0.44148
 Alpha  occ. eigenvalues --   -0.43902  -0.43757  -0.43440  -0.43326  -0.43105
 Alpha  occ. eigenvalues --   -0.43054  -0.42865  -0.42549  -0.42421  -0.42118
 Alpha  occ. eigenvalues --   -0.42038  -0.41694  -0.41616  -0.41346  -0.41253
 Alpha  occ. eigenvalues --   -0.41008  -0.40964  -0.40702  -0.40594  -0.40538
 Alpha  occ. eigenvalues --   -0.40431  -0.40243  -0.40106  -0.40043  -0.39756
 Alpha  occ. eigenvalues --   -0.39352  -0.38901  -0.38688  -0.38404  -0.38236
 Alpha  occ. eigenvalues --   -0.37873  -0.37790  -0.37475  -0.37188  -0.37019
 Alpha  occ. eigenvalues --   -0.36527  -0.36357  -0.35862  -0.35748  -0.35542
 Alpha  occ. eigenvalues --   -0.35143  -0.34146  -0.34139  -0.33535  -0.33220
 Alpha  occ. eigenvalues --   -0.32902  -0.32741  -0.32457  -0.31380  -0.29671
 Alpha  occ. eigenvalues --   -0.28779  -0.28624  -0.28038  -0.27443  -0.23408
 Alpha  occ. eigenvalues --   -0.22435
 Alpha virt. eigenvalues --   -0.07688  -0.03797   0.01746   0.03456   0.05175
 Alpha virt. eigenvalues --    0.05233   0.05554   0.06262   0.06600   0.07324
 Alpha virt. eigenvalues --    0.08658   0.10161   0.10858   0.11042   0.11172

 Mulliken charges:
               1
     1  Mg   0.833181
     2  C    0.138861
     3  C   -0.215475
     4  C   -0.183494
     5  C   -0.131523
     6  N   -0.669294
     7  C    0.276447
     8  C   -0.141491
     9  C   -0.159445
    10  C    0.368966
    11  C   -0.320270
    12  C   -0.186419
    13  C   -0.274378
    14  C    0.605613
    15  O   -0.483098
    16  O   -0.495979
    17  N   -0.726984
    18  C    0.297786
    19  C    0.016407
    20  C    0.062279
    21  C    0.296798
    22  C   -0.359179
    23  C   -0.101049
    24  C   -0.246676
    25  N   -0.704453
    26  C    0.313370
    27  C    0.020056
    28  C    0.037124
    29  C    0.301666
    30  C   -0.371584
    31  C   -0.258064
    32  C   -0.289578
    33  N   -0.718584
    34  C    0.254995
    35  C    0.035899
    36  C    0.009914
    37  C    0.295839
    38  C   -0.383771
    39  C    0.356633
    40  O   -0.484283
    41  C   -0.346904
    42  C    0.625259
    43  O   -0.460844
    44  O   -0.450459
    45  C   -0.064210
    46  C    0.012206
    47  C   -0.114769
    48  C    0.107888
    49  C   -0.356488
    50  C   -0.236215
    51  C   -0.163979
    52  C   -0.186014
    53  C   -0.046184
    54  C   -0.336314
    55  C   -0.167100
    56  C   -0.187306
    57  C   -0.141282
    58  C   -0.067458
    59  C   -0.312821
    60  C   -0.162557
    61  C   -0.173909
    62  C   -0.169173
    63  C   -0.059415
    64  C   -0.312897
    65  C   -0.305490
    66  H    0.075532
    67  H    0.100103
    68  H    0.111567
    69  H    0.121915
    70  H    0.108357
    71  H    0.125742
    72  H    0.106230
    73  H    0.116106
    74  H    0.128088
    75  H    0.123973
    76  H    0.134300
    77  H    0.135333
    78  H    0.112822
    79  H    0.140193
    80  H    0.122619
    81  H    0.100670
    82  H    0.091849
    83  H    0.105093
    84  H    0.097328
    85  H    0.121945
    86  H    0.102946
    87  H    0.109396
    88  H    0.108940
    89  H    0.106142
    90  H    0.070547
    91  H    0.112504
    92  H    0.107082
    93  H    0.157456
    94  H    0.140387
    95  H    0.157000
    96  H    0.092195
    97  H    0.095006
    98  H    0.119085
    99  H    0.132921
   100  H    0.118229
   101  H    0.085513
   102  H    0.098987
   103  H    0.129936
   104  H    0.120885
   105  H    0.103123
   106  H    0.113039
   107  H    0.110517
   108  H    0.069965
   109  H    0.106040
   110  H    0.076039
   111  H    0.056240
   112  H    0.101668
   113  H    0.109410
   114  H    0.112351
   115  H    0.086505
   116  H    0.074087
   117  H    0.092081
   118  H    0.088921
   119  H    0.094136
   120  H    0.086480
   121  H    0.032230
   122  H    0.082610
   123  H    0.115080
   124  H    0.084442
   125  H    0.080170
   126  H    0.096927
   127  H    0.083119
   128  H    0.115742
   129  H    0.077424
   130  H    0.102139
   131  H    0.083122
   132  H    0.097387
   133  H    0.083735
   134  H    0.096765
   135  H    0.098467
   136  H    0.099467
   137  H    0.105324
 Sum of Mulliken charges =   0.00000

 Dipole moment (field-independent basis, Debye):
    X=              0.4328    Y=              6.6360    Z=              0.0083  Tot=              6.6501
 Quadrupole moment (field-independent basis, Debye-Ang):
   XX=           -329.5416   YY=           -395.3601   ZZ=           -400.0170
   XY=            -32.0576   XZ=             18.7136   YZ=              7.5028

 Normal termination of Gaussian 09 at Sun Jun 30 05:53:58 2019.
