 Gaussian 09, Revision D.01,
 Gaussian 09:  ES64L-G09RevD.01 24-Apr-2013

 -------------------------------------
 # td=(NStates=1) CAM-B3LYP/6-31G(d,p)
 -------------------------------------

 --
 TD
 --
 Symbolic Z-matrix:
 Charge =  0 Multiplicity = 1

                         Standard orientation:
 ---------------------------------------------------------------------
 Center     Atomic      Atomic             Coordinates (Angstroms)
 Number     Number       Type             X           Y           Z
 ---------------------------------------------------------------------
      1         12           0       -7.082886    0.600879    0.147182
      2          6           0       -4.948869   -2.088349    0.468594
      3          6           0       -4.786220    2.787738    1.197286
      4          6           0       -9.387679    3.152644   -0.253524
      5          6           0       -9.479644   -1.734035   -0.921093
      6          7           0       -5.002138    0.323715    0.730248
      7          6           0       -4.291405   -0.764281    0.786350
      8          6           0       -2.892889   -0.554558    1.095914
      9          6           0       -2.992829    0.949693    1.651156
     10          6           0       -4.417169    1.472405    1.194039
     11          6           0       -2.903743    1.036755    3.169734
     12          6           0       -1.959134   -0.626967   -0.017626
     13          6           0       -0.512331   -0.437912    0.549203
     14          6           0        0.493604   -0.553085   -0.602593
     15          8           0        0.200864   -0.727267   -1.735396
     16          8           0        1.735907   -0.349353   -0.132894
     17          7           0       -7.096496    2.634474    0.284797
     18          6           0       -6.077308    3.340998    0.803165
     19          6           0       -6.430049    4.790321    0.918559
     20          6           0       -7.742954    4.819654    0.537840
     21          6           0       -8.112564    3.503454    0.174029
     22          6           0       -5.495808    5.842714    1.404092
     23          6           0       -8.749607    5.957619    0.510233
     24          6           0       -8.288755    7.191967    0.203248
     25          7           0       -9.109778    0.632770   -0.413758
     26          6           0       -9.861560    1.817487   -0.571182
     27          6           0      -11.209094    1.489699   -1.071186
     28          6           0      -11.269649    0.162887   -1.277375
     29          6           0       -9.956387   -0.397984   -0.930391
     30          6           0      -12.300065    2.491290   -1.337937
     31          6           0      -12.456614   -0.625173   -1.796824
     32          6           0      -12.260889   -1.015132   -3.294018
     33          7           0       -7.228589   -1.447691   -0.099345
     34          6           0       -8.281262   -2.255487   -0.565670
     35          6           0       -7.817645   -3.643740   -0.524517
     36          6           0       -6.508346   -3.585765   -0.104842
     37          6           0       -6.195006   -2.209668    0.125647
     38          6           0       -8.660882   -4.800025   -0.939092
     39          6           0       -5.361524   -4.447020    0.206489
     40          8           0       -5.158860   -5.619888    0.101729
     41          6           0       -4.151224   -3.257340    0.546528
     42          6           0       -3.622808   -3.771162    1.942544
     43          8           0       -3.753408   -3.227279    3.046158
     44          8           0       -2.805526   -4.787082    1.751626
     45          6           0       -2.247706   -5.253774    2.936107
     46          6           0        2.764545   -0.406527   -1.218725
     47          6           0        4.165492   -0.297039   -0.600637
     48          6           0        5.191146    0.485365   -1.050293
     49          6           0        5.181030    1.257782   -2.254797
     50          6           0        6.396462    0.414507   -0.260787
     51          6           0        7.617613   -0.109955   -1.039448
     52          6           0        8.923515   -0.046365   -0.140008
     53          6           0       10.148591   -0.432291   -0.975029
     54          6           0       10.083979   -1.967528   -1.475139
     55          6           0       11.352113   -0.247259   -0.116703
     56          6           0       12.749742   -0.579612   -0.785029
     57          6           0       13.998371   -0.084357    0.158784
     58          6           0       15.419727   -0.166183   -0.513986
     59          6           0       15.699859   -1.637044   -0.949529
     60          6           0       16.468928    0.365554    0.470311
     61          6           0       17.843439    0.561313   -0.130258
     62          6           0       18.886924    1.252734    0.835149
     63          6           0       20.279413    1.319050    0.361446
     64          6           0       20.381557    2.087109   -0.993481
     65          6           0       21.261814    1.709849    1.443046
     66          1           0       -4.014768    3.386987    1.479759
     67          1           0      -10.030281    3.821106   -0.540547
     68          1           0      -10.143473   -2.651392   -1.219748
     69          1           0       -2.537301   -1.259958    1.927737
     70          1           0       -2.384233    1.594885    1.187984
     71          1           0       -1.903474    0.484115    3.652887
     72          1           0       -2.820332    2.170919    3.561995
     73          1           0       -3.974517    0.739151    3.593745
     74          1           0       -2.057201   -1.503486   -0.790434
     75          1           0       -2.290816    0.214573   -0.681586
     76          1           0       -0.188604    0.468258    1.049774
     77          1           0       -0.370935   -1.352206    1.268729
     78          1           0       -5.079641    6.487010    0.650713
     79          1           0       -6.312966    6.621311    1.586881
     80          1           0       -4.784898    5.400132    2.115519
     81          1           0       -9.733675    5.875554    0.732850
     82          1           0       -8.765674    8.114018    0.294021
     83          1           0       -7.349420    7.495535   -0.029221
     84          1           0      -11.886179    3.203361   -2.035946
     85          1           0      -13.368949    2.273616   -1.988949
     86          1           0      -12.474367    3.119873   -0.475278
     87          1           0      -12.497285   -1.556443   -1.082074
     88          1           0      -13.314977   -0.074722   -1.661281
     89          1           0      -13.146160   -1.631162   -3.516154
     90          1           0      -12.348712    0.046570   -3.879731
     91          1           0      -11.490556   -1.692866   -3.459192
     92          1           0       -9.062083   -4.765421   -1.905236
     93          1           0       -8.141106   -5.677465   -0.802109
     94          1           0       -9.646964   -4.953565   -0.251007
     95          1           0       -3.335485   -3.318486   -0.063385
     96          1           0       -1.770255   -4.604985    3.555760
     97          1           0       -3.018652   -5.841017    3.388677
     98          1           0       -1.473135   -5.909419    2.532437
     99          1           0        2.479783   -1.313910   -1.967834
    100          1           0        2.534475    0.253418   -1.966981
    101          1           0        4.294390   -0.787409    0.434035
    102          1           0        4.181010    1.414069   -2.859737
    103          1           0        5.793618    2.219830   -1.974094
    104          1           0        5.610079    0.630701   -3.095716
    105          1           0        6.779966    1.352818    0.213256
    106          1           0        6.242742   -0.214777    0.687213
    107          1           0        7.274258   -1.009264   -1.511645
    108          1           0        7.842473    0.709616   -1.923227
    109          1           0        9.041407    1.111708    0.318242
    110          1           0        8.888083   -0.791657    0.606088
    111          1           0       10.287242    0.309731   -1.934035
    112          1           0        9.284270   -2.051628   -2.131329
    113          1           0       10.951936   -2.115895   -1.982745
    114          1           0       10.019801   -2.789026   -0.746146
    115          1           0       11.211079    0.944280    0.235745
    116          1           0       11.186375   -0.991160    0.776746
    117          1           0       12.757738   -1.664982   -1.028910
    118          1           0       12.657114    0.083983   -1.751191
    119          1           0       14.038017    0.975198    0.506180
    120          1           0       13.877592   -0.714576    0.982767
    121          1           0       15.352669    0.387419   -1.377610
    122          1           0       15.688525   -2.113722   -0.179019
    123          1           0       14.940712   -2.081716   -1.677101
    124          1           0       16.705570   -1.883292   -1.338481
    125          1           0       16.191827    1.185948    1.079760
    126          1           0       16.705938   -0.336400    1.191930
    127          1           0       18.289269   -0.388150   -0.597094
    128          1           0       17.387317    1.289392   -1.181037
    129          1           0       18.482527    2.233169    1.201023
    130          1           0       18.787755    0.584315    1.877048
    131          1           0       20.594663    0.284157    0.037205
    132          1           0       20.082573    3.128911   -0.696596
    133          1           0       21.381720    2.219478   -1.357671
    134          1           0       19.642223    1.550057   -1.692898
    135          1           0       21.317629    1.032771    2.361342
    136          1           0       22.330695    1.809868    1.020780
    137          1           0       20.834372    2.696038    1.847945
 ---------------------------------------------------------------------

 SCF Done:  E(RCAM-B3LYP) =  -2932.63368073     A.U. after   18 cycles

 Excitation energies and oscillator strengths:

 Excited State   1:      Singlet-A      2.0482 eV  605.34 nm  f=0.2380  <S**2>=0.000
     240 -> 243       -0.27279
     241 -> 242        0.64981
 This state for optimization and/or second-order correction.
 Total Energy, E(TD-HF/TD-KS) =  -2932.55841213
 Copying the excited state density for this state as the 1-particle RhoCI density.

 The electronic state is 1-A.
 Alpha  occ. eigenvalues --  -46.85216 -19.26451 -19.26420 -19.21872 -19.21141
 Alpha  occ. eigenvalues --  -19.19895 -14.41752 -14.39890 -14.39379 -14.38230
 Alpha  occ. eigenvalues --  -10.38668 -10.38616 -10.36038 -10.32333 -10.31188
 Alpha  occ. eigenvalues --  -10.30444 -10.30019 -10.29453 -10.29345 -10.28878
 Alpha  occ. eigenvalues --  -10.28825 -10.28748 -10.28443 -10.28438 -10.27962
 Alpha  occ. eigenvalues --  -10.27942 -10.27837 -10.27614 -10.27496 -10.27495
 Alpha  occ. eigenvalues --  -10.27310 -10.27243 -10.27214 -10.27213 -10.27132
 Alpha  occ. eigenvalues --  -10.27096 -10.27089 -10.27069 -10.27061 -10.26961
 Alpha  occ. eigenvalues --  -10.26921 -10.26885 -10.26725 -10.26722 -10.26390
 Alpha  occ. eigenvalues --  -10.26232 -10.26218 -10.26177 -10.26116 -10.26075
 Alpha  occ. eigenvalues --  -10.26035 -10.26014 -10.25933 -10.25858 -10.25718
 Alpha  occ. eigenvalues --  -10.25634 -10.25497 -10.25452 -10.25336 -10.25316
 Alpha  occ. eigenvalues --  -10.25169 -10.24846 -10.23984 -10.23813 -10.22835
 Alpha  occ. eigenvalues --   -3.14007  -1.88735  -1.88223  -1.88183  -1.19779
 Alpha  occ. eigenvalues --   -1.18543  -1.12917  -1.10030  -1.07750  -1.05529
 Alpha  occ. eigenvalues --   -1.04611  -1.03958  -0.99994  -0.93057  -0.92280
 Alpha  occ. eigenvalues --   -0.90629  -0.90434  -0.89556  -0.89305  -0.88609
 Alpha  occ. eigenvalues --   -0.88454  -0.87736  -0.87544  -0.87018  -0.85217
 Alpha  occ. eigenvalues --   -0.84642  -0.83780  -0.83655  -0.82825  -0.82408
 Alpha  occ. eigenvalues --   -0.81972  -0.81237  -0.80195  -0.79499  -0.78637
 Alpha  occ. eigenvalues --   -0.78235  -0.76891  -0.76797  -0.76060  -0.76018
 Alpha  occ. eigenvalues --   -0.75256  -0.75170  -0.74636  -0.73030  -0.72161
 Alpha  occ. eigenvalues --   -0.71557  -0.70031  -0.69472  -0.68894  -0.68695
 Alpha  occ. eigenvalues --   -0.68046  -0.66054  -0.65801  -0.64876  -0.64579
 Alpha  occ. eigenvalues --   -0.64466  -0.64072  -0.63565  -0.62328  -0.61757
 Alpha  occ. eigenvalues --   -0.61241  -0.61039  -0.60305  -0.59881  -0.59497
 Alpha  occ. eigenvalues --   -0.58798  -0.58388  -0.58039  -0.57331  -0.56689
 Alpha  occ. eigenvalues --   -0.56235  -0.56036  -0.55210  -0.54667  -0.54503
 Alpha  occ. eigenvalues --   -0.54084  -0.53949  -0.53689  -0.53520  -0.53241
 Alpha  occ. eigenvalues --   -0.52871  -0.52518  -0.52174  -0.52061  -0.51955
 Alpha  occ. eigenvalues --   -0.51568  -0.51410  -0.51156  -0.50933  -0.50759
 Alpha  occ. eigenvalues --   -0.50559  -0.50357  -0.49934  -0.49669  -0.49551
 Alpha  occ. eigenvalues --   -0.49375  -0.49117  -0.48810  -0.48549  -0.48199
 Alpha  occ. eigenvalues --   -0.48026  -0.47885  -0.47606  -0.47367  -0.47309
 Alpha  occ. eigenvalues --   -0.47027  -0.46940  -0.46634  -0.46460  -0.45872
 Alpha  occ. eigenvalues --   -0.45745  -0.45601  -0.45509  -0.45219  -0.45115
 Alpha  occ. eigenvalues --   -0.44621  -0.44472  -0.44088  -0.44009  -0.43913
 Alpha  occ. eigenvalues --   -0.43716  -0.43657  -0.43504  -0.43462  -0.43203
 Alpha  occ. eigenvalues --   -0.42986  -0.42794  -0.42552  -0.42469  -0.42123
 Alpha  occ. eigenvalues --   -0.41987  -0.41681  -0.41580  -0.41528  -0.41505
 Alpha  occ. eigenvalues --   -0.41367  -0.41321  -0.41195  -0.41058  -0.40816
 Alpha  occ. eigenvalues --   -0.40526  -0.40252  -0.39909  -0.39857  -0.39397
 Alpha  occ. eigenvalues --   -0.39051  -0.38715  -0.38366  -0.38156  -0.37991
 Alpha  occ. eigenvalues --   -0.37388  -0.37170  -0.37108  -0.37061  -0.36536
 Alpha  occ. eigenvalues --   -0.36350  -0.36099  -0.35790  -0.35638  -0.35242
 Alpha  occ. eigenvalues --   -0.35152  -0.34958  -0.34250  -0.33977  -0.33602
 Alpha  occ. eigenvalues --   -0.33311  -0.32534  -0.32214  -0.30710  -0.29908
 Alpha  occ. eigenvalues --   -0.29126  -0.28783  -0.28254  -0.27718  -0.23091
 Alpha  occ. eigenvalues --   -0.20318
 Alpha virt. eigenvalues --   -0.05612  -0.03128   0.01368   0.04549   0.05223
 Alpha virt. eigenvalues --    0.05924   0.06327   0.06830   0.07389   0.07762
 Alpha virt. eigenvalues --    0.08528   0.10883   0.10996   0.11265   0.11709

 Mulliken charges:
               1
     1  Mg   0.813890
     2  C    0.092987
     3  C   -0.156954
     4  C   -0.138161
     5  C   -0.209560
     6  N   -0.637854
     7  C    0.346000
     8  C   -0.169074
     9  C   -0.141330
    10  C    0.284570
    11  C   -0.284801
    12  C   -0.169222
    13  C   -0.268870
    14  C    0.617815
    15  O   -0.462337
    16  O   -0.488548
    17  N   -0.696417
    18  C    0.283068
    19  C    0.012779
    20  C    0.003192
    21  C    0.307349
    22  C   -0.370560
    23  C   -0.070431
    24  C   -0.240359
    25  N   -0.671575
    26  C    0.262633
    27  C    0.033499
    28  C    0.038015
    29  C    0.255851
    30  C   -0.387643
    31  C   -0.226065
    32  C   -0.296730
    33  N   -0.777620
    34  C    0.285777
    35  C    0.027746
    36  C   -0.006457
    37  C    0.403464
    38  C   -0.381202
    39  C    0.358477
    40  O   -0.423568
    41  C   -0.363161
    42  C    0.580563
    43  O   -0.500373
    44  O   -0.410093
    45  C   -0.084518
    46  C    0.002317
    47  C   -0.159799
    48  C    0.180555
    49  C   -0.372454
    50  C   -0.239773
    51  C   -0.174559
    52  C   -0.147724
    53  C   -0.060311
    54  C   -0.331874
    55  C   -0.139529
    56  C   -0.195701
    57  C   -0.175838
    58  C   -0.064246
    59  C   -0.311881
    60  C   -0.179760
    61  C   -0.153228
    62  C   -0.153275
    63  C   -0.058145
    64  C   -0.300298
    65  C   -0.301156
    66  H    0.076224
    67  H    0.066326
    68  H    0.077429
    69  H    0.126273
    70  H    0.104613
    71  H    0.091367
    72  H    0.083960
    73  H    0.119407
    74  H    0.125082
    75  H    0.111889
    76  H    0.146610
    77  H    0.126585
    78  H    0.130857
    79  H    0.113498
    80  H    0.121981
    81  H    0.104169
    82  H    0.100037
    83  H    0.098831
    84  H    0.130148
    85  H    0.095609
    86  H    0.125999
    87  H    0.089658
    88  H    0.110130
    89  H    0.100103
    90  H    0.095484
    91  H    0.123193
    92  H    0.138782
    93  H    0.147861
    94  H    0.105072
    95  H    0.146568
    96  H    0.137340
    97  H    0.130922
    98  H    0.111609
    99  H    0.112467
   100  H    0.130006
   101  H    0.094255
   102  H    0.108071
   103  H    0.112979
   104  H    0.130453
   105  H    0.091897
   106  H    0.092922
   107  H    0.109684
   108  H    0.070318
   109  H    0.069512
   110  H    0.106374
   111  H    0.059937
   112  H    0.111787
   113  H    0.115458
   114  H    0.100336
   115  H    0.057477
   116  H    0.069150
   117  H    0.106108
   118  H    0.078666
   119  H    0.090515
   120  H    0.101490
   121  H    0.096971
   122  H    0.117460
   123  H    0.090769
   124  H    0.088295
   125  H    0.096707
   126  H    0.097648
   127  H    0.095085
   128  H    0.025001
   129  H    0.093590
   130  H    0.059876
   131  H    0.079548
   132  H    0.089459
   133  H    0.103909
   134  H    0.113259
   135  H    0.100909
   136  H    0.093983
   137  H    0.086548
 Sum of Mulliken charges =   0.00000

 Dipole moment (field-independent basis, Debye):
    X=              2.4444    Y=              3.3827    Z=             -0.3057  Tot=              4.1847
 Quadrupole moment (field-independent basis, Debye-Ang):
   XX=           -351.6205   YY=           -386.7021   ZZ=           -402.1825
   XY=            -27.8189   XZ=             18.5593   YZ=              0.0665

 Normal termination of Gaussian 09 at Mon Jul  1 03:09:14 2019.
