 Gaussian 09, Revision D.01,
 Gaussian 09:  ES64L-G09RevD.01 24-Apr-2013

 -------------------------------------
 # td=(NStates=1) CAM-B3LYP/6-31G(d,p)
 -------------------------------------

 --
 TD
 --
 Symbolic Z-matrix:
 Charge =  0 Multiplicity = 1

                         Standard orientation:
 ---------------------------------------------------------------------
 Center     Atomic      Atomic             Coordinates (Angstroms)
 Number     Number       Type             X           Y           Z
 ---------------------------------------------------------------------
      1         12           0       -7.154489    0.610700    0.148294
      2          6           0       -4.805956   -2.004339    0.455392
      3          6           0       -4.809539    2.789625    1.254817
      4          6           0       -9.417845    3.043068   -0.292029
      5          6           0       -9.492984   -1.682988   -0.769938
      6          7           0       -5.066936    0.487837    0.728388
      7          6           0       -4.345853   -0.699305    0.865757
      8          6           0       -2.812723   -0.344749    1.152592
      9          6           0       -3.061689    1.056402    1.677118
     10          6           0       -4.366195    1.459487    1.216987
     11          6           0       -2.806573    1.130060    3.157453
     12          6           0       -1.965288   -0.500057   -0.030333
     13          6           0       -0.477605   -0.485351    0.430496
     14          6           0        0.486399   -0.643369   -0.701867
     15          8           0        0.164830   -1.101242   -1.830624
     16          8           0        1.784748   -0.335256   -0.351381
     17          7           0       -7.154393    2.633067    0.467594
     18          6           0       -6.134356    3.388012    0.916530
     19          6           0       -6.469053    4.791380    0.907578
     20          6           0       -7.783130    4.854991    0.359166
     21          6           0       -8.216914    3.472450    0.108466
     22          6           0       -5.614508    5.832601    1.399892
     23          6           0       -8.636504    6.024496    0.210775
     24          6           0       -8.244321    7.281313    0.118378
     25          7           0       -9.184770    0.592961   -0.466377
     26          6           0       -9.893553    1.783014   -0.558989
     27          6           0      -11.198755    1.397716   -1.081616
     28          6           0      -11.212928    0.071409   -1.284379
     29          6           0       -9.869453   -0.424595   -0.884719
     30          6           0      -12.232879    2.386524   -1.310865
     31          6           0      -12.409186   -0.741731   -1.663612
     32          6           0      -12.281853   -1.033662   -3.133534
     33          7           0       -7.149781   -1.407371   -0.166432
     34          6           0       -8.272019   -2.249395   -0.480633
     35          6           0       -7.861082   -3.559506   -0.426127
     36          6           0       -6.432929   -3.518492   -0.117190
     37          6           0       -6.192273   -2.217272    0.127280
     38          6           0       -8.629130   -4.749037   -0.812476
     39          6           0       -5.365996   -4.369717    0.232849
     40          8           0       -5.229112   -5.639748    0.175433
     41          6           0       -4.180058   -3.368902    0.555151
     42          6           0       -3.469070   -3.732360    1.887826
     43          8           0       -3.647068   -3.168080    2.928037
     44          8           0       -2.729262   -4.783409    1.762365
     45          6           0       -2.062565   -5.256080    2.915581
     46          6           0        2.850849   -0.684105   -1.288456
     47          6           0        4.110383   -0.322111   -0.628785
     48          6           0        5.116110    0.456075   -1.020945
     49          6           0        5.055394    1.288721   -2.304262
     50          6           0        6.406145    0.455467   -0.282863
     51          6           0        7.556465   -0.119677   -1.021509
     52          6           0        8.896729   -0.108356   -0.202658
     53          6           0       10.133954   -0.558858   -0.973743
     54          6           0       10.019132   -2.099023   -1.228093
     55          6           0       11.404317   -0.267867   -0.105091
     56          6           0       12.756945   -0.419720   -0.808541
     57          6           0       14.030198   -0.155559    0.085061
     58          6           0       15.406866   -0.182825   -0.510256
     59          6           0       15.749504   -1.512882   -1.271462
     60          6           0       16.457038    0.187867    0.554819
     61          6           0       17.827451    0.429560   -0.100645
     62          6           0       18.823691    1.145803    0.806590
     63          6           0       20.297973    1.350955    0.384649
     64          6           0       20.208106    2.195776   -0.833755
     65          6           0       21.138502    1.997981    1.511367
     66          1           0       -4.178055    3.320795    1.659420
     67          1           0       -9.882357    3.949151   -0.584331
     68          1           0      -10.222894   -2.475921   -1.434094
     69          1           0       -2.457944   -1.045513    2.033184
     70          1           0       -2.157048    1.616480    1.179576
     71          1           0       -1.882263    0.854208    3.340198
     72          1           0       -3.177973    2.181260    3.678255
     73          1           0       -3.356686    0.309543    3.771549
     74          1           0       -2.103947   -1.480530   -0.278510
     75          1           0       -2.310299    0.320451   -0.704017
     76          1           0       -0.556071    0.571323    0.931881
     77          1           0       -0.362948   -1.269214    1.165066
     78          1           0       -5.103728    6.511303    0.652071
     79          1           0       -6.258928    6.505777    1.942530
     80          1           0       -4.781045    5.409624    2.141032
     81          1           0       -9.782802    5.980073    0.264957
     82          1           0       -9.096877    7.935754   -0.037634
     83          1           0       -7.395913    7.764623   -0.126046
     84          1           0      -11.751642    3.224367   -1.832309
     85          1           0      -13.256827    2.206498   -1.914079
     86          1           0      -12.628889    2.770989   -0.185904
     87          1           0      -12.547219   -1.696787   -1.099517
     88          1           0      -13.452061   -0.260829   -1.754568
     89          1           0      -13.049846   -1.673037   -3.550350
     90          1           0      -12.353195   -0.228458   -3.702924
     91          1           0      -11.395152   -1.580207   -3.526607
     92          1           0       -9.012812   -4.438946   -1.848692
     93          1           0       -8.238723   -5.647475   -0.626162
     94          1           0       -9.554674   -4.849327   -0.132296
     95          1           0       -3.397159   -3.480017   -0.266146
     96          1           0       -1.735697   -4.470452    3.570967
     97          1           0       -2.836055   -5.887057    3.582500
     98          1           0       -0.958392   -5.581230    2.808949
     99          1           0        2.710439   -1.760660   -1.545178
    100          1           0        2.663970   -0.219614   -2.394809
    101          1           0        4.034976   -0.986649    0.281079
    102          1           0        4.075251    1.559423   -2.466960
    103          1           0        5.677398    2.133468   -2.322167
    104          1           0        5.411094    0.821610   -3.242567
    105          1           0        6.657231    1.484639   -0.084691
    106          1           0        6.579167   -0.061160    0.809915
    107          1           0        7.276873   -1.058851   -1.422116
    108          1           0        7.635838    0.572086   -1.930816
    109          1           0        9.147047    1.066559   -0.008985
    110          1           0        8.865442   -0.623897    0.762465
    111          1           0       10.027551    0.014763   -1.946387
    112          1           0        9.235060   -2.448517   -2.093136
    113          1           0       10.927662   -2.430253   -1.878376
    114          1           0       10.202887   -2.462376   -0.286339
    115          1           0       11.173192    0.666981    0.343776
    116          1           0       11.175961   -0.926265    0.882733
    117          1           0       12.812126   -1.337792   -1.351579
    118          1           0       12.833744    0.339105   -1.688025
    119          1           0       13.741003    0.944911    0.478673
    120          1           0       14.178045   -0.759630    1.062281
    121          1           0       15.607025    0.569460   -1.245882
    122          1           0       15.907034   -2.307093   -0.376867
    123          1           0       15.077089   -1.998424   -1.994575
    124          1           0       16.596730   -1.347251   -1.897111
    125          1           0       16.092812    1.205409    1.101774
    126          1           0       16.387948   -0.667043    1.323689
    127          1           0       18.442188   -0.427871   -0.665245
    128          1           0       17.809022    0.944506   -0.999117
    129          1           0       18.601576    2.219060    1.116193
    130          1           0       18.985236    0.470847    1.819980
    131          1           0       20.640942    0.317739    0.295511
    132          1           0       19.840686    3.166705   -0.440942
    133          1           0       21.199388    2.490860   -1.169292
    134          1           0       19.553088    1.964206   -1.569635
    135          1           0       21.156599    1.302182    2.396518
    136          1           0       22.270181    2.265904    1.086590
    137          1           0       20.774258    3.130550    1.970066
 ---------------------------------------------------------------------

 SCF Done:  E(RCAM-B3LYP) =  -2932.61916702     A.U. after   18 cycles

 Excitation energies and oscillator strengths:

 Excited State   1:      Singlet-A      2.0940 eV  592.09 nm  f=0.2498  <S**2>=0.000
     240 -> 242       -0.18540
     240 -> 243        0.23636
     241 -> 242        0.62816
 This state for optimization and/or second-order correction.
 Total Energy, E(TD-HF/TD-KS) =  -2932.54221384
 Copying the excited state density for this state as the 1-particle RhoCI density.

 The electronic state is 1-A.
 Alpha  occ. eigenvalues --  -46.85284 -19.26843 -19.26367 -19.21079 -19.19732
 Alpha  occ. eigenvalues --  -19.18663 -14.41700 -14.39772 -14.39591 -14.38579
 Alpha  occ. eigenvalues --  -10.39981 -10.38604 -10.34079 -10.32640 -10.32293
 Alpha  occ. eigenvalues --  -10.31109 -10.31098 -10.30307 -10.29980 -10.29709
 Alpha  occ. eigenvalues --  -10.28612 -10.28434 -10.28420 -10.28369 -10.28331
 Alpha  occ. eigenvalues --  -10.28279 -10.28219 -10.28215 -10.28084 -10.27971
 Alpha  occ. eigenvalues --  -10.27967 -10.27772 -10.27515 -10.27400 -10.27388
 Alpha  occ. eigenvalues --  -10.27383 -10.27243 -10.27083 -10.27000 -10.26787
 Alpha  occ. eigenvalues --  -10.26638 -10.26611 -10.26493 -10.26473 -10.26452
 Alpha  occ. eigenvalues --  -10.26341 -10.26230 -10.26166 -10.26165 -10.26124
 Alpha  occ. eigenvalues --  -10.25999 -10.25986 -10.25855 -10.25810 -10.25789
 Alpha  occ. eigenvalues --  -10.25644 -10.25626 -10.25567 -10.25558 -10.25474
 Alpha  occ. eigenvalues --  -10.25384 -10.24420 -10.23704 -10.23488 -10.23378
 Alpha  occ. eigenvalues --   -3.14118  -1.88849  -1.88354  -1.88273  -1.20508
 Alpha  occ. eigenvalues --   -1.16155  -1.09513  -1.07313  -1.06403  -1.05616
 Alpha  occ. eigenvalues --   -1.05155  -1.04086  -1.03250  -0.92435  -0.91870
 Alpha  occ. eigenvalues --   -0.91626  -0.90625  -0.90283  -0.89848  -0.89657
 Alpha  occ. eigenvalues --   -0.89429  -0.88678  -0.87920  -0.87882  -0.86602
 Alpha  occ. eigenvalues --   -0.85618  -0.84779  -0.84182  -0.84040  -0.83192
 Alpha  occ. eigenvalues --   -0.82267  -0.81693  -0.80597  -0.80074  -0.78763
 Alpha  occ. eigenvalues --   -0.78483  -0.77384  -0.76137  -0.76005  -0.75678
 Alpha  occ. eigenvalues --   -0.75617  -0.75082  -0.74155  -0.73412  -0.72973
 Alpha  occ. eigenvalues --   -0.72090  -0.70886  -0.69938  -0.69249  -0.68578
 Alpha  occ. eigenvalues --   -0.68051  -0.66725  -0.66284  -0.65096  -0.64699
 Alpha  occ. eigenvalues --   -0.64270  -0.63064  -0.62915  -0.62682  -0.62509
 Alpha  occ. eigenvalues --   -0.61542  -0.61468  -0.61011  -0.60682  -0.59870
 Alpha  occ. eigenvalues --   -0.59284  -0.58778  -0.58351  -0.57071  -0.56914
 Alpha  occ. eigenvalues --   -0.56357  -0.56102  -0.55752  -0.55218  -0.55024
 Alpha  occ. eigenvalues --   -0.54874  -0.54164  -0.53923  -0.53400  -0.53152
 Alpha  occ. eigenvalues --   -0.53096  -0.53034  -0.52419  -0.52097  -0.51996
 Alpha  occ. eigenvalues --   -0.51796  -0.51593  -0.51403  -0.51089  -0.50781
 Alpha  occ. eigenvalues --   -0.50588  -0.50180  -0.49860  -0.49799  -0.49345
 Alpha  occ. eigenvalues --   -0.49252  -0.49142  -0.48791  -0.48732  -0.48311
 Alpha  occ. eigenvalues --   -0.48038  -0.47999  -0.47381  -0.47149  -0.47110
 Alpha  occ. eigenvalues --   -0.46996  -0.46730  -0.46680  -0.46128  -0.46003
 Alpha  occ. eigenvalues --   -0.45886  -0.45698  -0.45283  -0.45266  -0.44915
 Alpha  occ. eigenvalues --   -0.44676  -0.44618  -0.44495  -0.44289  -0.43987
 Alpha  occ. eigenvalues --   -0.43735  -0.43608  -0.43393  -0.43118  -0.42990
 Alpha  occ. eigenvalues --   -0.42742  -0.42598  -0.42357  -0.42323  -0.42171
 Alpha  occ. eigenvalues --   -0.41985  -0.41679  -0.41485  -0.41170  -0.40838
 Alpha  occ. eigenvalues --   -0.40762  -0.40563  -0.40471  -0.40214  -0.40087
 Alpha  occ. eigenvalues --   -0.39984  -0.39917  -0.39513  -0.39273  -0.39077
 Alpha  occ. eigenvalues --   -0.39019  -0.38655  -0.38463  -0.37905  -0.37742
 Alpha  occ. eigenvalues --   -0.37431  -0.37329  -0.37149  -0.37015  -0.36621
 Alpha  occ. eigenvalues --   -0.36337  -0.36283  -0.36093  -0.35757  -0.35364
 Alpha  occ. eigenvalues --   -0.35290  -0.35116  -0.35050  -0.34036  -0.33654
 Alpha  occ. eigenvalues --   -0.33337  -0.33200  -0.32573  -0.30710  -0.30305
 Alpha  occ. eigenvalues --   -0.29042  -0.28837  -0.28033  -0.27779  -0.22823
 Alpha  occ. eigenvalues --   -0.22294
 Alpha virt. eigenvalues --   -0.07529  -0.02754   0.01349   0.03869   0.04527
 Alpha virt. eigenvalues --    0.05469   0.05704   0.06276   0.06885   0.07734
 Alpha virt. eigenvalues --    0.08189   0.10109   0.10494   0.11448   0.11591

 Mulliken charges:
               1
     1  Mg   0.823156
     2  C    0.040915
     3  C   -0.146882
     4  C   -0.144164
     5  C   -0.178064
     6  N   -0.620205
     7  C    0.248117
     8  C   -0.179946
     9  C   -0.161922
    10  C    0.402683
    11  C   -0.295685
    12  C   -0.130614
    13  C   -0.271998
    14  C    0.619458
    15  O   -0.485697
    16  O   -0.484209
    17  N   -0.727593
    18  C    0.317852
    19  C    0.055658
    20  C    0.018996
    21  C    0.283991
    22  C   -0.397406
    23  C   -0.113118
    24  C   -0.227802
    25  N   -0.699268
    26  C    0.297616
    27  C    0.056099
    28  C    0.026267
    29  C    0.343996
    30  C   -0.372755
    31  C   -0.247059
    32  C   -0.322837
    33  N   -0.723272
    34  C    0.271194
    35  C    0.014236
    36  C    0.000063
    37  C    0.340279
    38  C   -0.363587
    39  C    0.356793
    40  O   -0.510973
    41  C   -0.317760
    42  C    0.591492
    43  O   -0.473854
    44  O   -0.394849
    45  C   -0.097237
    46  C    0.001124
    47  C   -0.106855
    48  C    0.106062
    49  C   -0.375511
    50  C   -0.214655
    51  C   -0.169708
    52  C   -0.165976
    53  C   -0.073345
    54  C   -0.294355
    55  C   -0.164775
    56  C   -0.178197
    57  C   -0.154438
    58  C   -0.069305
    59  C   -0.303750
    60  C   -0.156415
    61  C   -0.181857
    62  C   -0.152111
    63  C   -0.064800
    64  C   -0.301868
    65  C   -0.284275
    66  H    0.017640
    67  H    0.085630
    68  H    0.080813
    69  H    0.107612
    70  H    0.089555
    71  H    0.123000
    72  H    0.086196
    73  H    0.118028
    74  H    0.126453
    75  H    0.117858
    76  H    0.118697
    77  H    0.144019
    78  H    0.126198
    79  H    0.134382
    80  H    0.108215
    81  H    0.106641
    82  H    0.090220
    83  H    0.109470
    84  H    0.122393
    85  H    0.104750
    86  H    0.093610
    87  H    0.111677
    88  H    0.107997
    89  H    0.093845
    90  H    0.123386
    91  H    0.096065
    92  H    0.122535
    93  H    0.152459
    94  H    0.108198
    95  H    0.158230
    96  H    0.131505
    97  H    0.128757
    98  H    0.116739
    99  H    0.130703
   100  H    0.099107
   101  H    0.098655
   102  H    0.132757
   103  H    0.120231
   104  H    0.122106
   105  H    0.100951
   106  H    0.078492
   107  H    0.109367
   108  H    0.077805
   109  H    0.065636
   110  H    0.091446
   111  H    0.076985
   112  H    0.095152
   113  H    0.083017
   114  H    0.113046
   115  H    0.099256
   116  H    0.064976
   117  H    0.105747
   118  H    0.086670
   119  H    0.069068
   120  H    0.077372
   121  H    0.088367
   122  H    0.076793
   123  H    0.105380
   124  H    0.106976
   125  H    0.090073
   126  H    0.089347
   127  H    0.080063
   128  H    0.105787
   129  H    0.080175
   130  H    0.049686
   131  H    0.092806
   132  H    0.095711
   133  H    0.096007
   134  H    0.110275
   135  H    0.107390
   136  H    0.080448
   137  H    0.068303
 Sum of Mulliken charges =   0.00000

 Dipole moment (field-independent basis, Debye):
    X=              1.2833    Y=              6.2607    Z=             -0.4551  Tot=              6.4070
 Quadrupole moment (field-independent basis, Debye-Ang):
   XX=           -335.2662   YY=           -399.0772   ZZ=           -395.8060
   XY=            -33.3770   XZ=              1.8566   YZ=             -6.8656

 Normal termination of Gaussian 09 at Thu Jun 27 02:25:14 2019.
