 Gaussian 09, Revision D.01,
 Gaussian 09:  ES64L-G09RevD.01 24-Apr-2013

 -------------------------------------
 # td=(NStates=1) CAM-B3LYP/6-31G(d,p)
 -------------------------------------

 --
 TD
 --
 Symbolic Z-matrix:
 Charge =  0 Multiplicity = 1

                         Standard orientation:
 ---------------------------------------------------------------------
 Center     Atomic      Atomic             Coordinates (Angstroms)
 Number     Number       Type             X           Y           Z
 ---------------------------------------------------------------------
      1         12           0       -7.112363    0.603645   -0.008041
      2          6           0       -4.924344   -1.947072    0.447778
      3          6           0       -4.779474    2.826754    1.175183
      4          6           0       -9.355169    3.151835   -0.335675
      5          6           0       -9.518742   -1.778558   -0.875409
      6          7           0       -5.070129    0.430044    0.684821
      7          6           0       -4.370928   -0.656355    0.785434
      8          6           0       -2.916021   -0.457565    1.240309
      9          6           0       -2.994324    1.010924    1.710750
     10          6           0       -4.330788    1.475666    1.144465
     11          6           0       -3.003326    1.199506    3.194516
     12          6           0       -1.848105   -0.650077    0.182639
     13          6           0       -0.429235   -0.497937    0.587709
     14          6           0        0.542896   -0.576397   -0.572856
     15          8           0        0.211506   -1.033205   -1.717598
     16          8           0        1.772611   -0.332360   -0.159074
     17          7           0       -7.064536    2.645129    0.400589
     18          6           0       -5.952751    3.434032    0.764557
     19          6           0       -6.327461    4.793953    0.857106
     20          6           0       -7.670787    4.839176    0.542665
     21          6           0       -8.089271    3.499247    0.117935
     22          6           0       -5.480501    5.827548    1.319273
     23          6           0       -8.565524    5.974367    0.386650
     24          6           0       -8.198026    7.200124    0.041428
     25          7           0       -9.111160    0.682926   -0.581238
     26          6           0       -9.844755    1.858142   -0.610303
     27          6           0      -11.153466    1.534542   -1.100070
     28          6           0      -11.201798    0.097900   -1.286032
     29          6           0       -9.925352   -0.443802   -0.887279
     30          6           0      -12.255209    2.540442   -1.274514
     31          6           0      -12.388446   -0.808721   -1.752013
     32          6           0      -12.252543   -1.109550   -3.281955
     33          7           0       -7.270130   -1.421953   -0.249844
     34          6           0       -8.308117   -2.245745   -0.501486
     35          6           0       -7.829796   -3.588293   -0.461833
     36          6           0       -6.523361   -3.570917   -0.022642
     37          6           0       -6.259328   -2.171432    0.086790
     38          6           0       -8.660469   -4.814852   -0.766232
     39          6           0       -5.304128   -4.395183    0.167794
     40          8           0       -5.111794   -5.586856    0.071299
     41          6           0       -4.196576   -3.362268    0.443685
     42          6           0       -3.521561   -3.653720    1.821828
     43          8           0       -3.815024   -3.130597    2.918585
     44          8           0       -2.645411   -4.631473    1.737836
     45          6           0       -2.173932   -5.209564    3.057206
     46          6           0        2.815141   -0.737441   -1.149246
     47          6           0        4.165685   -0.493022   -0.519901
     48          6           0        5.167511    0.402781   -0.969769
     49          6           0        5.040087    1.199907   -2.253679
     50          6           0        6.422025    0.569749   -0.172327
     51          6           0        7.580664   -0.085798   -0.884171
     52          6           0        8.954393   -0.057263   -0.077153
     53          6           0       10.214625   -0.559228   -0.913997
     54          6           0       10.008900   -2.052637   -1.328123
     55          6           0       11.420302   -0.419930   -0.090820
     56          6           0       12.700124   -0.583169   -0.791608
     57          6           0       13.919716   -0.114470    0.174102
     58          6           0       15.361122   -0.205142   -0.508113
     59          6           0       15.555680   -1.682611   -0.982095
     60          6           0       16.336235    0.394239    0.391638
     61          6           0       17.761438    0.598368   -0.111063
     62          6           0       18.659187    1.350361    0.761233
     63          6           0       20.124573    1.423513    0.239071
     64          6           0       20.277271    2.063239   -1.087831
     65          6           0       21.045484    1.928180    1.409897
     66          1           0       -4.054810    3.444982    1.378085
     67          1           0      -10.078885    3.952396   -0.281087
     68          1           0      -10.251676   -2.554193   -1.003844
     69          1           0       -2.624225   -1.021264    2.060762
     70          1           0       -2.169352    1.647555    1.075667
     71          1           0       -2.224238    0.714729    3.624723
     72          1           0       -3.139323    2.214995    3.504107
     73          1           0       -3.706575    0.607749    3.672007
     74          1           0       -1.603457   -1.580431   -0.281037
     75          1           0       -2.097405    0.111074   -0.599011
     76          1           0       -0.247822    0.545208    0.972593
     77          1           0       -0.240732   -1.191900    1.364834
     78          1           0       -4.588043    6.016957    0.785563
     79          1           0       -5.919438    6.689320    1.502024
     80          1           0       -5.145249    5.668257    2.464123
     81          1           0       -9.652207    6.030569    0.522688
     82          1           0       -9.013750    8.115043   -0.040440
     83          1           0       -7.185785    7.517517   -0.411787
     84          1           0      -11.894629    3.113833   -2.083925
     85          1           0      -13.320756    2.283361   -1.425245
     86          1           0      -12.137392    3.332014   -0.374546
     87          1           0      -12.404146   -1.657951   -1.170302
     88          1           0      -13.216457   -0.398394   -1.532967
     89          1           0      -12.961318   -2.018856   -3.781084
     90          1           0      -12.373580   -0.070361   -3.823468
     91          1           0      -11.183337   -1.493885   -3.344219
     92          1           0       -9.367316   -4.543274   -1.643760
     93          1           0       -7.687230   -5.745119   -1.270583
     94          1           0       -9.285836   -5.364933    0.146583
     95          1           0       -3.363373   -3.450112   -0.279515
     96          1           0       -1.452169   -4.361190    3.560697
     97          1           0       -2.947278   -5.649106    3.547976
     98          1           0       -1.485811   -6.075203    2.705508
     99          1           0        2.852273   -1.904833   -1.374429
    100          1           0        2.735598   -0.271381   -2.106623
    101          1           0        4.325381   -0.938818    0.520925
    102          1           0        3.930183    1.221979   -2.441321
    103          1           0        5.337254    2.229698   -2.164270
    104          1           0        5.807802    0.640141   -2.903617
    105          1           0        6.402425    1.772829   -0.025114
    106          1           0        6.190878    0.044491    0.736410
    107          1           0        7.207340   -0.962928   -1.221836
    108          1           0        7.859798    0.374603   -1.873676
    109          1           0        9.164321    0.974155    0.321805
    110          1           0        8.867518   -0.888653    0.681514
    111          1           0       10.382310    0.111177   -1.816657
    112          1           0        9.052479   -2.071212   -2.095279
    113          1           0       11.009636   -2.440846   -1.680500
    114          1           0        9.808828   -2.679526   -0.559129
    115          1           0       11.504285    0.603737    0.249080
    116          1           0       11.393450   -1.077834    0.749135
    117          1           0       13.098058   -1.644353   -0.823194
    118          1           0       12.661939   -0.190153   -1.712762
    119          1           0       13.737779    0.820662    0.459174
    120          1           0       13.874792   -0.882091    1.053648
    121          1           0       15.313825    0.347897   -1.407314
    122          1           0       15.097545   -2.508355   -0.068302
    123          1           0       14.988497   -1.877111   -1.972564
    124          1           0       16.636703   -1.877649   -1.144340
    125          1           0       15.956385    1.300628    0.895250
    126          1           0       16.740277   -0.485964    1.091199
    127          1           0       18.143720   -0.205362   -0.691357
    128          1           0       17.407648    1.439198   -0.901015
    129          1           0       18.372647    2.482842    0.981648
    130          1           0       18.578010    0.741398    1.771370
    131          1           0       20.585633    0.379523    0.135531
    132          1           0       19.814635    3.180605   -1.236341
    133          1           0       21.303897    2.264733   -1.465207
    134          1           0       19.515715    1.610071   -1.716508
    135          1           0       21.117696    1.123550    2.282997
    136          1           0       22.074039    1.966896    0.900669
    137          1           0       20.720707    2.971383    1.636998
 ---------------------------------------------------------------------

 SCF Done:  E(RCAM-B3LYP) =  -2932.63101618     A.U. after   18 cycles

 Excitation energies and oscillator strengths:

 Excited State   1:      Singlet-A      2.0661 eV  600.08 nm  f=0.1856  <S**2>=0.000
     240 -> 243       -0.30053
     241 -> 242        0.62945
 This state for optimization and/or second-order correction.
 Total Energy, E(TD-HF/TD-KS) =  -2932.55508718
 Copying the excited state density for this state as the 1-particle RhoCI density.

 The electronic state is 1-A.
 Alpha  occ. eigenvalues --  -46.84761 -19.28324 -19.26806 -19.20901 -19.20776
 Alpha  occ. eigenvalues --  -19.19864 -14.42235 -14.38823 -14.38794 -14.38342
 Alpha  occ. eigenvalues --  -10.39934 -10.39159 -10.35633 -10.33518 -10.33459
 Alpha  occ. eigenvalues --  -10.31046 -10.31044 -10.30082 -10.29233 -10.29044
 Alpha  occ. eigenvalues --  -10.28718 -10.28642 -10.28523 -10.28511 -10.28401
 Alpha  occ. eigenvalues --  -10.28370 -10.28062 -10.27994 -10.27818 -10.27544
 Alpha  occ. eigenvalues --  -10.27323 -10.27228 -10.27112 -10.27085 -10.27062
 Alpha  occ. eigenvalues --  -10.27022 -10.27009 -10.26980 -10.26977 -10.26773
 Alpha  occ. eigenvalues --  -10.26770 -10.26710 -10.26651 -10.26575 -10.26361
 Alpha  occ. eigenvalues --  -10.26350 -10.26326 -10.26267 -10.26080 -10.26024
 Alpha  occ. eigenvalues --  -10.25881 -10.25826 -10.25797 -10.25745 -10.25582
 Alpha  occ. eigenvalues --  -10.25505 -10.25447 -10.25274 -10.25110 -10.24822
 Alpha  occ. eigenvalues --  -10.24732 -10.24126 -10.24082 -10.24076 -10.23596
 Alpha  occ. eigenvalues --   -3.13591  -1.88317  -1.87835  -1.87736  -1.18578
 Alpha  occ. eigenvalues --   -1.17660  -1.11661  -1.06892  -1.06637  -1.06327
 Alpha  occ. eigenvalues --   -1.05529  -1.02531  -1.00152  -0.91945  -0.91806
 Alpha  occ. eigenvalues --   -0.91588  -0.91231  -0.90388  -0.89459  -0.89024
 Alpha  occ. eigenvalues --   -0.88309  -0.87991  -0.87437  -0.86612  -0.86296
 Alpha  occ. eigenvalues --   -0.85587  -0.84622  -0.83770  -0.83608  -0.82387
 Alpha  occ. eigenvalues --   -0.81964  -0.81218  -0.80619  -0.79996  -0.78560
 Alpha  occ. eigenvalues --   -0.77827  -0.76988  -0.76185  -0.75424  -0.75399
 Alpha  occ. eigenvalues --   -0.74824  -0.74710  -0.74511  -0.73261  -0.72108
 Alpha  occ. eigenvalues --   -0.71643  -0.70835  -0.68936  -0.68781  -0.68329
 Alpha  occ. eigenvalues --   -0.67027  -0.66420  -0.65274  -0.65057  -0.64843
 Alpha  occ. eigenvalues --   -0.64082  -0.63764  -0.63533  -0.62278  -0.62082
 Alpha  occ. eigenvalues --   -0.61559  -0.60630  -0.60392  -0.59799  -0.59081
 Alpha  occ. eigenvalues --   -0.58870  -0.58228  -0.57686  -0.57436  -0.56275
 Alpha  occ. eigenvalues --   -0.56131  -0.56022  -0.55780  -0.55459  -0.54949
 Alpha  occ. eigenvalues --   -0.54818  -0.54422  -0.54145  -0.53566  -0.53524
 Alpha  occ. eigenvalues --   -0.53250  -0.52892  -0.52547  -0.52100  -0.51849
 Alpha  occ. eigenvalues --   -0.51404  -0.51292  -0.51106  -0.50881  -0.50647
 Alpha  occ. eigenvalues --   -0.50589  -0.50311  -0.50194  -0.49900  -0.49724
 Alpha  occ. eigenvalues --   -0.49352  -0.49011  -0.48820  -0.48775  -0.48713
 Alpha  occ. eigenvalues --   -0.48347  -0.47818  -0.47447  -0.47301  -0.47142
 Alpha  occ. eigenvalues --   -0.46981  -0.46966  -0.46405  -0.46153  -0.45897
 Alpha  occ. eigenvalues --   -0.45657  -0.45500  -0.45354  -0.45160  -0.44743
 Alpha  occ. eigenvalues --   -0.44622  -0.44594  -0.44430  -0.44215  -0.43828
 Alpha  occ. eigenvalues --   -0.43655  -0.43592  -0.43439  -0.43142  -0.42868
 Alpha  occ. eigenvalues --   -0.42761  -0.42531  -0.42475  -0.42231  -0.42167
 Alpha  occ. eigenvalues --   -0.42062  -0.41815  -0.41773  -0.41550  -0.41311
 Alpha  occ. eigenvalues --   -0.41203  -0.41172  -0.40792  -0.40689  -0.40504
 Alpha  occ. eigenvalues --   -0.40132  -0.39861  -0.39853  -0.39653  -0.39354
 Alpha  occ. eigenvalues --   -0.39216  -0.39071  -0.38453  -0.38375  -0.37913
 Alpha  occ. eigenvalues --   -0.37765  -0.37630  -0.37108  -0.36712  -0.36691
 Alpha  occ. eigenvalues --   -0.36545  -0.36232  -0.35802  -0.35615  -0.35182
 Alpha  occ. eigenvalues --   -0.35108  -0.34799  -0.33658  -0.33403  -0.32897
 Alpha  occ. eigenvalues --   -0.32549  -0.32305  -0.31792  -0.30619  -0.30523
 Alpha  occ. eigenvalues --   -0.29852  -0.28920  -0.27360  -0.26271  -0.22643
 Alpha  occ. eigenvalues --   -0.21042
 Alpha virt. eigenvalues --   -0.06016  -0.03601   0.01287   0.04171   0.04522
 Alpha virt. eigenvalues --    0.05327   0.05648   0.06329   0.07242   0.07536
 Alpha virt. eigenvalues --    0.08719   0.10217   0.10946   0.11202   0.11436

 Mulliken charges:
               1
     1  Mg   0.818123
     2  C    0.014982
     3  C   -0.180338
     4  C   -0.168356
     5  C   -0.179348
     6  N   -0.610696
     7  C    0.336245
     8  C   -0.143836
     9  C   -0.156737
    10  C    0.306581
    11  C   -0.309602
    12  C   -0.161743
    13  C   -0.275642
    14  C    0.614459
    15  O   -0.506217
    16  O   -0.450669
    17  N   -0.710446
    18  C    0.296738
    19  C    0.062043
    20  C    0.007862
    21  C    0.322064
    22  C   -0.383087
    23  C   -0.090453
    24  C   -0.245652
    25  N   -0.720657
    26  C    0.329998
    27  C    0.003310
    28  C   -0.041208
    29  C    0.292628
    30  C   -0.375828
    31  C   -0.200029
    32  C   -0.290881
    33  N   -0.731321
    34  C    0.311606
    35  C    0.002419
    36  C    0.016481
    37  C    0.319520
    38  C   -0.343694
    39  C    0.394306
    40  O   -0.450329
    41  C   -0.299464
    42  C    0.601719
    43  O   -0.506618
    44  O   -0.447131
    45  C   -0.075242
    46  C    0.005421
    47  C   -0.153434
    48  C    0.071321
    49  C   -0.341018
    50  C   -0.194563
    51  C   -0.187296
    52  C   -0.165618
    53  C   -0.074183
    54  C   -0.307766
    55  C   -0.147441
    56  C   -0.193312
    57  C   -0.188629
    58  C   -0.036335
    59  C   -0.302660
    60  C   -0.162342
    61  C   -0.182211
    62  C   -0.141244
    63  C   -0.053451
    64  C   -0.305740
    65  C   -0.299168
    66  H    0.058122
    67  H    0.084968
    68  H    0.094648
    69  H    0.119150
    70  H    0.087184
    71  H    0.112921
    72  H    0.120104
    73  H    0.136048
    74  H    0.129398
    75  H    0.102599
    76  H    0.116901
    77  H    0.141077
    78  H    0.126427
    79  H    0.129973
    80  H    0.091230
    81  H    0.107034
    82  H    0.080337
    83  H    0.101610
    84  H    0.137421
    85  H    0.121247
    86  H    0.095611
    87  H    0.106422
    88  H    0.105039
    89  H    0.073994
    90  H    0.101770
    91  H    0.109076
    92  H    0.112096
    93  H    0.083067
    94  H    0.121234
    95  H    0.165420
    96  H    0.125168
    97  H    0.161419
    98  H    0.124174
    99  H    0.123661
   100  H    0.140473
   101  H    0.087208
   102  H    0.112472
   103  H    0.121568
   104  H    0.123742
   105  H    0.082786
   106  H    0.106152
   107  H    0.113806
   108  H    0.086093
   109  H    0.094078
   110  H    0.089349
   111  H    0.071023
   112  H    0.079443
   113  H    0.102749
   114  H    0.115614
   115  H    0.085214
   116  H    0.089420
   117  H    0.090987
   118  H    0.093291
   119  H    0.092001
   120  H    0.083803
   121  H    0.091144
   122  H    0.061725
   123  H    0.110176
   124  H    0.098542
   125  H    0.098971
   126  H    0.066207
   127  H    0.108685
   128  H    0.054035
   129  H    0.084010
   130  H    0.068971
   131  H    0.080414
   132  H    0.061522
   133  H    0.110039
   134  H    0.119787
   135  H    0.095750
   136  H    0.085325
   137  H    0.100679
 Sum of Mulliken charges =   0.00000

 Dipole moment (field-independent basis, Debye):
    X=              4.6239    Y=              3.7913    Z=              1.2467  Tot=              6.1081
 Quadrupole moment (field-independent basis, Debye-Ang):
   XX=           -362.6106   YY=           -390.0784   ZZ=           -402.3934
   XY=            -21.2392   XZ=             -5.2034   YZ=             -9.5350

 Normal termination of Gaussian 09 at Thu Jun 27 05:34:23 2019.
