 Gaussian 09, Revision D.01,
 Gaussian 09:  ES64L-G09RevD.01 24-Apr-2013

 -------------------------------------
 # td=(NStates=1) CAM-B3LYP/6-31G(d,p)
 -------------------------------------

 --
 TD
 --
 Symbolic Z-matrix:
 Charge =  0 Multiplicity = 1

                         Standard orientation:
 ---------------------------------------------------------------------
 Center     Atomic      Atomic             Coordinates (Angstroms)
 Number     Number       Type             X           Y           Z
 ---------------------------------------------------------------------
      1         12           0       -7.154483    0.557163    0.231005
      2          6           0       -4.853055   -1.971722    0.551758
      3          6           0       -4.900845    2.795949    1.291928
      4          6           0       -9.439454    3.190691   -0.376744
      5          6           0       -9.471373   -1.726957   -1.061362
      6          7           0       -5.180620    0.407707    0.822724
      7          6           0       -4.404425   -0.639547    0.831041
      8          6           0       -3.009516   -0.433269    1.151517
      9          6           0       -3.101625    1.005495    1.743436
     10          6           0       -4.476116    1.494080    1.112877
     11          6           0       -3.160650    1.113009    3.321760
     12          6           0       -1.967843   -0.678117    0.212771
     13          6           0       -0.524674   -0.448810    0.572164
     14          6           0        0.436896   -0.671794   -0.535728
     15          8           0        0.185727   -0.953067   -1.701396
     16          8           0        1.663629   -0.489313   -0.084193
     17          7           0       -7.089296    2.599285    0.322353
     18          6           0       -6.080599    3.334880    0.854597
     19          6           0       -6.434363    4.841236    0.970767
     20          6           0       -7.677197    4.807258    0.342246
     21          6           0       -8.130886    3.543646   -0.002364
     22          6           0       -5.480528    5.860779    1.495268
     23          6           0       -8.555293    5.931974    0.271555
     24          6           0       -8.319427    7.268322    0.241167
     25          7           0       -9.102126    0.673106   -0.584902
     26          6           0       -9.856902    1.831086   -0.668593
     27          6           0      -11.220633    1.424467   -1.116795
     28          6           0      -11.225985    0.075048   -1.327085
     29          6           0       -9.872439   -0.414378   -0.961929
     30          6           0      -12.294384    2.508533   -1.516583
     31          6           0      -12.325818   -0.777451   -1.895798
     32          6           0      -12.054061   -1.090807   -3.432784
     33          7           0       -7.206824   -1.381147   -0.146820
     34          6           0       -8.265665   -2.233228   -0.573662
     35          6           0       -7.894484   -3.569330   -0.572641
     36          6           0       -6.512326   -3.496517   -0.062668
     37          6           0       -6.196268   -2.216368    0.156881
     38          6           0       -8.559322   -4.925915   -0.892154
     39          6           0       -5.293330   -4.317472    0.190007
     40          8           0       -5.212656   -5.557274    0.126038
     41          6           0       -4.208373   -3.331449    0.468340
     42          6           0       -3.500370   -3.645641    1.803764
     43          8           0       -3.659196   -3.069038    2.849365
     44          8           0       -2.807294   -4.818381    1.667781
     45          6           0       -2.362867   -5.295049    2.846297
     46          6           0        2.738610   -0.743896   -1.007557
     47          6           0        4.117030   -0.386285   -0.315670
     48          6           0        4.975070    0.453743   -0.895124
     49          6           0        4.845760    1.397513   -2.076496
     50          6           0        6.391975    0.554003   -0.219819
     51          6           0        7.643339   -0.149578   -0.775990
     52          6           0        8.968450   -0.043893    0.042559
     53          6           0       10.193180   -0.441613   -0.735347
     54          6           0       10.175672   -1.938443   -1.203023
     55          6           0       11.473026   -0.130646    0.032017
     56          6           0       12.783714   -0.412377   -0.710190
     57          6           0       14.041101    0.041603    0.235751
     58          6           0       15.372940   -0.129863   -0.532988
     59          6           0       15.646961   -1.614737   -0.928011
     60          6           0       16.584960    0.386586    0.373879
     61          6           0       17.902383    0.522567   -0.295488
     62          6           0       18.973133    1.101623    0.597658
     63          6           0       20.346302    1.193925    0.057093
     64          6           0       20.421785    2.134239   -1.190996
     65          6           0       21.366782    1.682751    1.157422
     66          1           0       -4.037390    3.509354    1.636281
     67          1           0      -10.176087    3.898418   -0.620775
     68          1           0      -10.167036   -2.565160   -1.209713
     69          1           0       -2.879681   -1.129530    2.197136
     70          1           0       -2.184290    1.483990    1.228724
     71          1           0       -2.179362    0.657054    3.707752
     72          1           0       -3.215645    2.161051    3.629382
     73          1           0       -3.996372    0.548286    3.729619
     74          1           0       -2.182553   -1.801917   -0.298835
     75          1           0       -2.238141   -0.266608   -0.767681
     76          1           0       -0.604792    0.658509    1.086790
     77          1           0       -0.171807   -1.073964    1.583606
     78          1           0       -4.887675    6.040871    0.679728
     79          1           0       -6.143636    6.426560    1.818593
     80          1           0       -4.857962    5.492877    2.390076
     81          1           0       -9.657796    5.994842    0.415290
     82          1           0       -9.042407    8.013230    0.139827
     83          1           0       -7.418132    7.686927    0.130849
     84          1           0      -12.052793    3.108552   -2.508243
     85          1           0      -13.164253    1.918299   -1.728345
     86          1           0      -12.620218    3.188924   -0.673540
     87          1           0      -12.344773   -1.642594   -1.265035
     88          1           0      -13.226509   -0.417614   -1.685957
     89          1           0      -12.713257   -1.803606   -3.916007
     90          1           0      -12.100878   -0.088632   -3.987636
     91          1           0      -11.111630   -1.470502   -3.612204
     92          1           0       -8.858816   -5.009213   -2.027186
     93          1           0       -7.912468   -5.816721   -1.002784
     94          1           0       -9.398943   -5.101966   -0.198927
     95          1           0       -3.433143   -3.314986   -0.457826
     96          1           0       -1.706179   -4.540388    3.310559
     97          1           0       -3.074785   -5.451751    3.582394
     98          1           0       -1.858038   -6.126645    2.670754
     99          1           0        2.594033   -1.591826   -1.718742
    100          1           0        2.594605   -0.032664   -1.877718
    101          1           0        4.220898   -1.062128    0.533751
    102          1           0        3.683546    1.736671   -2.290235
    103          1           0        5.693454    2.274522   -1.969442
    104          1           0        5.337316    0.879244   -2.982221
    105          1           0        6.757766    1.575286   -0.292544
    106          1           0        6.318614    0.298320    0.837895
    107          1           0        7.461699   -1.147405   -0.998573
    108          1           0        7.856720    0.291806   -1.681895
    109          1           0        9.123049    0.913886    0.461214
    110          1           0        8.907068   -0.527251    0.974942
    111          1           0       10.051489    0.162821   -1.675535
    112          1           0        9.454592   -2.143498   -1.800091
    113          1           0       11.139537   -2.148252   -1.593868
    114          1           0       10.100338   -2.474319   -0.562952
    115          1           0       11.451479    0.951112    0.283493
    116          1           0       11.371031   -0.834494    0.897601
    117          1           0       12.821584   -1.448650   -0.866476
    118          1           0       13.030277    0.178890   -1.636500
    119          1           0       13.947322    1.066920    0.694024
    120          1           0       14.189866   -0.680478    1.080986
    121          1           0       15.336658    0.663740   -1.374837
    122          1           0       15.681912   -2.433383   -0.185533
    123          1           0       14.756351   -1.906481   -1.475185
    124          1           0       16.488163   -1.662865   -1.702425
    125          1           0       16.387346    1.335373    0.982748
    126          1           0       16.847989   -0.382750    1.072672
    127          1           0       18.006744   -0.377144   -0.597902
    128          1           0       18.015115    1.287790   -1.056890
    129          1           0       18.559549    2.191651    0.851257
    130          1           0       18.869676    0.454561    1.572074
    131          1           0       20.687710    0.291263   -0.523826
    132          1           0       19.913367    2.984056   -0.796380
    133          1           0       21.553366    2.117359   -1.534388
    134          1           0       19.724075    1.528896   -1.896539
    135          1           0       21.464599    0.913363    2.002391
    136          1           0       22.256961    1.702387    0.510570
    137          1           0       20.897907    2.486579    1.574504
 ---------------------------------------------------------------------

 SCF Done:  E(RCAM-B3LYP) =  -2932.58300883     A.U. after   18 cycles

 Excitation energies and oscillator strengths:

 Excited State   1:      Singlet-A      2.1044 eV  589.17 nm  f=0.2558  <S**2>=0.000
     240 -> 242       -0.15133
     240 -> 243        0.24000
     241 -> 242        0.63658
 This state for optimization and/or second-order correction.
 Total Energy, E(TD-HF/TD-KS) =  -2932.50567378
 Copying the excited state density for this state as the 1-particle RhoCI density.

 The electronic state is 1-A.
 Alpha  occ. eigenvalues --  -46.83608 -19.26824 -19.25988 -19.22137 -19.20977
 Alpha  occ. eigenvalues --  -19.19062 -14.41919 -14.39858 -14.39590 -14.37801
 Alpha  occ. eigenvalues --  -10.39704 -10.39543 -10.34118 -10.32235 -10.31103
 Alpha  occ. eigenvalues --  -10.30381 -10.30200 -10.30175 -10.30124 -10.29979
 Alpha  occ. eigenvalues --  -10.29642 -10.29420 -10.28793 -10.28758 -10.28690
 Alpha  occ. eigenvalues --  -10.28363 -10.28110 -10.28033 -10.27779 -10.27620
 Alpha  occ. eigenvalues --  -10.27506 -10.27445 -10.27355 -10.27201 -10.27173
 Alpha  occ. eigenvalues --  -10.27145 -10.27107 -10.26845 -10.26779 -10.26703
 Alpha  occ. eigenvalues --  -10.26670 -10.26542 -10.26307 -10.26294 -10.26231
 Alpha  occ. eigenvalues --  -10.25832 -10.25816 -10.25811 -10.25686 -10.25652
 Alpha  occ. eigenvalues --  -10.25645 -10.25633 -10.25572 -10.25561 -10.25516
 Alpha  occ. eigenvalues --  -10.25511 -10.25168 -10.24606 -10.24437 -10.24429
 Alpha  occ. eigenvalues --  -10.24262 -10.24062 -10.23513 -10.22241 -10.20143
 Alpha  occ. eigenvalues --   -3.12772  -1.87469  -1.87013  -1.86956  -1.19614
 Alpha  occ. eigenvalues --   -1.19296  -1.11003  -1.08955  -1.08402  -1.06923
 Alpha  occ. eigenvalues --   -1.02790  -1.02632  -1.01253  -0.92864  -0.91292
 Alpha  occ. eigenvalues --   -0.91144  -0.90844  -0.90355  -0.89765  -0.88972
 Alpha  occ. eigenvalues --   -0.88068  -0.87818  -0.86921  -0.86261  -0.85850
 Alpha  occ. eigenvalues --   -0.84882  -0.84843  -0.83734  -0.83477  -0.82465
 Alpha  occ. eigenvalues --   -0.81559  -0.81401  -0.80963  -0.80432  -0.79389
 Alpha  occ. eigenvalues --   -0.77977  -0.77421  -0.76897  -0.76024  -0.75551
 Alpha  occ. eigenvalues --   -0.75194  -0.74960  -0.74539  -0.73837  -0.72400
 Alpha  occ. eigenvalues --   -0.71789  -0.71160  -0.70651  -0.69554  -0.68247
 Alpha  occ. eigenvalues --   -0.67200  -0.67102  -0.65749  -0.65269  -0.65007
 Alpha  occ. eigenvalues --   -0.64163  -0.63630  -0.63288  -0.62458  -0.62248
 Alpha  occ. eigenvalues --   -0.61491  -0.61276  -0.60834  -0.60234  -0.59366
 Alpha  occ. eigenvalues --   -0.59030  -0.58257  -0.57808  -0.57222  -0.56495
 Alpha  occ. eigenvalues --   -0.55892  -0.55620  -0.55441  -0.55285  -0.55179
 Alpha  occ. eigenvalues --   -0.54924  -0.54574  -0.54393  -0.54182  -0.54008
 Alpha  occ. eigenvalues --   -0.53641  -0.53497  -0.52664  -0.52466  -0.51450
 Alpha  occ. eigenvalues --   -0.51415  -0.51155  -0.51017  -0.50774  -0.50483
 Alpha  occ. eigenvalues --   -0.50348  -0.50100  -0.49927  -0.49848  -0.49567
 Alpha  occ. eigenvalues --   -0.48874  -0.48758  -0.48505  -0.48471  -0.48232
 Alpha  occ. eigenvalues --   -0.48110  -0.47813  -0.47453  -0.47339  -0.47085
 Alpha  occ. eigenvalues --   -0.47008  -0.46864  -0.46642  -0.46350  -0.46271
 Alpha  occ. eigenvalues --   -0.46214  -0.45899  -0.45859  -0.45415  -0.44913
 Alpha  occ. eigenvalues --   -0.44827  -0.44726  -0.44586  -0.44469  -0.44420
 Alpha  occ. eigenvalues --   -0.44271  -0.43951  -0.43763  -0.43645  -0.43389
 Alpha  occ. eigenvalues --   -0.43007  -0.42794  -0.42643  -0.42581  -0.42463
 Alpha  occ. eigenvalues --   -0.42157  -0.42122  -0.41911  -0.41575  -0.41439
 Alpha  occ. eigenvalues --   -0.41115  -0.41051  -0.40704  -0.40477  -0.40167
 Alpha  occ. eigenvalues --   -0.40073  -0.39991  -0.39798  -0.39724  -0.38992
 Alpha  occ. eigenvalues --   -0.38862  -0.38768  -0.38472  -0.38231  -0.37843
 Alpha  occ. eigenvalues --   -0.37554  -0.37389  -0.36865  -0.36572  -0.36561
 Alpha  occ. eigenvalues --   -0.36082  -0.35862  -0.35521  -0.35416  -0.35290
 Alpha  occ. eigenvalues --   -0.35207  -0.34592  -0.34335  -0.34260  -0.33333
 Alpha  occ. eigenvalues --   -0.32945  -0.32742  -0.32484  -0.30508  -0.30362
 Alpha  occ. eigenvalues --   -0.29139  -0.28776  -0.27739  -0.27514  -0.23027
 Alpha  occ. eigenvalues --   -0.21364
 Alpha virt. eigenvalues --   -0.06665  -0.02822   0.01673   0.03744   0.04837
 Alpha virt. eigenvalues --    0.04972   0.05309   0.05939   0.06816   0.07933
 Alpha virt. eigenvalues --    0.08220   0.10711   0.11242   0.11531   0.11832

 Mulliken charges:
               1
     1  Mg   0.817852
     2  C    0.059124
     3  C   -0.227882
     4  C   -0.159047
     5  C   -0.143239
     6  N   -0.624010
     7  C    0.346149
     8  C   -0.155728
     9  C   -0.160610
    10  C    0.315989
    11  C   -0.298214
    12  C   -0.174623
    13  C   -0.263355
    14  C    0.641862
    15  O   -0.493164
    16  O   -0.454303
    17  N   -0.714346
    18  C    0.325663
    19  C    0.010597
    20  C   -0.008463
    21  C    0.328579
    22  C   -0.325584
    23  C   -0.106586
    24  C   -0.265338
    25  N   -0.681372
    26  C    0.287516
    27  C   -0.017749
    28  C    0.016194
    29  C    0.291533
    30  C   -0.366903
    31  C   -0.222662
    32  C   -0.317841
    33  N   -0.754296
    34  C    0.223776
    35  C    0.037925
    36  C   -0.049477
    37  C    0.331798
    38  C   -0.379102
    39  C    0.380484
    40  O   -0.486510
    41  C   -0.331570
    42  C    0.636040
    43  O   -0.456676
    44  O   -0.426702
    45  C   -0.074492
    46  C   -0.024988
    47  C   -0.135043
    48  C    0.137996
    49  C   -0.360243
    50  C   -0.237590
    51  C   -0.180911
    52  C   -0.178243
    53  C   -0.076407
    54  C   -0.282992
    55  C   -0.172980
    56  C   -0.183911
    57  C   -0.179366
    58  C   -0.060603
    59  C   -0.333461
    60  C   -0.186350
    61  C   -0.147725
    62  C   -0.166800
    63  C   -0.086664
    64  C   -0.300839
    65  C   -0.285638
    66  H    0.082274
    67  H    0.102342
    68  H    0.105156
    69  H    0.121316
    70  H    0.080657
    71  H    0.102221
    72  H    0.113368
    73  H    0.136248
    74  H    0.077078
    75  H    0.133389
    76  H    0.123499
    77  H    0.122683
    78  H    0.151011
    79  H    0.136602
    80  H    0.113004
    81  H    0.099136
    82  H    0.101530
    83  H    0.091708
    84  H    0.114431
    85  H    0.116418
    86  H    0.113725
    87  H    0.104935
    88  H    0.108805
    89  H    0.105124
    90  H    0.102382
    91  H    0.127482
    92  H    0.100248
    93  H    0.156966
    94  H    0.128322
    95  H    0.167453
    96  H    0.098384
    97  H    0.124483
    98  H    0.118190
    99  H    0.144890
   100  H    0.101436
   101  H    0.109590
   102  H    0.120097
   103  H    0.104734
   104  H    0.127906
   105  H    0.092745
   106  H    0.101715
   107  H    0.102501
   108  H    0.093753
   109  H    0.086836
   110  H    0.086613
   111  H    0.070735
   112  H    0.101310
   113  H    0.089648
   114  H    0.099571
   115  H    0.089564
   116  H    0.092559
   117  H    0.108570
   118  H    0.094601
   119  H    0.090471
   120  H    0.084170
   121  H    0.079559
   122  H    0.112907
   123  H    0.106136
   124  H    0.105439
   125  H    0.067451
   126  H    0.089155
   127  H    0.097489
   128  H    0.082674
   129  H    0.065114
   130  H    0.066888
   131  H    0.080497
   132  H    0.106151
   133  H    0.094647
   134  H    0.100520
   135  H    0.091696
   136  H    0.098050
   137  H    0.112563
 Sum of Mulliken charges =   0.00000

 Dipole moment (field-independent basis, Debye):
    X=              1.5464    Y=              4.6128    Z=              0.7984  Tot=              4.9302
 Quadrupole moment (field-independent basis, Debye-Ang):
   XX=           -353.2710   YY=           -394.0475   ZZ=           -396.6393
   XY=            -35.0490   XZ=              0.6647   YZ=              0.9361

 Normal termination of Gaussian 09 at Fri Jun 28 02:24:02 2019.
