 Gaussian 09, Revision D.01,
 Gaussian 09:  ES64L-G09RevD.01 24-Apr-2013

 -------------------------------------
 # td=(NStates=1) CAM-B3LYP/6-31G(d,p)
 -------------------------------------

 --
 TD
 --
 Symbolic Z-matrix:
 Charge =  0 Multiplicity = 1

                         Standard orientation:
 ---------------------------------------------------------------------
 Center     Atomic      Atomic             Coordinates (Angstroms)
 Number     Number       Type             X           Y           Z
 ---------------------------------------------------------------------
      1         12           0       -7.201485    0.583379   -0.009879
      2          6           0       -4.918979   -1.978235    0.618631
      3          6           0       -4.843062    2.854834    1.138952
      4          6           0       -9.461944    3.027702   -0.404555
      5          6           0       -9.551663   -1.788067   -0.984549
      6          7           0       -5.071484    0.466387    0.654434
      7          6           0       -4.404837   -0.696357    0.841053
      8          6           0       -2.919714   -0.338890    1.315250
      9          6           0       -3.036962    1.137913    1.818842
     10          6           0       -4.381583    1.565579    1.156287
     11          6           0       -2.870135    1.258475    3.299115
     12          6           0       -1.977888   -0.604051    0.148615
     13          6           0       -0.429015   -0.479947    0.558879
     14          6           0        0.518071   -0.726727   -0.586301
     15          8           0        0.163780   -1.124642   -1.701629
     16          8           0        1.767552   -0.374579   -0.242582
     17          7           0       -7.168263    2.619186    0.270643
     18          6           0       -6.051553    3.423284    0.771336
     19          6           0       -6.512529    4.777007    0.891817
     20          6           0       -7.718227    4.921003    0.346663
     21          6           0       -8.161407    3.544254    0.061930
     22          6           0       -5.655847    5.899787    1.415552
     23          6           0       -8.654612    6.044936    0.289682
     24          6           0       -8.214966    7.371446    0.081559
     25          7           0       -9.093443    0.702134   -0.634909
     26          6           0       -9.817094    1.793432   -0.709082
     27          6           0      -11.161335    1.461570   -1.188155
     28          6           0      -11.183116    0.067389   -1.296846
     29          6           0       -9.881661   -0.403886   -0.844490
     30          6           0      -12.285399    2.530706   -1.354164
     31          6           0      -12.283527   -0.761607   -1.732502
     32          6           0      -12.417284   -1.286903   -3.108974
     33          7           0       -7.213971   -1.372908   -0.202306
     34          6           0       -8.314926   -2.285424   -0.537301
     35          6           0       -7.846369   -3.550364   -0.437830
     36          6           0       -6.533639   -3.521976   -0.015767
     37          6           0       -6.188846   -2.223642    0.148490
     38          6           0       -8.600886   -4.863494   -0.872254
     39          6           0       -5.305442   -4.342967    0.211432
     40          8           0       -5.089275   -5.551695    0.130129
     41          6           0       -4.187149   -3.331332    0.555439
     42          6           0       -3.412746   -3.699240    1.855190
     43          8           0       -3.599880   -3.149187    2.910897
     44          8           0       -2.634768   -4.772606    1.693532
     45          6           0       -2.011655   -5.154802    2.866089
     46          6           0        2.785401   -0.739056   -1.172976
     47          6           0        4.045606   -0.498027   -0.449342
     48          6           0        5.052687    0.204328   -0.866137
     49          6           0        5.042033    1.115735   -2.068448
     50          6           0        6.339666    0.469032   -0.164920
     51          6           0        7.579935   -0.229881   -0.822728
     52          6           0        8.928340   -0.089848   -0.081274
     53          6           0       10.174606   -0.551617   -0.770194
     54          6           0       10.102890   -2.057629   -1.191857
     55          6           0       11.348563   -0.200505    0.021370
     56          6           0       12.697091   -0.639068   -0.667827
     57          6           0       13.966197    0.047802    0.133233
     58          6           0       15.372702   -0.128978   -0.551414
     59          6           0       15.782712   -1.699117   -0.843605
     60          6           0       16.504297    0.493627    0.375049
     61          6           0       17.833156    0.591365   -0.259340
     62          6           0       18.823652    1.278590    0.706245
     63          6           0       20.199957    1.406073    0.165572
     64          6           0       20.407216    2.118291   -1.185608
     65          6           0       21.215797    2.008982    1.150200
     66          1           0       -4.042936    3.644577    1.295290
     67          1           0      -10.024788    3.727357   -0.572724
     68          1           0      -10.402154   -2.465416   -1.222945
     69          1           0       -2.429619   -0.958460    2.015545
     70          1           0       -2.161687    1.655221    1.431172
     71          1           0       -1.931114    0.932565    3.706968
     72          1           0       -2.961238    2.088776    3.499555
     73          1           0       -3.512406    0.763102    3.970458
     74          1           0       -2.138794   -1.609645   -0.318684
     75          1           0       -2.305346   -0.042740   -0.533148
     76          1           0       -0.201988    0.508257    1.033625
     77          1           0       -0.310384   -1.296016    1.438624
     78          1           0       -5.079887    6.206581    0.518721
     79          1           0       -6.233950    6.764305    1.759667
     80          1           0       -5.184692    5.593530    2.348327
     81          1           0       -9.750715    5.988545    0.574828
     82          1           0       -8.940171    8.265126   -0.069053
     83          1           0       -6.926964    7.497350   -0.232918
     84          1           0      -11.896109    3.447448   -1.994683
     85          1           0      -13.127923    2.059550   -1.960293
     86          1           0      -12.612284    3.099887   -0.365173
     87          1           0      -12.563844   -1.643948   -1.214816
     88          1           0      -13.211300   -0.094546   -1.559871
     89          1           0      -13.511550   -1.921196   -3.182102
     90          1           0      -12.505451   -0.442448   -3.700774
     91          1           0      -11.719227   -2.143914   -3.425210
     92          1           0       -8.858832   -4.775461   -2.090871
     93          1           0       -7.915401   -5.671387   -0.838942
     94          1           0       -9.482074   -5.027514   -0.260578
     95          1           0       -3.601185   -3.589495   -0.312620
     96          1           0       -1.510439   -4.328169    3.383820
     97          1           0       -2.870072   -5.547169    3.356459
     98          1           0       -1.107040   -5.758762    2.622606
     99          1           0        2.598846   -1.935028   -1.280865
    100          1           0        2.616045   -0.303436   -2.143066
    101          1           0        4.126128   -1.087212    0.352454
    102          1           0        3.960499    1.052461   -2.442682
    103          1           0        5.257242    2.191653   -1.929176
    104          1           0        5.769211    0.859669   -2.697845
    105          1           0        6.377733    1.698589   -0.039826
    106          1           0        6.115271    0.057582    0.918506
    107          1           0        7.275894   -1.322250   -0.970395
    108          1           0        7.777284    0.112372   -1.881959
    109          1           0        9.068711    1.062958    0.275744
    110          1           0        8.863234   -0.701473    0.849373
    111          1           0       10.244125   -0.071216   -1.784749
    112          1           0        9.030159   -2.340598   -1.411577
    113          1           0       10.792241   -2.289763   -1.918311
    114          1           0        9.976002   -2.900897   -0.303989
    115          1           0       11.256752    0.845698    0.227658
    116          1           0       11.104303   -0.509594    0.998096
    117          1           0       12.898960   -1.792457   -0.777301
    118          1           0       12.667669   -0.419697   -1.848748
    119          1           0       13.765260    1.017519    0.174433
    120          1           0       14.059611   -0.428379    1.093063
    121          1           0       15.522824    0.418504   -1.434674
    122          1           0       15.706600   -1.964968    0.169323
    123          1           0       14.944726   -2.385133   -1.286076
    124          1           0       16.841402   -2.020789   -1.105943
    125          1           0       16.306173    1.467545    0.833434
    126          1           0       16.591355   -0.263612    1.214638
    127          1           0       18.218723   -0.466368   -0.307974
    128          1           0       18.181036    1.092938   -1.297917
    129          1           0       18.462388    2.382412    0.652163
    130          1           0       18.802428    0.876907    1.645688
    131          1           0       20.590588    0.409846   -0.042080
    132          1           0       20.129985    3.125051   -1.189654
    133          1           0       21.337247    2.160546   -1.694919
    134          1           0       19.855536    1.687180   -2.020905
    135          1           0       21.154613    1.201602    1.850962
    136          1           0       22.086678    2.174053    0.561420
    137          1           0       20.939291    3.010402    1.429972
 ---------------------------------------------------------------------

 SCF Done:  E(RCAM-B3LYP) =  -2932.58580396     A.U. after   17 cycles

 Excitation energies and oscillator strengths:

 Excited State   1:      Singlet-A      1.9182 eV  646.36 nm  f=0.2644  <S**2>=0.000
     240 -> 243       -0.24122
     241 -> 242        0.66230
 This state for optimization and/or second-order correction.
 Total Energy, E(TD-HF/TD-KS) =  -2932.51531144
 Copying the excited state density for this state as the 1-particle RhoCI density.

 The electronic state is 1-A.
 Alpha  occ. eigenvalues --  -46.83492 -19.26627 -19.26295 -19.20937 -19.20772
 Alpha  occ. eigenvalues --  -19.20224 -14.42347 -14.39707 -14.38922 -14.38560
 Alpha  occ. eigenvalues --  -10.39444 -10.39169 -10.35271 -10.32505 -10.31367
 Alpha  occ. eigenvalues --  -10.31043 -10.30448 -10.30083 -10.30046 -10.29995
 Alpha  occ. eigenvalues --  -10.29355 -10.29212 -10.29145 -10.28709 -10.28638
 Alpha  occ. eigenvalues --  -10.28383 -10.28246 -10.28234 -10.28118 -10.27944
 Alpha  occ. eigenvalues --  -10.27762 -10.27646 -10.27543 -10.27320 -10.27199
 Alpha  occ. eigenvalues --  -10.27170 -10.27108 -10.26911 -10.26840 -10.26787
 Alpha  occ. eigenvalues --  -10.26783 -10.26718 -10.26495 -10.26396 -10.26291
 Alpha  occ. eigenvalues --  -10.26266 -10.26154 -10.25847 -10.25662 -10.25435
 Alpha  occ. eigenvalues --  -10.25365 -10.25310 -10.25302 -10.25161 -10.25122
 Alpha  occ. eigenvalues --  -10.24846 -10.24792 -10.24742 -10.24723 -10.24644
 Alpha  occ. eigenvalues --  -10.24415 -10.24388 -10.23269 -10.23234 -10.22211
 Alpha  occ. eigenvalues --   -3.12659  -1.87353  -1.86903  -1.86841  -1.19926
 Alpha  occ. eigenvalues --   -1.18562  -1.10173  -1.10015  -1.08712  -1.04406
 Alpha  occ. eigenvalues --   -1.03336  -1.02323  -1.01526  -0.92550  -0.92178
 Alpha  occ. eigenvalues --   -0.90976  -0.90592  -0.89924  -0.89768  -0.89057
 Alpha  occ. eigenvalues --   -0.88583  -0.87833  -0.87598  -0.86255  -0.86137
 Alpha  occ. eigenvalues --   -0.85030  -0.83987  -0.83696  -0.83190  -0.82599
 Alpha  occ. eigenvalues --   -0.81953  -0.81699  -0.80043  -0.79230  -0.78751
 Alpha  occ. eigenvalues --   -0.77681  -0.77232  -0.76760  -0.76171  -0.76100
 Alpha  occ. eigenvalues --   -0.75880  -0.75149  -0.74775  -0.74139  -0.72939
 Alpha  occ. eigenvalues --   -0.72178  -0.70991  -0.69654  -0.69252  -0.67657
 Alpha  occ. eigenvalues --   -0.66585  -0.65920  -0.65440  -0.64928  -0.64842
 Alpha  occ. eigenvalues --   -0.64040  -0.63840  -0.63340  -0.62972  -0.62761
 Alpha  occ. eigenvalues --   -0.62412  -0.61373  -0.60416  -0.60229  -0.59541
 Alpha  occ. eigenvalues --   -0.58779  -0.58233  -0.58010  -0.57429  -0.57245
 Alpha  occ. eigenvalues --   -0.56696  -0.56246  -0.55627  -0.55552  -0.55215
 Alpha  occ. eigenvalues --   -0.54576  -0.54118  -0.54037  -0.53832  -0.53329
 Alpha  occ. eigenvalues --   -0.53039  -0.52396  -0.52165  -0.51985  -0.51963
 Alpha  occ. eigenvalues --   -0.51753  -0.51332  -0.51220  -0.51179  -0.51035
 Alpha  occ. eigenvalues --   -0.50730  -0.50407  -0.50258  -0.49709  -0.49468
 Alpha  occ. eigenvalues --   -0.49264  -0.49181  -0.48911  -0.48879  -0.48681
 Alpha  occ. eigenvalues --   -0.48346  -0.48174  -0.47961  -0.47665  -0.46883
 Alpha  occ. eigenvalues --   -0.46669  -0.46452  -0.46435  -0.46214  -0.46031
 Alpha  occ. eigenvalues --   -0.45767  -0.45376  -0.45334  -0.45064  -0.45029
 Alpha  occ. eigenvalues --   -0.44851  -0.44787  -0.44384  -0.44060  -0.43988
 Alpha  occ. eigenvalues --   -0.43826  -0.43545  -0.43474  -0.43158  -0.43090
 Alpha  occ. eigenvalues --   -0.42754  -0.42701  -0.42484  -0.42244  -0.42153
 Alpha  occ. eigenvalues --   -0.42039  -0.41734  -0.41676  -0.41379  -0.41136
 Alpha  occ. eigenvalues --   -0.40740  -0.40659  -0.40613  -0.40411  -0.40288
 Alpha  occ. eigenvalues --   -0.39969  -0.39796  -0.39587  -0.39482  -0.39417
 Alpha  occ. eigenvalues --   -0.39192  -0.38413  -0.38081  -0.37594  -0.37571
 Alpha  occ. eigenvalues --   -0.37448  -0.37319  -0.37052  -0.37007  -0.36385
 Alpha  occ. eigenvalues --   -0.36293  -0.36114  -0.35954  -0.35662  -0.35395
 Alpha  occ. eigenvalues --   -0.35292  -0.35222  -0.34876  -0.33942  -0.33696
 Alpha  occ. eigenvalues --   -0.33246  -0.33002  -0.32469  -0.31519  -0.30880
 Alpha  occ. eigenvalues --   -0.29917  -0.29230  -0.28174  -0.27996  -0.23301
 Alpha  occ. eigenvalues --   -0.21241
 Alpha virt. eigenvalues --   -0.07307  -0.03186   0.01658   0.03556   0.05271
 Alpha virt. eigenvalues --    0.05681   0.06093   0.06747   0.06869   0.07225
 Alpha virt. eigenvalues --    0.08315   0.10182   0.10244   0.11369   0.12020

 Mulliken charges:
               1
     1  Mg   0.820023
     2  C    0.091642
     3  C   -0.216588
     4  C   -0.118217
     5  C   -0.165102
     6  N   -0.623439
     7  C    0.291899
     8  C   -0.143851
     9  C   -0.142466
    10  C    0.317365
    11  C   -0.278129
    12  C   -0.161094
    13  C   -0.281072
    14  C    0.623200
    15  O   -0.484675
    16  O   -0.459725
    17  N   -0.684185
    18  C    0.298201
    19  C    0.007933
    20  C    0.046351
    21  C    0.259512
    22  C   -0.376522
    23  C   -0.096812
    24  C   -0.238792
    25  N   -0.725308
    26  C    0.379285
    27  C    0.017750
    28  C    0.040578
    29  C    0.282128
    30  C   -0.364737
    31  C   -0.279308
    32  C   -0.282713
    33  N   -0.765144
    34  C    0.276385
    35  C   -0.028530
    36  C    0.040098
    37  C    0.284841
    38  C   -0.354773
    39  C    0.352516
    40  O   -0.469020
    41  C   -0.313788
    42  C    0.621272
    43  O   -0.467959
    44  O   -0.427667
    45  C   -0.084150
    46  C   -0.006749
    47  C   -0.099937
    48  C    0.125211
    49  C   -0.348536
    50  C   -0.220659
    51  C   -0.174919
    52  C   -0.177983
    53  C   -0.049168
    54  C   -0.307821
    55  C   -0.148704
    56  C   -0.197553
    57  C   -0.167466
    58  C   -0.080486
    59  C   -0.336787
    60  C   -0.182842
    61  C   -0.166507
    62  C   -0.153689
    63  C   -0.077491
    64  C   -0.345181
    65  C   -0.293341
    66  H    0.090637
    67  H    0.022489
    68  H    0.108190
    69  H    0.105337
    70  H    0.101062
    71  H    0.102652
    72  H    0.103688
    73  H    0.121291
    74  H    0.115782
    75  H    0.116372
    76  H    0.132306
    77  H    0.117107
    78  H    0.130530
    79  H    0.128645
    80  H    0.118994
    81  H    0.114647
    82  H    0.113910
    83  H    0.076800
    84  H    0.108902
    85  H    0.112311
    86  H    0.117198
    87  H    0.116825
    88  H    0.093561
    89  H    0.062855
    90  H    0.119757
    91  H    0.106887
    92  H    0.091771
    93  H    0.152325
    94  H    0.126770
    95  H    0.171142
    96  H    0.119522
    97  H    0.139033
    98  H    0.116311
    99  H    0.101020
   100  H    0.138221
   101  H    0.086217
   102  H    0.088967
   103  H    0.112774
   104  H    0.130348
   105  H    0.084378
   106  H    0.080460
   107  H    0.100280
   108  H    0.095450
   109  H    0.070530
   110  H    0.093396
   111  H    0.078557
   112  H    0.093892
   113  H    0.117758
   114  H    0.064556
   115  H    0.091212
   116  H    0.096900
   117  H    0.091742
   118  H    0.077293
   119  H    0.111562
   120  H    0.100656
   121  H    0.097401
   122  H    0.109633
   123  H    0.090761
   124  H    0.109195
   125  H    0.091209
   126  H    0.083932
   127  H    0.081508
   128  H    0.084367
   129  H    0.072707
   130  H    0.095051
   131  H    0.083312
   132  H    0.104959
   133  H    0.105991
   134  H    0.094129
   135  H    0.103207
   136  H    0.103874
   137  H    0.100382
 Sum of Mulliken charges =   0.00000

 Dipole moment (field-independent basis, Debye):
    X=              1.8695    Y=              5.0991    Z=              1.1241  Tot=              5.5462
 Quadrupole moment (field-independent basis, Debye-Ang):
   XX=           -341.9997   YY=           -391.3130   ZZ=           -400.3511
   XY=            -26.5695   XZ=              4.8230   YZ=             -2.0232

 Normal termination of Gaussian 09 at Mon Jul  1 10:47:28 2019.
