 Gaussian 09, Revision D.01,
 Gaussian 09:  ES64L-G09RevD.01 24-Apr-2013

 -------------------------------------
 # td=(NStates=1) CAM-B3LYP/6-31G(d,p)
 -------------------------------------

 --
 TD
 --
 Symbolic Z-matrix:
 Charge =  0 Multiplicity = 1

                         Standard orientation:
 ---------------------------------------------------------------------
 Center     Atomic      Atomic             Coordinates (Angstroms)
 Number     Number       Type             X           Y           Z
 ---------------------------------------------------------------------
      1         12           0       -7.263394    0.582856    0.087710
      2          6           0       -4.967282   -1.921167    0.503652
      3          6           0       -4.828749    2.859352    1.399425
      4          6           0       -9.425814    3.050019   -0.516118
      5          6           0       -9.532305   -1.835923   -0.913112
      6          7           0       -5.217723    0.469834    0.842535
      7          6           0       -4.484231   -0.649040    0.902798
      8          6           0       -2.985375   -0.368588    1.279183
      9          6           0       -3.090818    1.051069    1.784931
     10          6           0       -4.423605    1.508547    1.253169
     11          6           0       -2.863631    1.256918    3.256997
     12          6           0       -1.931208   -0.509242    0.075053
     13          6           0       -0.485727   -0.249913    0.552252
     14          6           0        0.471787   -0.526529   -0.606831
     15          8           0        0.111258   -1.047210   -1.711694
     16          8           0        1.761691   -0.379807   -0.323702
     17          7           0       -7.178697    2.653636    0.315999
     18          6           0       -6.153365    3.344627    0.888240
     19          6           0       -6.499102    4.703807    0.932660
     20          6           0       -7.797845    4.842030    0.428566
     21          6           0       -8.187678    3.473296    0.088336
     22          6           0       -5.610863    5.840272    1.509396
     23          6           0       -8.556608    6.058268    0.174312
     24          6           0       -8.132793    7.303067    0.007405
     25          7           0       -9.184020    0.635231   -0.641444
     26          6           0       -9.867624    1.791986   -0.696056
     27          6           0      -11.171006    1.395340   -1.166855
     28          6           0      -11.223670    0.009928   -1.308023
     29          6           0       -9.933795   -0.413730   -0.950785
     30          6           0      -12.267322    2.422304   -1.281929
     31          6           0      -12.431394   -0.800321   -1.768618
     32          6           0      -12.233226   -1.113402   -3.287113
     33          7           0       -7.255314   -1.390996   -0.048700
     34          6           0       -8.325768   -2.281668   -0.442888
     35          6           0       -7.812304   -3.706633   -0.418264
     36          6           0       -6.482506   -3.567246   -0.045963
     37          6           0       -6.145238   -2.152267    0.167021
     38          6           0       -8.590049   -4.832300   -0.804135
     39          6           0       -5.313686   -4.376661    0.092697
     40          8           0       -5.132051   -5.579852   -0.045572
     41          6           0       -4.129900   -3.286760    0.536952
     42          6           0       -3.595259   -3.708261    1.863827
     43          8           0       -3.799475   -3.162218    2.827135
     44          8           0       -2.742197   -4.734430    1.705098
     45          6           0       -2.140376   -5.295320    2.918158
     46          6           0        2.790852   -0.543711   -1.330069
     47          6           0        4.184981   -0.434147   -0.590517
     48          6           0        5.121730    0.471502   -0.958921
     49          6           0        5.259422    1.353432   -2.151925
     50          6           0        6.432920    0.443431   -0.135741
     51          6           0        7.552089   -0.160185   -0.872312
     52          6           0        9.003418   -0.102243   -0.085808
     53          6           0       10.206059   -0.576500   -0.806221
     54          6           0       10.150767   -2.022873   -1.273422
     55          6           0       11.443924   -0.246552    0.050927
     56          6           0       12.789665   -0.513139   -0.572222
     57          6           0       13.963960    0.057264    0.238251
     58          6           0       15.342435   -0.306666   -0.418239
     59          6           0       15.726031   -1.669424   -0.891157
     60          6           0       16.435302    0.406429    0.457521
     61          6           0       17.881799    0.444770   -0.271050
     62          6           0       18.946853    1.071313    0.745708
     63          6           0       20.318512    1.290369    0.098937
     64          6           0       20.319668    2.117518   -1.088523
     65          6           0       21.194919    1.851840    1.144875
     66          1           0       -4.128710    3.548695    1.852515
     67          1           0       -9.959254    3.967014   -0.772208
     68          1           0      -10.206040   -2.555072   -1.033624
     69          1           0       -2.530163   -1.022955    1.999940
     70          1           0       -2.118937    1.551735    1.505863
     71          1           0       -1.863632    1.067520    3.646522
     72          1           0       -3.207095    2.303467    3.465592
     73          1           0       -3.505080    0.602819    3.830781
     74          1           0       -1.969310   -1.532974   -0.228294
     75          1           0       -2.155511    0.184361   -0.883909
     76          1           0       -0.299502    0.733518    1.119289
     77          1           0       -0.088903   -0.924523    1.313604
     78          1           0       -4.983947    6.558484    0.882309
     79          1           0       -6.072488    6.552307    2.134315
     80          1           0       -4.852540    5.330345    2.096476
     81          1           0       -9.569941    5.931235    0.408408
     82          1           0       -8.681117    8.043492   -0.164729
     83          1           0       -7.102249    7.361521   -0.320867
     84          1           0      -12.113631    2.812166   -2.367666
     85          1           0      -13.382734    2.087303   -1.486272
     86          1           0      -12.217064    2.982849   -0.380863
     87          1           0      -12.679184   -1.747005   -1.312195
     88          1           0      -13.408376   -0.230986   -1.621330
     89          1           0      -13.005523   -1.826034   -3.720688
     90          1           0      -11.949372   -0.148751   -3.865275
     91          1           0      -11.199141   -1.536348   -3.634619
     92          1           0       -9.096634   -4.774414   -1.744851
     93          1           0       -7.995815   -5.657260   -0.655373
     94          1           0       -9.548784   -4.900920   -0.219322
     95          1           0       -3.428000   -3.449233   -0.546472
     96          1           0       -1.592920   -4.559598    3.399689
     97          1           0       -2.956073   -5.553918    3.487791
     98          1           0       -1.561090   -6.369851    2.633057
     99          1           0        2.746158   -1.582042   -1.766862
    100          1           0        2.453433    0.121323   -2.079593
    101          1           0        4.392897   -1.144828    0.322963
    102          1           0        4.133344    1.701414   -2.555006
    103          1           0        5.672091    2.286733   -1.883477
    104          1           0        5.613947    0.839950   -3.010459
    105          1           0        6.631387    1.460266    0.021069
    106          1           0        6.523295   -0.105585    0.899589
    107          1           0        7.300700   -1.050563   -1.101670
    108          1           0        7.991082    0.410616   -1.769097
    109          1           0        8.943741    1.065887    0.214743
    110          1           0        9.033199   -0.699402    1.098075
    111          1           0       10.404507   -0.025974   -1.762832
    112          1           0        9.215098   -2.250973   -1.734812
    113          1           0       10.826736   -2.394488   -1.826692
    114          1           0       10.290636   -2.828300   -0.429512
    115          1           0       11.440841    0.866555    0.193925
    116          1           0       11.340364   -0.754553    0.829137
    117          1           0       13.072700   -1.705558   -0.775148
    118          1           0       12.887066    0.011350   -1.777639
    119          1           0       13.714860    1.203171    0.262643
    120          1           0       13.990613   -0.358197    1.346047
    121          1           0       14.979294    0.372696   -1.285161
    122          1           0       15.696628   -2.299543   -0.038520
    123          1           0       15.052211   -1.979137   -1.796247
    124          1           0       16.900729   -1.819287   -1.073044
    125          1           0       16.214697    1.558945    0.615286
    126          1           0       16.355397   -0.049475    1.491297
    127          1           0       18.104628   -0.485039   -0.522532
    128          1           0       17.857394    0.826135   -1.210705
    129          1           0       18.392017    1.992586    0.851398
    130          1           0       18.841785    0.486038    1.580563
    131          1           0       20.656385    0.273726   -0.118199
    132          1           0       19.993748    3.050194   -0.942514
    133          1           0       21.366137    2.209971   -1.344086
    134          1           0       19.702964    1.835584   -2.046908
    135          1           0       21.538061    1.134206    1.989324
    136          1           0       22.313341    2.347306    0.540616
    137          1           0       20.760034    2.819505    1.644497
 ---------------------------------------------------------------------

 SCF Done:  E(RCAM-B3LYP) =  -2932.54723574     A.U. after   17 cycles

 Excitation energies and oscillator strengths:

 Excited State   1:      Singlet-A      2.1732 eV  570.52 nm  f=0.2309  <S**2>=0.000
     240 -> 242       -0.16828
     240 -> 243       -0.23039
     241 -> 242        0.61785
     241 -> 243       -0.16671
 This state for optimization and/or second-order correction.
 Total Energy, E(TD-HF/TD-KS) =  -2932.46737293
 Copying the excited state density for this state as the 1-particle RhoCI density.

 The electronic state is 1-A.
 Alpha  occ. eigenvalues --  -46.84214 -19.26149 -19.24931 -19.21292 -19.21237
 Alpha  occ. eigenvalues --  -19.19697 -14.42651 -14.39047 -14.38990 -14.38646
 Alpha  occ. eigenvalues --  -10.39520 -10.38498 -10.35707 -10.32651 -10.32269
 Alpha  occ. eigenvalues --  -10.31664 -10.30356 -10.30321 -10.30153 -10.30084
 Alpha  occ. eigenvalues --  -10.29361 -10.28904 -10.28772 -10.28721 -10.28472
 Alpha  occ. eigenvalues --  -10.28280 -10.28219 -10.28047 -10.27967 -10.27754
 Alpha  occ. eigenvalues --  -10.27726 -10.27655 -10.27606 -10.27502 -10.27408
 Alpha  occ. eigenvalues --  -10.27107 -10.27014 -10.26894 -10.26704 -10.26547
 Alpha  occ. eigenvalues --  -10.26536 -10.26526 -10.26510 -10.26389 -10.26361
 Alpha  occ. eigenvalues --  -10.26317 -10.26201 -10.26078 -10.26038 -10.25966
 Alpha  occ. eigenvalues --  -10.25909 -10.25555 -10.25403 -10.25393 -10.25338
 Alpha  occ. eigenvalues --  -10.25219 -10.25184 -10.25097 -10.24981 -10.23991
 Alpha  occ. eigenvalues --  -10.23919 -10.23582 -10.23582 -10.23164 -10.23060
 Alpha  occ. eigenvalues --   -3.13239  -1.87952  -1.87489  -1.87397  -1.20587
 Alpha  occ. eigenvalues --   -1.17550  -1.11363  -1.10973  -1.05919  -1.05106
 Alpha  occ. eigenvalues --   -1.04604  -1.03465  -1.02159  -0.92531  -0.91720
 Alpha  occ. eigenvalues --   -0.90774  -0.90463  -0.90096  -0.89339  -0.88545
 Alpha  occ. eigenvalues --   -0.88413  -0.87891  -0.87279  -0.87168  -0.85887
 Alpha  occ. eigenvalues --   -0.84855  -0.83825  -0.83348  -0.83090  -0.81947
 Alpha  occ. eigenvalues --   -0.81763  -0.81485  -0.80912  -0.80789  -0.78930
 Alpha  occ. eigenvalues --   -0.77553  -0.76964  -0.76437  -0.75981  -0.75922
 Alpha  occ. eigenvalues --   -0.75882  -0.74893  -0.74433  -0.73140  -0.72616
 Alpha  occ. eigenvalues --   -0.72057  -0.70480  -0.69326  -0.69028  -0.68552
 Alpha  occ. eigenvalues --   -0.67716  -0.67309  -0.65315  -0.64478  -0.64194
 Alpha  occ. eigenvalues --   -0.64108  -0.63203  -0.62944  -0.62884  -0.62122
 Alpha  occ. eigenvalues --   -0.61073  -0.60787  -0.60668  -0.59950  -0.59610
 Alpha  occ. eigenvalues --   -0.59211  -0.58343  -0.57680  -0.56871  -0.56713
 Alpha  occ. eigenvalues --   -0.56209  -0.56173  -0.56055  -0.55756  -0.55221
 Alpha  occ. eigenvalues --   -0.54593  -0.54410  -0.54104  -0.53787  -0.53135
 Alpha  occ. eigenvalues --   -0.53059  -0.52641  -0.52315  -0.52253  -0.51839
 Alpha  occ. eigenvalues --   -0.51637  -0.51414  -0.51394  -0.51248  -0.51067
 Alpha  occ. eigenvalues --   -0.50838  -0.50474  -0.50270  -0.50129  -0.49927
 Alpha  occ. eigenvalues --   -0.49438  -0.49381  -0.48663  -0.48579  -0.48432
 Alpha  occ. eigenvalues --   -0.48238  -0.48093  -0.47747  -0.47427  -0.47307
 Alpha  occ. eigenvalues --   -0.46942  -0.46884  -0.46576  -0.46510  -0.46233
 Alpha  occ. eigenvalues --   -0.45876  -0.45578  -0.45553  -0.45407  -0.45098
 Alpha  occ. eigenvalues --   -0.44873  -0.44756  -0.44524  -0.44342  -0.44173
 Alpha  occ. eigenvalues --   -0.44145  -0.43767  -0.43449  -0.43244  -0.43170
 Alpha  occ. eigenvalues --   -0.42788  -0.42779  -0.42375  -0.42240  -0.41925
 Alpha  occ. eigenvalues --   -0.41757  -0.41454  -0.41304  -0.41103  -0.41063
 Alpha  occ. eigenvalues --   -0.40887  -0.40628  -0.40556  -0.40222  -0.40128
 Alpha  occ. eigenvalues --   -0.39902  -0.39724  -0.39682  -0.39245  -0.39071
 Alpha  occ. eigenvalues --   -0.38664  -0.38651  -0.38051  -0.37979  -0.37407
 Alpha  occ. eigenvalues --   -0.37091  -0.37071  -0.36653  -0.36520  -0.36383
 Alpha  occ. eigenvalues --   -0.36149  -0.36127  -0.35882  -0.35740  -0.35068
 Alpha  occ. eigenvalues --   -0.34907  -0.34651  -0.34482  -0.34181  -0.32807
 Alpha  occ. eigenvalues --   -0.32691  -0.32570  -0.31855  -0.31053  -0.30373
 Alpha  occ. eigenvalues --   -0.30066  -0.29820  -0.27647  -0.26563  -0.23492
 Alpha  occ. eigenvalues --   -0.21065
 Alpha virt. eigenvalues --   -0.06024  -0.03552   0.00727   0.04773   0.05557
 Alpha virt. eigenvalues --    0.05759   0.06277   0.06543   0.06865   0.07758
 Alpha virt. eigenvalues --    0.08770   0.10224   0.10759   0.11855   0.11873

 Mulliken charges:
               1
     1  Mg   0.821404
     2  C    0.019434
     3  C   -0.185107
     4  C   -0.148006
     5  C   -0.148726
     6  N   -0.628641
     7  C    0.323795
     8  C   -0.149922
     9  C   -0.140802
    10  C    0.329156
    11  C   -0.308700
    12  C   -0.163207
    13  C   -0.277246
    14  C    0.599477
    15  O   -0.511680
    16  O   -0.467378
    17  N   -0.695577
    18  C    0.284771
    19  C   -0.010490
    20  C   -0.006674
    21  C    0.264348
    22  C   -0.368236
    23  C   -0.088162
    24  C   -0.218302
    25  N   -0.712808
    26  C    0.333332
    27  C   -0.010940
    28  C    0.005189
    29  C    0.298095
    30  C   -0.365630
    31  C   -0.222206
    32  C   -0.314305
    33  N   -0.783309
    34  C    0.264485
    35  C    0.078184
    36  C    0.018146
    37  C    0.394791
    38  C   -0.399953
    39  C    0.323749
    40  O   -0.454127
    41  C   -0.337941
    42  C    0.632859
    43  O   -0.415012
    44  O   -0.474963
    45  C   -0.080788
    46  C    0.020059
    47  C   -0.148109
    48  C    0.115532
    49  C   -0.358213
    50  C   -0.224156
    51  C   -0.163121
    52  C   -0.153792
    53  C   -0.064425
    54  C   -0.304033
    55  C   -0.130364
    56  C   -0.166945
    57  C   -0.170723
    58  C   -0.035138
    59  C   -0.315329
    60  C   -0.187644
    61  C   -0.203041
    62  C   -0.170394
    63  C   -0.038348
    64  C   -0.303004
    65  C   -0.274402
    66  H    0.098215
    67  H    0.107787
    68  H    0.071170
    69  H    0.116724
    70  H    0.100040
    71  H    0.103350
    72  H    0.102257
    73  H    0.118172
    74  H    0.134242
    75  H    0.111952
    76  H    0.126961
    77  H    0.143043
    78  H    0.104483
    79  H    0.129919
    80  H    0.096889
    81  H    0.085048
    82  H    0.089244
    83  H    0.095218
    84  H    0.121899
    85  H    0.098731
    86  H    0.131559
    87  H    0.106428
    88  H    0.103588
    89  H    0.098710
    90  H    0.100377
    91  H    0.096283
    92  H    0.147556
    93  H    0.154724
    94  H    0.128911
    95  H    0.145825
    96  H    0.133882
    97  H    0.141074
    98  H    0.114265
    99  H    0.127106
   100  H    0.130509
   101  H    0.105666
   102  H    0.082256
   103  H    0.130432
   104  H    0.151446
   105  H    0.096702
   106  H    0.095931
   107  H    0.110348
   108  H    0.087855
   109  H    0.075047
   110  H    0.030928
   111  H    0.082407
   112  H    0.104137
   113  H    0.120621
   114  H    0.069810
   115  H    0.087608
   116  H    0.105129
   117  H    0.067666
   118  H    0.036017
   119  H    0.090832
   120  H    0.065498
   121  H    0.074847
   122  H    0.111417
   123  H    0.107065
   124  H    0.096911
   125  H    0.077721
   126  H    0.084753
   127  H    0.091808
   128  H    0.101270
   129  H    0.092254
   130  H    0.100444
   131  H    0.093135
   132  H    0.115659
   133  H    0.103212
   134  H    0.085977
   135  H    0.101339
   136  H    0.027171
   137  H    0.095759
 Sum of Mulliken charges =   0.00000

 Dipole moment (field-independent basis, Debye):
    X=              2.2702    Y=              1.1266    Z=              0.7809  Tot=              2.6519
 Quadrupole moment (field-independent basis, Debye-Ang):
   XX=           -358.9904   YY=           -396.0453   ZZ=           -396.0725
   XY=             -2.6100   XZ=              5.0051   YZ=             -7.7493

 Normal termination of Gaussian 09 at Thu Jun 27 00:37:19 2019.
