 Gaussian 09, Revision D.01,
 Gaussian 09:  ES64L-G09RevD.01 24-Apr-2013

 -------------------------------------
 # td=(NStates=1) CAM-B3LYP/6-31G(d,p)
 -------------------------------------

 --
 TD
 --
 Symbolic Z-matrix:
 Charge =  0 Multiplicity = 1

                         Standard orientation:
 ---------------------------------------------------------------------
 Center     Atomic      Atomic             Coordinates (Angstroms)
 Number     Number       Type             X           Y           Z
 ---------------------------------------------------------------------
      1         12           0       -7.112961    0.594415    0.163623
      2          6           0       -4.909159   -1.967498    0.609039
      3          6           0       -4.767427    2.799021    1.153495
      4          6           0       -9.420509    3.163148   -0.253024
      5          6           0       -9.542148   -1.771026   -0.907695
      6          7           0       -5.059311    0.436208    0.702039
      7          6           0       -4.371531   -0.676299    0.855877
      8          6           0       -2.954541   -0.396359    1.246503
      9          6           0       -2.981478    1.015603    1.720678
     10          6           0       -4.304683    1.492683    1.143933
     11          6           0       -2.967876    1.110410    3.202501
     12          6           0       -1.908602   -0.546262    0.146814
     13          6           0       -0.520959   -0.292390    0.565766
     14          6           0        0.508833   -0.678848   -0.537978
     15          8           0        0.077243   -1.155385   -1.545221
     16          8           0        1.752253   -0.484623   -0.147808
     17          7           0       -7.087229    2.623080    0.315310
     18          6           0       -5.985718    3.329702    0.793712
     19          6           0       -6.372815    4.749121    0.790221
     20          6           0       -7.740226    4.867585    0.536019
     21          6           0       -8.124129    3.482032    0.163295
     22          6           0       -5.456629    5.851510    1.345178
     23          6           0       -8.579335    6.041072    0.221792
     24          6           0       -8.280854    7.292022    0.088183
     25          7           0       -9.013637    0.719162   -0.514023
     26          6           0       -9.795179    1.836669   -0.588150
     27          6           0      -11.169955    1.517561   -1.123559
     28          6           0      -11.194437    0.179694   -1.198630
     29          6           0       -9.804981   -0.408593   -0.901324
     30          6           0      -12.273260    2.624014   -1.294660
     31          6           0      -12.421368   -0.642381   -1.810580
     32          6           0      -12.205474   -0.980489   -3.202468
     33          7           0       -7.268737   -1.444511   -0.117379
     34          6           0       -8.337124   -2.219845   -0.515990
     35          6           0       -7.833356   -3.622246   -0.533038
     36          6           0       -6.505618   -3.575507   -0.086067
     37          6           0       -6.222642   -2.205871    0.164834
     38          6           0       -8.626609   -4.936366   -0.772463
     39          6           0       -5.296013   -4.394825    0.138878
     40          8           0       -5.187760   -5.605466   -0.121800
     41          6           0       -4.165152   -3.349585    0.483877
     42          6           0       -3.538471   -3.697894    1.770223
     43          8           0       -3.836105   -3.147256    2.800000
     44          8           0       -2.775126   -4.799663    1.751299
     45          6           0       -2.150049   -5.227545    2.916079
     46          6           0        2.768710   -0.670302   -1.185279
     47          6           0        4.174421   -0.440954   -0.503407
     48          6           0        5.087776    0.229349   -1.095725
     49          6           0        4.979525    0.994032   -2.391158
     50          6           0        6.422914    0.565315   -0.328721
     51          6           0        7.603161   -0.108249   -1.066163
     52          6           0        8.954012   -0.051977   -0.218074
     53          6           0       10.166134   -0.517079   -0.942323
     54          6           0       10.094781   -1.927905   -1.343983
     55          6           0       11.416469   -0.237147   -0.035215
     56          6           0       12.838236   -0.544432   -0.638969
     57          6           0       13.910028   -0.142041    0.288310
     58          6           0       15.337367   -0.271248   -0.338295
     59          6           0       15.621520   -1.694487   -0.961843
     60          6           0       16.389985    0.290696    0.547495
     61          6           0       17.789635    0.525515   -0.176884
     62          6           0       18.833898    1.200689    0.836756
     63          6           0       20.236070    1.395277    0.217544
     64          6           0       20.233482    2.307584   -1.025188
     65          6           0       21.229013    1.964257    1.294963
     66          1           0       -3.976346    3.615399    1.436995
     67          1           0      -10.214027    3.958276   -0.313061
     68          1           0      -10.353331   -2.475510   -1.023511
     69          1           0       -2.636390   -1.206521    2.055208
     70          1           0       -2.052517    1.473606    1.315135
     71          1           0       -2.091309    0.742495    3.790251
     72          1           0       -2.970853    2.057781    3.688032
     73          1           0       -3.799241    0.664866    3.778567
     74          1           0       -2.054326   -1.489055   -0.477932
     75          1           0       -2.173007    0.228778   -0.663396
     76          1           0       -0.414600    0.518890    0.934684
     77          1           0       -0.325723   -1.356252    1.220833
     78          1           0       -4.860059    6.319798    0.466956
     79          1           0       -6.214228    6.579538    1.918491
     80          1           0       -4.747781    5.434101    1.944223
     81          1           0       -9.627325    5.778787    0.303482
     82          1           0       -8.977257    8.196694   -0.119240
     83          1           0       -7.193642    7.269702    0.041557
     84          1           0      -12.078534    3.086589   -2.127834
     85          1           0      -13.462964    2.066912   -1.184026
     86          1           0      -12.091242    3.458518   -0.555970
     87          1           0      -12.447119   -1.511947   -0.893427
     88          1           0      -13.236217    0.172350   -1.821600
     89          1           0      -13.039399   -1.601123   -3.662380
     90          1           0      -11.965096    0.008407   -3.781763
     91          1           0      -11.269560   -1.713239   -3.260460
     92          1           0       -8.940812   -4.951774   -1.751816
     93          1           0       -8.078454   -5.945769   -0.545025
     94          1           0       -9.602972   -5.066449   -0.216023
     95          1           0       -3.270299   -3.523463   -0.327589
     96          1           0       -1.385547   -4.369512    3.391287
     97          1           0       -2.940316   -5.510581    3.630015
     98          1           0       -1.686196   -6.241664    2.565565
     99          1           0        2.886817   -1.701074   -1.532453
    100          1           0        2.573976   -0.152593   -2.091500
    101          1           0        4.352483   -0.745817    0.525042
    102          1           0        3.802371    0.912383   -2.790625
    103          1           0        5.102503    2.034928   -1.950722
    104          1           0        5.711551    0.786256   -3.151565
    105          1           0        6.553066    1.625806   -0.187732
    106          1           0        6.258432    0.254445    0.828674
    107          1           0        7.382053   -1.063417   -1.338020
    108          1           0        7.682677    0.416934   -1.943594
    109          1           0        8.995382    1.000985   -0.136261
    110          1           0        8.637723   -0.498312    0.732270
    111          1           0       10.392029    0.045036   -1.841752
    112          1           0        9.304365   -2.117772   -2.093491
    113          1           0       11.025257   -2.239690   -1.984825
    114          1           0        9.988319   -2.575538   -0.472072
    115          1           0       11.257355    0.704895    0.211122
    116          1           0       11.232394   -0.817334    0.894996
    117          1           0       12.960750   -1.626480   -0.700657
    118          1           0       12.567241   -0.337419   -1.739922
    119          1           0       13.774188    0.796393    0.601839
    120          1           0       14.064502   -0.513696    1.208006
    121          1           0       15.383198    0.537739   -1.213018
    122          1           0       15.657824   -2.443099   -0.267133
    123          1           0       14.779557   -2.088566   -1.729408
    124          1           0       16.633592   -1.634602   -1.397136
    125          1           0       16.014399    1.257141    0.675792
    126          1           0       16.396659   -0.450202    1.411908
    127          1           0       18.359435   -0.264152   -0.547924
    128          1           0       17.615332    1.240024   -1.111864
    129          1           0       18.689477    2.245035    1.003569
    130          1           0       18.939507    0.604239    1.736892
    131          1           0       20.650176    0.447601   -0.102249
    132          1           0       19.703846    3.304327   -0.932361
    133          1           0       21.241718    2.245322   -1.161915
    134          1           0       19.864898    1.861670   -1.862184
    135          1           0       21.500854    1.382071    2.315699
    136          1           0       22.185909    2.113097    0.664770
    137          1           0       20.962757    3.079928    1.566032
 ---------------------------------------------------------------------

 SCF Done:  E(RCAM-B3LYP) =  -2932.62814306     A.U. after   17 cycles

 Excitation energies and oscillator strengths:

 Excited State   1:      Singlet-A      1.9711 eV  629.02 nm  f=0.2845  <S**2>=0.000
     240 -> 243        0.24012
     241 -> 242        0.66270
 This state for optimization and/or second-order correction.
 Total Energy, E(TD-HF/TD-KS) =  -2932.55570799
 Copying the excited state density for this state as the 1-particle RhoCI density.

 The electronic state is 1-A.
 Alpha  occ. eigenvalues --  -46.84314 -19.27920 -19.26012 -19.20818 -19.20525
 Alpha  occ. eigenvalues --  -19.20280 -14.42467 -14.40048 -14.39585 -14.39159
 Alpha  occ. eigenvalues --  -10.39390 -10.38631 -10.35695 -10.32976 -10.32770
 Alpha  occ. eigenvalues --  -10.31273 -10.30691 -10.30096 -10.29963 -10.29831
 Alpha  occ. eigenvalues --  -10.29503 -10.29441 -10.29026 -10.28660 -10.28494
 Alpha  occ. eigenvalues --  -10.28144 -10.27922 -10.27890 -10.27877 -10.27633
 Alpha  occ. eigenvalues --  -10.27254 -10.27214 -10.27175 -10.27052 -10.27047
 Alpha  occ. eigenvalues --  -10.27006 -10.26933 -10.26902 -10.26899 -10.26895
 Alpha  occ. eigenvalues --  -10.26865 -10.26680 -10.26505 -10.26457 -10.26360
 Alpha  occ. eigenvalues --  -10.26242 -10.26098 -10.26024 -10.25990 -10.25943
 Alpha  occ. eigenvalues --  -10.25941 -10.25852 -10.25454 -10.25190 -10.25143
 Alpha  occ. eigenvalues --  -10.25142 -10.24960 -10.24895 -10.24695 -10.24666
 Alpha  occ. eigenvalues --  -10.24333 -10.24202 -10.23559 -10.23353 -10.23100
 Alpha  occ. eigenvalues --   -3.13381  -1.88089  -1.87620  -1.87555  -1.19574
 Alpha  occ. eigenvalues --   -1.19199  -1.10840  -1.09704  -1.09464  -1.06039
 Alpha  occ. eigenvalues --   -1.03885  -1.02920  -1.00820  -0.92183  -0.91854
 Alpha  occ. eigenvalues --   -0.91558  -0.90890  -0.89848  -0.89216  -0.88650
 Alpha  occ. eigenvalues --   -0.88624  -0.87884  -0.87519  -0.86755  -0.85835
 Alpha  occ. eigenvalues --   -0.85251  -0.84376  -0.83726  -0.83523  -0.82650
 Alpha  occ. eigenvalues --   -0.81725  -0.81346  -0.80225  -0.79700  -0.78256
 Alpha  occ. eigenvalues --   -0.77626  -0.76738  -0.76256  -0.76140  -0.76108
 Alpha  occ. eigenvalues --   -0.75991  -0.75160  -0.74941  -0.74174  -0.72204
 Alpha  occ. eigenvalues --   -0.71801  -0.70640  -0.69730  -0.68061  -0.67764
 Alpha  occ. eigenvalues --   -0.67304  -0.66457  -0.66350  -0.66115  -0.64657
 Alpha  occ. eigenvalues --   -0.64074  -0.63813  -0.63316  -0.62324  -0.61820
 Alpha  occ. eigenvalues --   -0.61769  -0.61187  -0.59751  -0.59257  -0.58804
 Alpha  occ. eigenvalues --   -0.58533  -0.58161  -0.57699  -0.57426  -0.56631
 Alpha  occ. eigenvalues --   -0.56348  -0.55936  -0.55562  -0.55182  -0.55087
 Alpha  occ. eigenvalues --   -0.54746  -0.54410  -0.53763  -0.53543  -0.53396
 Alpha  occ. eigenvalues --   -0.53086  -0.52504  -0.52314  -0.52049  -0.51762
 Alpha  occ. eigenvalues --   -0.51578  -0.51475  -0.50993  -0.50739  -0.50510
 Alpha  occ. eigenvalues --   -0.50363  -0.50008  -0.49900  -0.49693  -0.49411
 Alpha  occ. eigenvalues --   -0.49273  -0.49222  -0.49017  -0.48494  -0.48251
 Alpha  occ. eigenvalues --   -0.48140  -0.47777  -0.47685  -0.47541  -0.47003
 Alpha  occ. eigenvalues --   -0.46901  -0.46749  -0.46439  -0.46312  -0.45974
 Alpha  occ. eigenvalues --   -0.45869  -0.45658  -0.45479  -0.45339  -0.45222
 Alpha  occ. eigenvalues --   -0.44907  -0.44626  -0.44355  -0.44264  -0.43987
 Alpha  occ. eigenvalues --   -0.43827  -0.43726  -0.43574  -0.43474  -0.43313
 Alpha  occ. eigenvalues --   -0.43247  -0.43007  -0.42655  -0.42525  -0.42317
 Alpha  occ. eigenvalues --   -0.42247  -0.41899  -0.41781  -0.41745  -0.41310
 Alpha  occ. eigenvalues --   -0.41218  -0.40853  -0.40519  -0.40301  -0.40146
 Alpha  occ. eigenvalues --   -0.40026  -0.39557  -0.39043  -0.39009  -0.38838
 Alpha  occ. eigenvalues --   -0.38775  -0.38289  -0.38238  -0.37926  -0.37588
 Alpha  occ. eigenvalues --   -0.37574  -0.37382  -0.36974  -0.36936  -0.36631
 Alpha  occ. eigenvalues --   -0.36604  -0.36484  -0.35918  -0.35845  -0.35362
 Alpha  occ. eigenvalues --   -0.35224  -0.34996  -0.34907  -0.33343  -0.33152
 Alpha  occ. eigenvalues --   -0.33032  -0.32727  -0.32616  -0.30899  -0.30777
 Alpha  occ. eigenvalues --   -0.30078  -0.29478  -0.28808  -0.27665  -0.23397
 Alpha  occ. eigenvalues --   -0.20584
 Alpha virt. eigenvalues --   -0.06393  -0.02854   0.01286   0.03932   0.05586
 Alpha virt. eigenvalues --    0.06263   0.06757   0.07165   0.07871   0.08151
 Alpha virt. eigenvalues --    0.08455   0.09928   0.11025   0.11223   0.11857

 Mulliken charges:
               1
     1  Mg   0.819510
     2  C    0.069841
     3  C   -0.221761
     4  C   -0.176740
     5  C   -0.157669
     6  N   -0.635526
     7  C    0.355371
     8  C   -0.152706
     9  C   -0.131344
    10  C    0.326470
    11  C   -0.323892
    12  C   -0.190058
    13  C   -0.197297
    14  C    0.599969
    15  O   -0.458803
    16  O   -0.460978
    17  N   -0.721239
    18  C    0.345605
    19  C   -0.033082
    20  C   -0.003269
    21  C    0.319885
    22  C   -0.361494
    23  C   -0.028595
    24  C   -0.266263
    25  N   -0.698875
    26  C    0.304003
    27  C    0.037240
    28  C   -0.061144
    29  C    0.284149
    30  C   -0.345418
    31  C   -0.194286
    32  C   -0.277942
    33  N   -0.753156
    34  C    0.297373
    35  C   -0.033049
    36  C    0.021235
    37  C    0.305992
    38  C   -0.380153
    39  C    0.387690
    40  O   -0.464976
    41  C   -0.336833
    42  C    0.623391
    43  O   -0.463317
    44  O   -0.435940
    45  C   -0.076309
    46  C   -0.002685
    47  C   -0.162399
    48  C    0.137731
    49  C   -0.341641
    50  C   -0.236524
    51  C   -0.191447
    52  C   -0.174660
    53  C   -0.081911
    54  C   -0.293892
    55  C   -0.173520
    56  C   -0.181152
    57  C   -0.166940
    58  C   -0.068883
    59  C   -0.319585
    60  C   -0.162033
    61  C   -0.193850
    62  C   -0.152077
    63  C   -0.094801
    64  C   -0.303245
    65  C   -0.301631
    66  H    0.084230
    67  H    0.089693
    68  H    0.109719
    69  H    0.117392
    70  H    0.102070
    71  H    0.105558
    72  H    0.108003
    73  H    0.126404
    74  H    0.120803
    75  H    0.091742
    76  H    0.101342
    77  H    0.103532
    78  H    0.112832
    79  H    0.119902
    80  H    0.121245
    81  H    0.073492
    82  H    0.116803
    83  H    0.097501
    84  H    0.147064
    85  H    0.091922
    86  H    0.113866
    87  H    0.081934
    88  H    0.089240
    89  H    0.103640
    90  H    0.107852
    91  H    0.090219
    92  H    0.132582
    93  H    0.141584
    94  H    0.112642
    95  H    0.158617
    96  H    0.100925
    97  H    0.133264
    98  H    0.122331
    99  H    0.138183
   100  H    0.131107
   101  H    0.100047
   102  H    0.077423
   103  H    0.120536
   104  H    0.131704
   105  H    0.104379
   106  H    0.067466
   107  H    0.110667
   108  H    0.100366
   109  H    0.097660
   110  H    0.099343
   111  H    0.082088
   112  H    0.096239
   113  H    0.080334
   114  H    0.101756
   115  H    0.095503
   116  H    0.076133
   117  H    0.103902
   118  H    0.092083
   119  H    0.092924
   120  H    0.101013
   121  H    0.052743
   122  H    0.109454
   123  H    0.086469
   124  H    0.102669
   125  H    0.111616
   126  H    0.081478
   127  H    0.104363
   128  H    0.076353
   129  H    0.090396
   130  H    0.091037
   131  H    0.085979
   132  H    0.097544
   133  H    0.107615
   134  H    0.111730
   135  H    0.093169
   136  H    0.087647
   137  H    0.088475
 Sum of Mulliken charges =   0.00000

 Dipole moment (field-independent basis, Debye):
    X=              3.3701    Y=              4.5043    Z=              0.6051  Tot=              5.6579
 Quadrupole moment (field-independent basis, Debye-Ang):
   XX=           -350.0439   YY=           -398.6828   ZZ=           -397.9140
   XY=            -22.4541   XZ=              4.0158   YZ=             -5.4224

 Normal termination of Gaussian 09 at Fri Jun 28 00:56:24 2019.
