 Gaussian 09, Revision D.01,
 Gaussian 09:  ES64L-G09RevD.01 24-Apr-2013

 -------------------------------------
 # td=(NStates=1) CAM-B3LYP/6-31G(d,p)
 -------------------------------------

 --
 TD
 --
 Symbolic Z-matrix:
 Charge =  0 Multiplicity = 1

                         Standard orientation:
 ---------------------------------------------------------------------
 Center     Atomic      Atomic             Coordinates (Angstroms)
 Number     Number       Type             X           Y           Z
 ---------------------------------------------------------------------
      1         12           0       -7.132225    0.623584    0.126331
      2          6           0       -4.826064   -1.959870    0.436301
      3          6           0       -4.799216    2.816840    1.117602
      4          6           0       -9.378126    3.168094   -0.422456
      5          6           0       -9.617456   -1.637806   -0.957256
      6          7           0       -5.149938    0.366691    0.739041
      7          6           0       -4.342259   -0.683204    0.764454
      8          6           0       -2.949601   -0.352970    1.266646
      9          6           0       -3.054941    1.105831    1.720252
     10          6           0       -4.383122    1.546950    1.152879
     11          6           0       -2.994395    1.207674    3.299258
     12          6           0       -1.933733   -0.712504    0.130118
     13          6           0       -0.460319   -0.596465    0.560828
     14          6           0        0.500591   -0.831624   -0.570611
     15          8           0        0.227268   -1.186603   -1.644074
     16          8           0        1.775420   -0.565519   -0.110850
     17          7           0       -7.095343    2.667591    0.399267
     18          6           0       -6.054885    3.324725    0.899008
     19          6           0       -6.350778    4.669437    0.775433
     20          6           0       -7.608565    4.866183    0.455117
     21          6           0       -8.108256    3.502875    0.113467
     22          6           0       -5.531045    5.756241    1.555986
     23          6           0       -8.508523    6.108277    0.252178
     24          6           0       -8.054305    7.351941    0.005784
     25          7           0       -9.081322    0.713741   -0.512492
     26          6           0       -9.870084    1.890861   -0.626148
     27          6           0      -11.206388    1.542750   -1.050213
     28          6           0      -11.264824    0.217301   -1.236975
     29          6           0       -9.943547   -0.289316   -0.817122
     30          6           0      -12.312052    2.588074   -1.282445
     31          6           0      -12.422386   -0.631687   -1.681184
     32          6           0      -12.359476   -1.195700   -3.178689
     33          7           0       -7.273881   -1.375636   -0.129753
     34          6           0       -8.362449   -2.251347   -0.573090
     35          6           0       -7.860634   -3.556037   -0.590850
     36          6           0       -6.547747   -3.422969   -0.095262
     37          6           0       -6.213737   -2.196051    0.135062
     38          6           0       -8.713482   -4.748954   -0.924160
     39          6           0       -5.330248   -4.311923    0.185928
     40          8           0       -5.205153   -5.440507    0.157200
     41          6           0       -4.207180   -3.375472    0.500199
     42          6           0       -3.635388   -3.727597    1.848749
     43          8           0       -3.783121   -3.229341    2.961282
     44          8           0       -2.767860   -4.738911    1.667011
     45          6           0       -2.299165   -5.463327    2.788905
     46          6           0        2.787179   -0.694485   -1.280331
     47          6           0        4.080201   -0.610181   -0.649012
     48          6           0        5.188893    0.294341   -0.992354
     49          6           0        5.021799    1.061713   -2.306350
     50          6           0        6.542076    0.299107   -0.158991
     51          6           0        7.665870   -0.043510   -1.059397
     52          6           0        8.984903   -0.092164   -0.214810
     53          6           0       10.265313   -0.431118   -0.981365
     54          6           0       10.166022   -1.913624   -1.607973
     55          6           0       11.489362   -0.280965   -0.116635
     56          6           0       12.777634   -0.503649   -0.783763
     57          6           0       13.911560   -0.278209    0.247692
     58          6           0       15.368632   -0.334386   -0.452486
     59          6           0       15.805924   -1.787835   -0.589432
     60          6           0       16.420201    0.483071    0.416699
     61          6           0       17.821386    0.639939   -0.121685
     62          6           0       18.760509    1.378062    0.777981
     63          6           0       20.211879    1.424108    0.321750
     64          6           0       20.325045    2.209931   -1.029905
     65          6           0       21.126730    2.039838    1.290548
     66          1           0       -3.918833    3.525865    1.298236
     67          1           0      -10.101585    3.866504   -0.584264
     68          1           0      -10.428792   -2.292696   -1.213385
     69          1           0       -2.616144   -1.062051    2.082976
     70          1           0       -2.097001    1.666415    1.377392
     71          1           0       -1.925985    1.032144    3.739499
     72          1           0       -3.428188    2.271226    3.661117
     73          1           0       -3.789676    0.613831    3.854924
     74          1           0       -1.871600   -1.710916   -0.225519
     75          1           0       -2.324966   -0.019375   -0.630317
     76          1           0       -0.187240    0.357630    1.091667
     77          1           0       -0.300407   -1.274370    1.352802
     78          1           0       -4.841262    6.393595    0.885019
     79          1           0       -6.192466    6.571331    1.818642
     80          1           0       -4.915707    5.309823    2.412872
     81          1           0       -9.501074    5.945751    0.370813
     82          1           0       -8.816995    8.015181   -0.434032
     83          1           0       -7.095147    7.656526   -0.473159
     84          1           0      -11.965806    3.118192   -2.269327
     85          1           0      -13.539178    2.092807   -1.364041
     86          1           0      -12.304177    3.378137   -0.459823
     87          1           0      -12.416635   -1.503140   -0.868911
     88          1           0      -13.221872   -0.199631   -1.317991
     89          1           0      -13.154397   -1.818512   -3.301142
     90          1           0      -12.432837   -0.364729   -3.902090
     91          1           0      -11.620483   -1.717737   -3.356583
     92          1           0       -9.053753   -4.503954   -1.940594
     93          1           0       -8.116127   -5.672191   -0.706627
     94          1           0       -9.551657   -4.750354   -0.210924
     95          1           0       -3.373123   -3.402011   -0.236839
     96          1           0       -1.870120   -4.669169    3.591119
     97          1           0       -3.089713   -6.061654    3.367727
     98          1           0       -1.594678   -6.270157    2.353763
     99          1           0        2.466605   -1.702326   -1.584958
    100          1           0        2.650334    0.162390   -1.965158
    101          1           0        4.392705   -1.192518    0.328938
    102          1           0        3.957294    1.125551   -2.464412
    103          1           0        5.376543    2.292994   -2.067275
    104          1           0        5.600266    0.664202   -3.197455
    105          1           0        6.572345    1.348960    0.484531
    106          1           0        6.516061   -0.221902    0.744391
    107          1           0        7.463762   -1.002057   -1.579044
    108          1           0        7.826907    0.794454   -1.728700
    109          1           0        8.952403    0.806842    0.228501
    110          1           0        8.776658   -0.783463    0.543325
    111          1           0       10.552349    0.280949   -1.991838
    112          1           0        9.303558   -2.041834   -2.287126
    113          1           0       11.034156   -2.080456   -2.495302
    114          1           0       10.120127   -2.570924   -0.768192
    115          1           0       11.361482    0.744579    0.217299
    116          1           0       11.363126   -0.872505    0.833193
    117          1           0       12.939840   -1.638417   -1.081717
    118          1           0       12.953169    0.029821   -1.714265
    119          1           0       13.613992    0.909830    0.415751
    120          1           0       13.766675   -0.942684    0.933648
    121          1           0       15.330324    0.248576   -1.274665
    122          1           0       16.253231   -2.158178    0.541788
    123          1           0       15.125128   -2.244834   -1.103266
    124          1           0       16.737917   -1.917320   -0.963176
    125          1           0       16.055330    1.467638    0.888182
    126          1           0       16.770440    0.011642    1.429556
    127          1           0       18.315922   -0.375619   -0.344433
    128          1           0       17.817027    0.901837   -1.214399
    129          1           0       18.306006    2.457398    0.891981
    130          1           0       18.958176    0.957052    1.690773
    131          1           0       20.447091    0.395552    0.012702
    132          1           0       20.014362    3.296437   -0.939043
    133          1           0       21.470705    2.180386   -1.501722
    134          1           0       19.714557    1.775979   -1.669227
    135          1           0       21.156668    1.233430    2.063866
    136          1           0       22.256626    1.930120    0.975752
    137          1           0       20.881423    2.928152    1.708013
 ---------------------------------------------------------------------

 SCF Done:  E(RCAM-B3LYP) =  -2932.57917353     A.U. after   16 cycles

 Excitation energies and oscillator strengths:

 Excited State   1:      Singlet-A      1.9391 eV  639.38 nm  f=0.2836  <S**2>=0.000
     240 -> 243        0.22686
     241 -> 242        0.66341
 This state for optimization and/or second-order correction.
 Total Energy, E(TD-HF/TD-KS) =  -2932.50791159
 Copying the excited state density for this state as the 1-particle RhoCI density.

 The electronic state is 1-A.
 Alpha  occ. eigenvalues --  -46.83317 -19.25890 -19.24506 -19.21345 -19.20777
 Alpha  occ. eigenvalues --  -19.20775 -14.41826 -14.39452 -14.39341 -14.37429
 Alpha  occ. eigenvalues --  -10.39258 -10.38322 -10.34382 -10.32757 -10.32155
 Alpha  occ. eigenvalues --  -10.30721 -10.30381 -10.29758 -10.29733 -10.29450
 Alpha  occ. eigenvalues --  -10.29039 -10.28860 -10.28821 -10.28702 -10.28515
 Alpha  occ. eigenvalues --  -10.28337 -10.28111 -10.27922 -10.27849 -10.27837
 Alpha  occ. eigenvalues --  -10.27541 -10.27523 -10.27520 -10.27278 -10.27056
 Alpha  occ. eigenvalues --  -10.26848 -10.26812 -10.26768 -10.26716 -10.26709
 Alpha  occ. eigenvalues --  -10.26464 -10.26389 -10.26290 -10.26245 -10.26170
 Alpha  occ. eigenvalues --  -10.26134 -10.26073 -10.26059 -10.26051 -10.25925
 Alpha  occ. eigenvalues --  -10.25691 -10.25682 -10.25464 -10.25390 -10.25294
 Alpha  occ. eigenvalues --  -10.25217 -10.25186 -10.24875 -10.24785 -10.24325
 Alpha  occ. eigenvalues --  -10.24228 -10.24179 -10.23940 -10.23918 -10.23588
 Alpha  occ. eigenvalues --   -3.12407  -1.87119  -1.86661  -1.86564  -1.18304
 Alpha  occ. eigenvalues --   -1.17906  -1.16122  -1.08851  -1.08266  -1.05556
 Alpha  occ. eigenvalues --   -1.03244  -1.02516  -1.01496  -0.92147  -0.91330
 Alpha  occ. eigenvalues --   -0.90693  -0.89814  -0.89486  -0.89440  -0.88591
 Alpha  occ. eigenvalues --   -0.88210  -0.88086  -0.87768  -0.86422  -0.86065
 Alpha  occ. eigenvalues --   -0.85133  -0.84097  -0.83537  -0.83405  -0.82865
 Alpha  occ. eigenvalues --   -0.81778  -0.81215  -0.80740  -0.79642  -0.77449
 Alpha  occ. eigenvalues --   -0.77392  -0.76404  -0.75935  -0.75808  -0.75674
 Alpha  occ. eigenvalues --   -0.75293  -0.74656  -0.74586  -0.73064  -0.72788
 Alpha  occ. eigenvalues --   -0.71777  -0.70743  -0.69984  -0.68894  -0.67656
 Alpha  occ. eigenvalues --   -0.66812  -0.66689  -0.65226  -0.65123  -0.64133
 Alpha  occ. eigenvalues --   -0.63889  -0.63566  -0.62595  -0.61961  -0.61933
 Alpha  occ. eigenvalues --   -0.61677  -0.60673  -0.59864  -0.59543  -0.59205
 Alpha  occ. eigenvalues --   -0.58291  -0.58030  -0.57680  -0.57214  -0.56810
 Alpha  occ. eigenvalues --   -0.56518  -0.55708  -0.55487  -0.55032  -0.54554
 Alpha  occ. eigenvalues --   -0.54334  -0.54139  -0.54026  -0.53599  -0.53549
 Alpha  occ. eigenvalues --   -0.53120  -0.52679  -0.52019  -0.51824  -0.51466
 Alpha  occ. eigenvalues --   -0.51159  -0.51037  -0.50850  -0.50585  -0.50483
 Alpha  occ. eigenvalues --   -0.50391  -0.50339  -0.50147  -0.49956  -0.49831
 Alpha  occ. eigenvalues --   -0.49712  -0.49325  -0.49226  -0.48867  -0.48657
 Alpha  occ. eigenvalues --   -0.48427  -0.48242  -0.48116  -0.47752  -0.47104
 Alpha  occ. eigenvalues --   -0.47057  -0.46787  -0.46633  -0.46477  -0.46074
 Alpha  occ. eigenvalues --   -0.46056  -0.45844  -0.45624  -0.45380  -0.45244
 Alpha  occ. eigenvalues --   -0.45091  -0.44604  -0.44199  -0.44165  -0.43928
 Alpha  occ. eigenvalues --   -0.43871  -0.43635  -0.43344  -0.43263  -0.43194
 Alpha  occ. eigenvalues --   -0.43082  -0.42668  -0.42532  -0.42156  -0.42084
 Alpha  occ. eigenvalues --   -0.41804  -0.41557  -0.41423  -0.41247  -0.41004
 Alpha  occ. eigenvalues --   -0.40843  -0.40463  -0.40351  -0.40191  -0.40077
 Alpha  occ. eigenvalues --   -0.39960  -0.39686  -0.39613  -0.39581  -0.39310
 Alpha  occ. eigenvalues --   -0.39023  -0.38855  -0.38412  -0.38161  -0.38034
 Alpha  occ. eigenvalues --   -0.37826  -0.37187  -0.36849  -0.36638  -0.36445
 Alpha  occ. eigenvalues --   -0.35931  -0.35884  -0.35739  -0.35522  -0.35152
 Alpha  occ. eigenvalues --   -0.35053  -0.34671  -0.34268  -0.34105  -0.33612
 Alpha  occ. eigenvalues --   -0.33529  -0.33213  -0.32415  -0.30999  -0.29783
 Alpha  occ. eigenvalues --   -0.29099  -0.28320  -0.28026  -0.27572  -0.22839
 Alpha  occ. eigenvalues --   -0.21278
 Alpha virt. eigenvalues --   -0.07245  -0.02493   0.02822   0.03316   0.04142
 Alpha virt. eigenvalues --    0.06072   0.06375   0.06955   0.07255   0.07837
 Alpha virt. eigenvalues --    0.08513   0.10338   0.11012   0.11464   0.11722

 Mulliken charges:
               1
     1  Mg   0.798022
     2  C    0.000109
     3  C   -0.191434
     4  C   -0.159616
     5  C   -0.174445
     6  N   -0.646974
     7  C    0.352234
     8  C   -0.164140
     9  C   -0.139467
    10  C    0.305889
    11  C   -0.302230
    12  C   -0.166344
    13  C   -0.294788
    14  C    0.625329
    15  O   -0.445478
    16  O   -0.526001
    17  N   -0.696051
    18  C    0.326950
    19  C   -0.033287
    20  C    0.018782
    21  C    0.295894
    22  C   -0.374474
    23  C   -0.054001
    24  C   -0.255339
    25  N   -0.675059
    26  C    0.285795
    27  C    0.032754
    28  C    0.025436
    29  C    0.301504
    30  C   -0.357007
    31  C   -0.238563
    32  C   -0.296642
    33  N   -0.752708
    34  C    0.247185
    35  C   -0.005075
    36  C   -0.072717
    37  C    0.378143
    38  C   -0.361341
    39  C    0.385163
    40  O   -0.391453
    41  C   -0.311490
    42  C    0.611035
    43  O   -0.483144
    44  O   -0.432022
    45  C   -0.080923
    46  C    0.006911
    47  C   -0.114603
    48  C    0.076148
    49  C   -0.338187
    50  C   -0.216976
    51  C   -0.179344
    52  C   -0.181894
    53  C   -0.056079
    54  C   -0.305010
    55  C   -0.151294
    56  C   -0.188512
    57  C   -0.152460
    58  C   -0.051179
    59  C   -0.294255
    60  C   -0.182952
    61  C   -0.183267
    62  C   -0.145309
    63  C   -0.074066
    64  C   -0.287086
    65  C   -0.299324
    66  H    0.103901
    67  H    0.072028
    68  H    0.089844
    69  H    0.123527
    70  H    0.103099
    71  H    0.106173
    72  H    0.085596
    73  H    0.129810
    74  H    0.124103
    75  H    0.111357
    76  H    0.123522
    77  H    0.144201
    78  H    0.095676
    79  H    0.126463
    80  H    0.109897
    81  H    0.101502
    82  H    0.095155
    83  H    0.112760
    84  H    0.122361
    85  H    0.086005
    86  H    0.119379
    87  H    0.082535
    88  H    0.107117
    89  H    0.114712
    90  H    0.111499
    91  H    0.121540
    92  H    0.127082
    93  H    0.140576
    94  H    0.129431
    95  H    0.173404
    96  H    0.117029
    97  H    0.122731
    98  H    0.121602
    99  H    0.149242
   100  H    0.129952
   101  H    0.088667
   102  H    0.113906
   103  H    0.068141
   104  H    0.131508
   105  H    0.076268
   106  H    0.110996
   107  H    0.109448
   108  H    0.111069
   109  H    0.103725
   110  H    0.096851
   111  H    0.042550
   112  H    0.102162
   113  H    0.077207
   114  H    0.108769
   115  H    0.095635
   116  H    0.082919
   117  H    0.074376
   118  H    0.094415
   119  H    0.063985
   120  H    0.103490
   121  H    0.095733
   122  H    0.072745
   123  H    0.110395
   124  H    0.116819
   125  H    0.081583
   126  H    0.069905
   127  H    0.071530
   128  H    0.086281
   129  H    0.074645
   130  H    0.099439
   131  H    0.087987
   132  H    0.086898
   133  H    0.060211
   134  H    0.107632
   135  H    0.088141
   136  H    0.090806
   137  H    0.119076
 Sum of Mulliken charges =   0.00000

 Dipole moment (field-independent basis, Debye):
    X=              0.7228    Y=              2.5896    Z=             -0.5370  Tot=              2.7417
 Quadrupole moment (field-independent basis, Debye-Ang):
   XX=           -340.2807   YY=           -395.4446   ZZ=           -397.9057
   XY=            -22.3429   XZ=             16.1987   YZ=             -3.8603

 Normal termination of Gaussian 09 at Thu Jun 27 13:42:36 2019.
