 Gaussian 09, Revision D.01,
 Gaussian 09:  ES64L-G09RevD.01 24-Apr-2013

 -------------------------------------
 # td=(NStates=1) CAM-B3LYP/6-31G(d,p)
 -------------------------------------

 --
 TD
 --
 Symbolic Z-matrix:
 Charge =  0 Multiplicity = 1

                         Standard orientation:
 ---------------------------------------------------------------------
 Center     Atomic      Atomic             Coordinates (Angstroms)
 Number     Number       Type             X           Y           Z
 ---------------------------------------------------------------------
      1         12           0       -7.185054    0.579649    0.149160
      2          6           0       -4.851334   -1.847063    0.549823
      3          6           0       -4.853098    2.892584    1.192734
      4          6           0       -9.487576    3.008349   -0.514878
      5          6           0       -9.485740   -1.809552   -0.896228
      6          7           0       -5.083039    0.468801    0.875665
      7          6           0       -4.310134   -0.642152    0.915538
      8          6           0       -2.900904   -0.294925    1.302932
      9          6           0       -3.028566    1.165985    1.701664
     10          6           0       -4.365965    1.582434    1.209481
     11          6           0       -2.850754    1.312013    3.191446
     12          6           0       -1.965979   -0.617293    0.159457
     13          6           0       -0.446436   -0.377287    0.620015
     14          6           0        0.515387   -0.547363   -0.540711
     15          8           0        0.168387   -0.772899   -1.708247
     16          8           0        1.797184   -0.418787   -0.154550
     17          7           0       -7.148383    2.553692    0.356805
     18          6           0       -6.172626    3.248237    0.761797
     19          6           0       -6.554516    4.774464    0.917303
     20          6           0       -7.839283    4.827130    0.476742
     21          6           0       -8.252435    3.375030    0.088049
     22          6           0       -5.709639    5.795263    1.422853
     23          6           0       -8.797397    5.957901    0.344091
     24          6           0       -8.391370    7.252826    0.162174
     25          7           0       -9.204722    0.576878   -0.569685
     26          6           0       -9.874195    1.678213   -0.666075
     27          6           0      -11.270120    1.344863   -1.198904
     28          6           0      -11.256492   -0.060830   -1.327842
     29          6           0       -9.873770   -0.469989   -0.924892
     30          6           0      -12.332226    2.340920   -1.415896
     31          6           0      -12.309866   -0.872790   -1.809447
     32          6           0      -12.295385   -1.129930   -3.451907
     33          7           0       -7.185431   -1.411391   -0.221702
     34          6           0       -8.186613   -2.286582   -0.540127
     35          6           0       -7.760646   -3.641349   -0.497816
     36          6           0       -6.442008   -3.558065   -0.094395
     37          6           0       -6.152653   -2.127982    0.108132
     38          6           0       -8.509207   -4.865959   -0.778306
     39          6           0       -5.283374   -4.274633    0.277742
     40          8           0       -5.099581   -5.508421    0.196970
     41          6           0       -4.149863   -3.227873    0.568575
     42          6           0       -3.488263   -3.635351    1.938200
     43          8           0       -3.611560   -2.975648    2.925686
     44          8           0       -2.640209   -4.739255    1.851026
     45          6           0       -2.054405   -5.303094    2.988663
     46          6           0        2.726977   -0.691651   -1.207194
     47          6           0        4.159201   -0.485749   -0.668409
     48          6           0        5.068898    0.469574   -0.987137
     49          6           0        4.984077    1.447885   -2.151575
     50          6           0        6.465673    0.413748   -0.263836
     51          6           0        7.642239   -0.177774   -1.084733
     52          6           0        8.934981   -0.093012   -0.176764
     53          6           0       10.186002   -0.484232   -0.973181
     54          6           0       10.052103   -1.907068   -1.354776
     55          6           0       11.417986   -0.149734   -0.149248
     56          6           0       12.764843   -0.398023   -0.791621
     57          6           0       14.024234   -0.133057    0.028652
     58          6           0       15.429561   -0.212895   -0.531422
     59          6           0       15.678102   -1.714807   -0.872708
     60          6           0       16.492873    0.355922    0.419286
     61          6           0       17.820839    0.484750   -0.224923
     62          6           0       18.839816    1.106515    0.736366
     63          6           0       20.352151    1.301749    0.304365
     64          6           0       20.366246    2.184224   -1.065309
     65          6           0       21.163295    1.962063    1.362453
     66          1           0       -4.203105    3.516554    1.627821
     67          1           0      -10.278755    3.733267   -0.675825
     68          1           0       -9.913688   -2.511440   -1.325489
     69          1           0       -2.658721   -0.984456    2.305934
     70          1           0       -2.304037    1.824030    1.250059
     71          1           0       -1.927691    0.873340    3.562991
     72          1           0       -2.831043    2.451895    3.705322
     73          1           0       -3.629664    0.731354    3.552203
     74          1           0       -2.147459   -1.546211   -0.241745
     75          1           0       -2.017895    0.392511   -0.486583
     76          1           0       -0.407421    0.636283    1.239761
     77          1           0       -0.344001   -1.040030    1.318597
     78          1           0       -5.013508    6.233175    0.649718
     79          1           0       -6.258429    6.513794    1.805520
     80          1           0       -5.147199    5.516705    2.388559
     81          1           0       -9.864522    5.638655    0.437415
     82          1           0       -9.145725    8.010452    0.068549
     83          1           0       -7.266226    7.392097    0.029543
     84          1           0      -12.300794    2.805307   -2.455815
     85          1           0      -13.266793    1.645098   -1.455203
     86          1           0      -12.370051    3.008571   -0.630558
     87          1           0      -12.369024   -1.858570   -1.265792
     88          1           0      -12.995515   -0.348592   -1.415299
     89          1           0      -13.206571   -1.775299   -3.638816
     90          1           0      -12.310557   -0.039973   -4.045967
     91          1           0      -11.312029   -1.668602   -3.578431
     92          1           0       -9.267975   -4.795216   -1.591408
     93          1           0       -7.917965   -5.961750   -0.782380
     94          1           0       -9.128544   -5.006895    0.085589
     95          1           0       -3.372686   -3.308699   -0.335555
     96          1           0       -1.440593   -4.549646    3.294942
     97          1           0       -2.848897   -5.547950    3.689063
     98          1           0       -1.629591   -6.307889    2.528266
     99          1           0        2.360710   -1.575027   -1.844240
    100          1           0        2.613281    0.084915   -1.875621
    101          1           0        4.334419   -0.952688    0.407923
    102          1           0        4.010337    1.430606   -2.828162
    103          1           0        5.371321    2.368191   -1.664139
    104          1           0        5.746596    0.939901   -2.938272
    105          1           0        6.602957    1.509850    0.238367
    106          1           0        6.360462   -0.121907    0.664144
    107          1           0        7.397329   -1.257730   -1.391470
    108          1           0        7.873558    0.095591   -2.164186
    109          1           0        9.169433    0.995216    0.238128
    110          1           0        8.731719   -0.783096    0.701638
    111          1           0       10.103922    0.036506   -1.866418
    112          1           0        9.246225   -2.129819   -1.867966
    113          1           0       10.930204   -2.128355   -1.915983
    114          1           0       10.083703   -2.680330   -0.549001
    115          1           0       11.319448    0.860538    0.340103
    116          1           0       11.250084   -0.769627    0.665173
    117          1           0       12.883499   -1.601136   -1.096102
    118          1           0       12.894663   -0.009688   -1.849123
    119          1           0       13.742298    0.763024    0.454353
    120          1           0       14.006944   -0.810392    0.969207
    121          1           0       15.560726    0.605647   -1.217065
    122          1           0       15.582446   -2.594809   -0.155324
    123          1           0       14.865291   -2.113810   -1.590845
    124          1           0       16.688375   -1.755147   -1.528067
    125          1           0       16.216763    1.148520    1.042871
    126          1           0       16.730712   -0.505182    1.239129
    127          1           0       18.125684   -0.571173   -0.444035
    128          1           0       17.496951    0.933668   -1.012921
    129          1           0       18.385573    2.133839    1.055746
    130          1           0       18.950717    0.569073    1.559977
    131          1           0       20.587664    0.185923    0.274778
    132          1           0       19.666858    3.115535   -0.767706
    133          1           0       21.290545    2.363690   -1.415073
    134          1           0       19.769933    1.757844   -1.838642
    135          1           0       21.222345    1.321207    2.313396
    136          1           0       22.243354    2.047702    1.152234
    137          1           0       20.841661    3.002030    1.593977
 ---------------------------------------------------------------------

 SCF Done:  E(RCAM-B3LYP) =  -2932.60895219     A.U. after   17 cycles

 Excitation energies and oscillator strengths:

 Excited State   1:      Singlet-A      2.1034 eV  589.45 nm  f=0.2941  <S**2>=0.000
     240 -> 243        0.22951
     241 -> 242        0.65486
 This state for optimization and/or second-order correction.
 Total Energy, E(TD-HF/TD-KS) =  -2932.53165377
 Copying the excited state density for this state as the 1-particle RhoCI density.

 The electronic state is 1-A.
 Alpha  occ. eigenvalues --  -46.85788 -19.26643 -19.24296 -19.21244 -19.20903
 Alpha  occ. eigenvalues --  -19.18342 -14.41233 -14.41053 -14.39195 -14.39094
 Alpha  occ. eigenvalues --  -10.39561 -10.39390 -10.33436 -10.31338 -10.31291
 Alpha  occ. eigenvalues --  -10.31270 -10.30546 -10.30528 -10.29872 -10.29255
 Alpha  occ. eigenvalues --  -10.28667 -10.28360 -10.28254 -10.28246 -10.28231
 Alpha  occ. eigenvalues --  -10.28223 -10.28168 -10.28078 -10.27901 -10.27887
 Alpha  occ. eigenvalues --  -10.27781 -10.27583 -10.27562 -10.27500 -10.27334
 Alpha  occ. eigenvalues --  -10.27313 -10.27287 -10.27117 -10.27027 -10.26981
 Alpha  occ. eigenvalues --  -10.26819 -10.26768 -10.26722 -10.26690 -10.26607
 Alpha  occ. eigenvalues --  -10.26577 -10.26392 -10.26391 -10.26082 -10.25762
 Alpha  occ. eigenvalues --  -10.25756 -10.25751 -10.25361 -10.24982 -10.24971
 Alpha  occ. eigenvalues --  -10.24936 -10.24819 -10.24742 -10.24563 -10.24520
 Alpha  occ. eigenvalues --  -10.24483 -10.24464 -10.23963 -10.23481 -10.22575
 Alpha  occ. eigenvalues --   -3.14705  -1.89420  -1.88949  -1.88867  -1.18374
 Alpha  occ. eigenvalues --   -1.17056  -1.09665  -1.08361  -1.07623  -1.05971
 Alpha  occ. eigenvalues --   -1.05218  -1.04839  -1.03832  -0.91749  -0.91701
 Alpha  occ. eigenvalues --   -0.90988  -0.90396  -0.90024  -0.89468  -0.89398
 Alpha  occ. eigenvalues --   -0.88701  -0.87971  -0.87867  -0.87772  -0.85978
 Alpha  occ. eigenvalues --   -0.85188  -0.84476  -0.83676  -0.83268  -0.82677
 Alpha  occ. eigenvalues --   -0.81509  -0.80784  -0.80529  -0.79883  -0.78397
 Alpha  occ. eigenvalues --   -0.78025  -0.76305  -0.76222  -0.75782  -0.75559
 Alpha  occ. eigenvalues --   -0.75125  -0.75045  -0.74788  -0.73119  -0.72650
 Alpha  occ. eigenvalues --   -0.71953  -0.70828  -0.70549  -0.69563  -0.67982
 Alpha  occ. eigenvalues --   -0.67764  -0.67260  -0.65689  -0.64776  -0.64693
 Alpha  occ. eigenvalues --   -0.64600  -0.64210  -0.63747  -0.63611  -0.61784
 Alpha  occ. eigenvalues --   -0.61707  -0.60373  -0.59934  -0.59904  -0.59096
 Alpha  occ. eigenvalues --   -0.58923  -0.58164  -0.57523  -0.56861  -0.56706
 Alpha  occ. eigenvalues --   -0.56169  -0.55712  -0.55625  -0.55318  -0.54917
 Alpha  occ. eigenvalues --   -0.54738  -0.54275  -0.53501  -0.53449  -0.52883
 Alpha  occ. eigenvalues --   -0.52661  -0.52651  -0.52247  -0.52204  -0.51935
 Alpha  occ. eigenvalues --   -0.51808  -0.51492  -0.51225  -0.51062  -0.50655
 Alpha  occ. eigenvalues --   -0.50420  -0.50111  -0.50058  -0.49918  -0.49724
 Alpha  occ. eigenvalues --   -0.49523  -0.49244  -0.48977  -0.48470  -0.48310
 Alpha  occ. eigenvalues --   -0.48146  -0.47982  -0.47816  -0.47431  -0.47239
 Alpha  occ. eigenvalues --   -0.47095  -0.47027  -0.46850  -0.46635  -0.46418
 Alpha  occ. eigenvalues --   -0.46239  -0.46167  -0.45590  -0.45392  -0.45091
 Alpha  occ. eigenvalues --   -0.44983  -0.44697  -0.44560  -0.44496  -0.44333
 Alpha  occ. eigenvalues --   -0.43845  -0.43771  -0.43542  -0.43379  -0.43351
 Alpha  occ. eigenvalues --   -0.43179  -0.42856  -0.42682  -0.42616  -0.42295
 Alpha  occ. eigenvalues --   -0.42009  -0.41877  -0.41701  -0.41589  -0.41161
 Alpha  occ. eigenvalues --   -0.41007  -0.40852  -0.40680  -0.40616  -0.40216
 Alpha  occ. eigenvalues --   -0.40157  -0.39812  -0.39516  -0.39374  -0.39371
 Alpha  occ. eigenvalues --   -0.38951  -0.38697  -0.38461  -0.37864  -0.37697
 Alpha  occ. eigenvalues --   -0.37413  -0.37091  -0.37041  -0.36563  -0.36439
 Alpha  occ. eigenvalues --   -0.35838  -0.35779  -0.35444  -0.35301  -0.34916
 Alpha  occ. eigenvalues --   -0.34687  -0.34610  -0.34240  -0.33883  -0.33700
 Alpha  occ. eigenvalues --   -0.33265  -0.32456  -0.31691  -0.30853  -0.29557
 Alpha  occ. eigenvalues --   -0.29176  -0.28674  -0.28519  -0.27438  -0.23145
 Alpha  occ. eigenvalues --   -0.20590
 Alpha virt. eigenvalues --   -0.05864  -0.02238   0.01769   0.03806   0.05234
 Alpha virt. eigenvalues --    0.05602   0.05927   0.06080   0.06319   0.07184
 Alpha virt. eigenvalues --    0.08795   0.10704   0.11397   0.11543   0.11684

 Mulliken charges:
               1
     1  Mg   0.835733
     2  C    0.057576
     3  C   -0.168254
     4  C   -0.155646
     5  C   -0.083961
     6  N   -0.649721
     7  C    0.333299
     8  C   -0.170610
     9  C   -0.160561
    10  C    0.343093
    11  C   -0.295708
    12  C   -0.153432
    13  C   -0.277388
    14  C    0.622915
    15  O   -0.489400
    16  O   -0.462785
    17  N   -0.700879
    18  C    0.343560
    19  C    0.020946
    20  C    0.010122
    21  C    0.250688
    22  C   -0.394458
    23  C   -0.069215
    24  C   -0.249427
    25  N   -0.666063
    26  C    0.295699
    27  C   -0.009063
    28  C    0.012194
    29  C    0.291153
    30  C   -0.373610
    31  C   -0.246285
    32  C   -0.294658
    33  N   -0.725976
    34  C    0.197095
    35  C    0.064965
    36  C    0.033179
    37  C    0.297716
    38  C   -0.400624
    39  C    0.328264
    40  O   -0.494782
    41  C   -0.325765
    42  C    0.602863
    43  O   -0.446161
    44  O   -0.471143
    45  C   -0.068883
    46  C    0.011220
    47  C   -0.145673
    48  C    0.086830
    49  C   -0.339605
    50  C   -0.205747
    51  C   -0.189161
    52  C   -0.163885
    53  C   -0.068353
    54  C   -0.305809
    55  C   -0.167501
    56  C   -0.176379
    57  C   -0.169662
    58  C   -0.048810
    59  C   -0.316406
    60  C   -0.188714
    61  C   -0.152225
    62  C   -0.165641
    63  C   -0.064398
    64  C   -0.306116
    65  C   -0.300832
    66  H    0.065600
    67  H    0.093475
    68  H    0.049587
    69  H    0.120597
    70  H    0.104997
    71  H    0.114037
    72  H    0.075537
    73  H    0.134915
    74  H    0.123698
    75  H    0.107825
    76  H    0.121049
    77  H    0.144673
    78  H    0.124728
    79  H    0.135107
    80  H    0.108867
    81  H    0.096452
    82  H    0.112165
    83  H    0.108749
    84  H    0.121935
    85  H    0.100678
    86  H    0.127746
    87  H    0.092411
    88  H    0.108894
    89  H    0.111835
    90  H    0.093805
    91  H    0.118639
    92  H    0.116970
    93  H    0.140920
    94  H    0.141602
    95  H    0.157331
    96  H    0.127609
    97  H    0.126868
    98  H    0.125052
    99  H    0.134965
   100  H    0.118820
   101  H    0.074712
   102  H    0.115721
   103  H    0.126248
   104  H    0.108721
   105  H    0.073468
   106  H    0.114959
   107  H    0.103889
   108  H    0.095347
   109  H    0.074934
   110  H    0.091494
   111  H    0.093330
   112  H    0.107033
   113  H    0.102221
   114  H    0.089151
   115  H    0.082200
   116  H    0.107701
   117  H    0.054815
   118  H    0.087802
   119  H    0.088698
   120  H    0.075902
   121  H    0.094643
   122  H    0.118559
   123  H    0.095157
   124  H    0.087016
   125  H    0.099274
   126  H    0.050776
   127  H    0.093392
   128  H    0.090641
   129  H    0.061922
   130  H    0.099866
   131  H    0.078369
   132  H    0.080891
   133  H    0.111151
   134  H    0.111015
   135  H    0.087485
   136  H    0.101321
   137  H    0.102304
 Sum of Mulliken charges =   0.00000

 Dipole moment (field-independent basis, Debye):
    X=              0.9045    Y=              5.3186    Z=              1.1660  Tot=              5.5195
 Quadrupole moment (field-independent basis, Debye-Ang):
   XX=           -340.2132   YY=           -392.3245   ZZ=           -398.2244
   XY=            -27.8800   XZ=              2.5450   YZ=             -0.5884

 Normal termination of Gaussian 09 at Thu Jun 27 13:26:23 2019.
