 Gaussian 09, Revision D.01,
 Gaussian 09:  ES64L-G09RevD.01 24-Apr-2013

 -------------------------------------
 # td=(NStates=1) CAM-B3LYP/6-31G(d,p)
 -------------------------------------

 --
 TD
 --
 Symbolic Z-matrix:
 Charge =  0 Multiplicity = 1

                         Standard orientation:
 ---------------------------------------------------------------------
 Center     Atomic      Atomic             Coordinates (Angstroms)
 Number     Number       Type             X           Y           Z
 ---------------------------------------------------------------------
      1         12           0       -7.099151    0.604430    0.058480
      2          6           0       -4.861806   -1.986552    0.442340
      3          6           0       -4.854607    2.849741    1.178025
      4          6           0       -9.393469    3.104474   -0.438303
      5          6           0       -9.574486   -1.742099   -0.918583
      6          7           0       -5.117537    0.458465    0.700538
      7          6           0       -4.348300   -0.732741    0.770552
      8          6           0       -2.974440   -0.437695    1.262870
      9          6           0       -3.082962    1.103006    1.707262
     10          6           0       -4.467331    1.506561    1.256438
     11          6           0       -2.839208    1.343707    3.224201
     12          6           0       -1.912649   -0.716720    0.200312
     13          6           0       -0.448004   -0.542912    0.723228
     14          6           0        0.477683   -0.683546   -0.445367
     15          8           0        0.176415   -1.001386   -1.630729
     16          8           0        1.759776   -0.506416   -0.064148
     17          7           0       -7.134900    2.678982    0.322153
     18          6           0       -6.022507    3.337950    0.790100
     19          6           0       -6.444332    4.753267    0.904374
     20          6           0       -7.702006    4.820589    0.446767
     21          6           0       -8.156124    3.534396    0.037595
     22          6           0       -5.643557    5.875797    1.462746
     23          6           0       -8.605848    5.951776    0.385107
     24          6           0       -8.167579    7.136650   -0.259333
     25          7           0       -9.194371    0.643663   -0.444613
     26          6           0       -9.876800    1.803351   -0.633376
     27          6           0      -11.156950    1.449652   -1.054883
     28          6           0      -11.266098    0.126207   -1.232041
     29          6           0       -9.995155   -0.479632   -0.826288
     30          6           0      -12.324223    2.445101   -1.452381
     31          6           0      -12.394535   -0.693515   -1.796713
     32          6           0      -12.163131   -0.848375   -3.222196
     33          7           0       -7.278038   -1.456743   -0.084782
     34          6           0       -8.319589   -2.292428   -0.528836
     35          6           0       -7.829616   -3.625740   -0.597282
     36          6           0       -6.549317   -3.613111   -0.185183
     37          6           0       -6.175755   -2.224555    0.122608
     38          6           0       -8.691722   -4.826633   -0.873579
     39          6           0       -5.397578   -4.367229    0.176897
     40          8           0       -5.131364   -5.580209   -0.034902
     41          6           0       -4.237267   -3.314416    0.558814
     42          6           0       -3.461061   -3.668267    1.829408
     43          8           0       -3.698282   -3.224519    2.949487
     44          8           0       -2.667306   -4.636966    1.536030
     45          6           0       -1.908100   -5.147916    2.771316
     46          6           0        2.873374   -0.605883   -1.043701
     47          6           0        4.080721   -0.383857   -0.403955
     48          6           0        5.149554    0.335515   -0.888085
     49          6           0        5.008970    1.216386   -2.010911
     50          6           0        6.366541    0.513399   -0.037624
     51          6           0        7.657595   -0.255975   -0.712110
     52          6           0        8.975541   -0.126225   -0.004347
     53          6           0       10.177941   -0.570624   -0.839839
     54          6           0       10.169203   -1.989232   -1.186149
     55          6           0       11.589938   -0.437698    0.002139
     56          6           0       12.772410   -0.654165   -0.774942
     57          6           0       13.947806   -0.140193    0.100801
     58          6           0       15.377681   -0.234780   -0.579212
     59          6           0       15.682401   -1.665352   -0.961620
     60          6           0       16.436027    0.365179    0.419034
     61          6           0       17.796863    0.653780   -0.344132
     62          6           0       18.755554    1.357538    0.644490
     63          6           0       20.199340    1.449858    0.076598
     64          6           0       20.269338    2.258912   -1.089179
     65          6           0       21.156150    1.940702    1.144010
     66          1           0       -4.225832    3.540835    1.817925
     67          1           0       -9.969247    4.000803   -0.878826
     68          1           0      -10.434292   -2.310648   -1.147567
     69          1           0       -2.826036   -0.981270    2.193558
     70          1           0       -2.383210    1.775685    1.059347
     71          1           0       -1.828896    0.815900    3.611338
     72          1           0       -2.930424    2.317937    3.577858
     73          1           0       -3.619314    0.633748    3.726988
     74          1           0       -1.875467   -1.678585   -0.146865
     75          1           0       -2.156441   -0.045269   -0.400492
     76          1           0       -0.415739    0.643110    1.031724
     77          1           0       -0.145607   -1.202420    1.370390
     78          1           0       -4.959650    6.318031    0.769554
     79          1           0       -6.414278    6.592074    1.817628
     80          1           0       -5.093213    5.635184    2.467104
     81          1           0       -9.679606    5.701972    0.451419
     82          1           0       -8.822321    8.027141   -0.280315
     83          1           0       -7.080897    7.426545   -0.448054
     84          1           0      -12.026238    3.250213   -2.163375
     85          1           0      -13.015546    1.767803   -2.050283
     86          1           0      -12.873432    2.833655   -0.478284
     87          1           0      -12.162841   -1.675842   -1.212516
     88          1           0      -13.311083   -0.382201   -1.751545
     89          1           0      -12.929173   -1.522007   -3.712295
     90          1           0      -12.034801    0.091474   -3.640513
     91          1           0      -11.259735   -1.511268   -3.560953
     92          1           0       -8.910274   -4.852160   -1.833987
     93          1           0       -8.136452   -5.795843   -0.822826
     94          1           0       -9.378970   -4.728492   -0.289813
     95          1           0       -3.605842   -3.427936   -0.203455
     96          1           0       -1.360105   -4.265536    3.319813
     97          1           0       -2.701343   -5.631574    3.503969
     98          1           0       -1.162582   -5.831785    2.241984
     99          1           0        2.795606   -1.608749   -1.560022
    100          1           0        2.581307   -0.017568   -1.869551
    101          1           0        4.124825   -0.676162    0.765686
    102          1           0        4.078730    1.586921   -2.372347
    103          1           0        5.311664    2.091648   -1.675298
    104          1           0        5.583667    0.669742   -2.802964
    105          1           0        6.618653    1.749869   -0.027958
    106          1           0        6.271718    0.193339    0.995789
    107          1           0        7.274772   -1.222186   -0.773222
    108          1           0        7.660272    0.336016   -1.702678
    109          1           0        9.072813    0.912170    0.411729
    110          1           0        8.758171   -0.657358    0.965059
    111          1           0       10.265168   -0.005478   -1.726774
    112          1           0        9.264083   -2.385536   -1.903296
    113          1           0       11.050387   -2.302958   -1.760143
    114          1           0       10.035565   -2.625064   -0.262791
    115          1           0       11.455964    0.656147    0.373505
    116          1           0       11.702787   -1.196454    0.778078
    117          1           0       12.847186   -1.791825   -1.060436
    118          1           0       12.682007   -0.191666   -1.727562
    119          1           0       13.561473    0.790050    0.396288
    120          1           0       13.888972   -0.680866    1.214639
    121          1           0       15.556808    0.292573   -1.575195
    122          1           0       15.482016   -2.346525   -0.131222
    123          1           0       14.840797   -2.026578   -1.571547
    124          1           0       16.726157   -1.812021   -1.488564
    125          1           0       15.901261    1.407231    0.760563
    126          1           0       16.631217   -0.322052    1.139719
    127          1           0       18.322857   -0.360326   -0.595751
    128          1           0       17.468542    1.227184   -1.299606
    129          1           0       18.240877    2.140926    0.870878
    130          1           0       18.807916    0.702113    1.625413
    131          1           0       20.444016    0.442816   -0.363565
    132          1           0       19.714201    3.323159   -0.937621
    133          1           0       21.341162    2.441848   -1.251097
    134          1           0       19.692283    1.937289   -1.950713
    135          1           0       21.098902    1.410275    1.964217
    136          1           0       22.169089    2.150243    0.733104
    137          1           0       21.107689    2.958220    1.468575
 ---------------------------------------------------------------------

 SCF Done:  E(RCAM-B3LYP) =  -2932.61702554     A.U. after   18 cycles

 Excitation energies and oscillator strengths:

 Excited State   1:      Singlet-A      2.1260 eV  583.18 nm  f=0.2407  <S**2>=0.000
     240 -> 242       -0.14518
     240 -> 243        0.23320
     241 -> 242        0.63946
     241 -> 243        0.10259
 This state for optimization and/or second-order correction.
 Total Energy, E(TD-HF/TD-KS) =  -2932.53889651
 Copying the excited state density for this state as the 1-particle RhoCI density.

 The electronic state is 1-A.
 Alpha  occ. eigenvalues --  -46.84570 -19.27309 -19.25880 -19.20205 -19.19780
 Alpha  occ. eigenvalues --  -19.18803 -14.42454 -14.39062 -14.38783 -14.38484
 Alpha  occ. eigenvalues --  -10.39198 -10.38494 -10.34353 -10.34202 -10.31672
 Alpha  occ. eigenvalues --  -10.31385 -10.30617 -10.29753 -10.29370 -10.29053
 Alpha  occ. eigenvalues --  -10.28867 -10.28594 -10.28385 -10.28170 -10.27969
 Alpha  occ. eigenvalues --  -10.27928 -10.27909 -10.27838 -10.27632 -10.27433
 Alpha  occ. eigenvalues --  -10.27363 -10.27177 -10.27169 -10.27033 -10.26838
 Alpha  occ. eigenvalues --  -10.26725 -10.26662 -10.26554 -10.26549 -10.26519
 Alpha  occ. eigenvalues --  -10.26502 -10.26431 -10.26327 -10.26210 -10.26086
 Alpha  occ. eigenvalues --  -10.26065 -10.26020 -10.25956 -10.25764 -10.25446
 Alpha  occ. eigenvalues --  -10.25420 -10.25384 -10.25370 -10.25343 -10.25167
 Alpha  occ. eigenvalues --  -10.24991 -10.24926 -10.24708 -10.24611 -10.24489
 Alpha  occ. eigenvalues --  -10.24247 -10.24196 -10.23947 -10.22888 -10.22346
 Alpha  occ. eigenvalues --   -3.13361  -1.88100  -1.87578  -1.87522  -1.18956
 Alpha  occ. eigenvalues --   -1.16370  -1.07896  -1.07310  -1.06396  -1.04191
 Alpha  occ. eigenvalues --   -1.03235  -1.02492  -1.01585  -0.92870  -0.92353
 Alpha  occ. eigenvalues --   -0.91251  -0.90653  -0.90442  -0.90086  -0.89455
 Alpha  occ. eigenvalues --   -0.88657  -0.88525  -0.87619  -0.87467  -0.86627
 Alpha  occ. eigenvalues --   -0.85790  -0.85033  -0.83685  -0.82949  -0.82477
 Alpha  occ. eigenvalues --   -0.82376  -0.81529  -0.81305  -0.81066  -0.79413
 Alpha  occ. eigenvalues --   -0.77699  -0.76898  -0.76843  -0.76692  -0.76246
 Alpha  occ. eigenvalues --   -0.74877  -0.74725  -0.73639  -0.73324  -0.72822
 Alpha  occ. eigenvalues --   -0.72018  -0.71153  -0.69649  -0.68539  -0.68327
 Alpha  occ. eigenvalues --   -0.67432  -0.66072  -0.65936  -0.65179  -0.64548
 Alpha  occ. eigenvalues --   -0.63953  -0.63737  -0.63653  -0.63331  -0.62371
 Alpha  occ. eigenvalues --   -0.61953  -0.61146  -0.60687  -0.59515  -0.59118
 Alpha  occ. eigenvalues --   -0.58742  -0.58077  -0.57705  -0.57444  -0.56797
 Alpha  occ. eigenvalues --   -0.56296  -0.55714  -0.55671  -0.55371  -0.54879
 Alpha  occ. eigenvalues --   -0.54322  -0.54302  -0.53937  -0.53798  -0.53285
 Alpha  occ. eigenvalues --   -0.53214  -0.52862  -0.52568  -0.52466  -0.52364
 Alpha  occ. eigenvalues --   -0.51922  -0.51832  -0.51718  -0.51395  -0.51229
 Alpha  occ. eigenvalues --   -0.51002  -0.50811  -0.50466  -0.50259  -0.49690
 Alpha  occ. eigenvalues --   -0.49509  -0.49383  -0.49301  -0.48828  -0.48739
 Alpha  occ. eigenvalues --   -0.48565  -0.48403  -0.47874  -0.47706  -0.47599
 Alpha  occ. eigenvalues --   -0.47128  -0.46864  -0.46707  -0.46320  -0.46214
 Alpha  occ. eigenvalues --   -0.45846  -0.45637  -0.45289  -0.45093  -0.44843
 Alpha  occ. eigenvalues --   -0.44511  -0.44362  -0.44208  -0.44057  -0.43852
 Alpha  occ. eigenvalues --   -0.43597  -0.43288  -0.43158  -0.42970  -0.42743
 Alpha  occ. eigenvalues --   -0.42614  -0.42436  -0.42303  -0.42001  -0.41883
 Alpha  occ. eigenvalues --   -0.41813  -0.41489  -0.41358  -0.41211  -0.41110
 Alpha  occ. eigenvalues --   -0.40946  -0.40763  -0.40647  -0.40508  -0.40376
 Alpha  occ. eigenvalues --   -0.40225  -0.39895  -0.39651  -0.39570  -0.39441
 Alpha  occ. eigenvalues --   -0.39359  -0.39030  -0.38452  -0.38412  -0.37897
 Alpha  occ. eigenvalues --   -0.37787  -0.37361  -0.37286  -0.37143  -0.36596
 Alpha  occ. eigenvalues --   -0.36539  -0.36285  -0.36022  -0.35984  -0.35631
 Alpha  occ. eigenvalues --   -0.35344  -0.34471  -0.34412  -0.33226  -0.32840
 Alpha  occ. eigenvalues --   -0.32565  -0.32120  -0.31984  -0.31022  -0.29241
 Alpha  occ. eigenvalues --   -0.28815  -0.28232  -0.28007  -0.27708  -0.23432
 Alpha  occ. eigenvalues --   -0.21176
 Alpha virt. eigenvalues --   -0.06262  -0.02959   0.01213   0.03151   0.04593
 Alpha virt. eigenvalues --    0.05485   0.05881   0.06501   0.06893   0.07511
 Alpha virt. eigenvalues --    0.07959   0.10773   0.11797   0.12018   0.12223

 Mulliken charges:
               1
     1  Mg   0.808837
     2  C    0.114842
     3  C   -0.201086
     4  C   -0.206737
     5  C   -0.135901
     6  N   -0.647359
     7  C    0.271061
     8  C   -0.186003
     9  C   -0.167627
    10  C    0.356310
    11  C   -0.311551
    12  C   -0.120801
    13  C   -0.261667
    14  C    0.604626
    15  O   -0.508839
    16  O   -0.497598
    17  N   -0.747216
    18  C    0.356866
    19  C    0.013815
    20  C    0.034909
    21  C    0.336128
    22  C   -0.383222
    23  C   -0.129620
    24  C   -0.231068
    25  N   -0.715761
    26  C    0.355941
    27  C   -0.015197
    28  C    0.027010
    29  C    0.271415
    30  C   -0.356440
    31  C   -0.203984
    32  C   -0.306453
    33  N   -0.729746
    34  C    0.247102
    35  C   -0.039020
    36  C    0.058930
    37  C    0.261841
    38  C   -0.330792
    39  C    0.329855
    40  O   -0.486474
    41  C   -0.302449
    42  C    0.603084
    43  O   -0.508853
    44  O   -0.424128
    45  C   -0.095678
    46  C    0.027108
    47  C   -0.135991
    48  C    0.101935
    49  C   -0.345278
    50  C   -0.233292
    51  C   -0.173689
    52  C   -0.174353
    53  C   -0.052139
    54  C   -0.298376
    55  C   -0.182122
    56  C   -0.175069
    57  C   -0.175700
    58  C   -0.055485
    59  C   -0.312724
    60  C   -0.157532
    61  C   -0.200119
    62  C   -0.147061
    63  C   -0.038809
    64  C   -0.288968
    65  C   -0.314426
    66  H    0.085837
    67  H    0.095911
    68  H    0.080342
    69  H    0.133491
    70  H    0.100416
    71  H    0.098240
    72  H    0.122879
    73  H    0.119534
    74  H    0.129840
    75  H    0.117539
    76  H    0.120791
    77  H    0.141500
    78  H    0.132108
    79  H    0.125875
    80  H    0.100515
    81  H    0.109762
    82  H    0.105009
    83  H    0.109911
    84  H    0.118225
    85  H    0.099021
    86  H    0.111212
    87  H    0.090847
    88  H    0.113838
    89  H    0.093586
    90  H    0.121840
    91  H    0.095037
    92  H    0.129274
    93  H    0.133146
    94  H    0.126904
    95  H    0.165928
    96  H    0.134959
    97  H    0.152988
    98  H    0.137827
    99  H    0.129164
   100  H    0.134116
   101  H    0.091027
   102  H    0.116184
   103  H    0.125975
   104  H    0.122148
   105  H    0.059521
   106  H    0.102704
   107  H    0.117792
   108  H    0.083520
   109  H    0.087425
   110  H    0.086807
   111  H    0.094384
   112  H    0.063818
   113  H    0.106904
   114  H    0.097976
   115  H    0.076702
   116  H    0.100827
   117  H    0.083237
   118  H    0.098665
   119  H    0.104491
   120  H    0.063721
   121  H    0.078162
   122  H    0.097606
   123  H    0.100768
   124  H    0.094835
   125  H    0.068097
   126  H    0.104889
   127  H    0.081314
   128  H    0.086200
   129  H    0.103664
   130  H    0.066405
   131  H    0.084827
   132  H    0.062556
   133  H    0.095037
   134  H    0.105074
   135  H    0.108357
   136  H    0.086421
   137  H    0.105337
 Sum of Mulliken charges =   0.00000

 Dipole moment (field-independent basis, Debye):
    X=              2.7768    Y=              5.5272    Z=              0.9873  Tot=              6.2638
 Quadrupole moment (field-independent basis, Debye-Ang):
   XX=           -359.7869   YY=           -393.3707   ZZ=           -396.2123
   XY=            -26.2883   XZ=             13.3493   YZ=             -4.1363

 Normal termination of Gaussian 09 at Fri Jun 28 04:04:35 2019.
