 Gaussian 09, Revision D.01,
 Gaussian 09:  ES64L-G09RevD.01 24-Apr-2013

 -------------------------------------
 # td=(NStates=1) CAM-B3LYP/6-31G(d,p)
 -------------------------------------

 --
 TD
 --
 Symbolic Z-matrix:
 Charge =  0 Multiplicity = 1

                         Standard orientation:
 ---------------------------------------------------------------------
 Center     Atomic      Atomic             Coordinates (Angstroms)
 Number     Number       Type             X           Y           Z
 ---------------------------------------------------------------------
      1         12           0       -7.161131    0.558587    0.160290
      2          6           0       -4.733316   -2.000071    0.507643
      3          6           0       -4.758044    2.773254    1.180427
      4          6           0       -9.461333    3.040951   -0.258865
      5          6           0       -9.517626   -1.793695   -0.836073
      6          7           0       -5.088970    0.415374    0.692760
      7          6           0       -4.292031   -0.727583    0.846393
      8          6           0       -2.984234   -0.431969    1.221248
      9          6           0       -2.999410    1.115858    1.669702
     10          6           0       -4.311211    1.455147    1.100447
     11          6           0       -2.821173    1.356803    3.143671
     12          6           0       -1.948556   -0.663244    0.007048
     13          6           0       -0.493207   -0.436076    0.478514
     14          6           0        0.521549   -0.576179   -0.725573
     15          8           0        0.141754   -0.845617   -1.886544
     16          8           0        1.796534   -0.297237   -0.360168
     17          7           0       -7.139826    2.593768    0.491279
     18          6           0       -6.000579    3.221859    0.852896
     19          6           0       -6.388862    4.678083    0.974244
     20          6           0       -7.798537    4.771420    0.555784
     21          6           0       -8.175754    3.404315    0.204994
     22          6           0       -5.499352    5.759685    1.202661
     23          6           0       -8.512599    6.086943    0.364658
     24          6           0       -8.112034    7.273304    0.011379
     25          7           0       -9.071399    0.574110   -0.457661
     26          6           0       -9.772806    1.840657   -0.563484
     27          6           0      -11.174858    1.506584   -0.959642
     28          6           0      -11.228534    0.118473   -1.263904
     29          6           0       -9.819547   -0.437102   -0.880707
     30          6           0      -12.257533    2.379193   -1.308755
     31          6           0      -12.315786   -0.751006   -1.789714
     32          6           0      -12.291477   -0.979994   -3.258651
     33          7           0       -7.181055   -1.413248   -0.064022
     34          6           0       -8.181313   -2.304303   -0.515245
     35          6           0       -7.693524   -3.676763   -0.535895
     36          6           0       -6.389031   -3.574942   -0.186325
     37          6           0       -6.080794   -2.263088    0.155303
     38          6           0       -8.482234   -4.905467   -0.902308
     39          6           0       -5.270799   -4.414373    0.136433
     40          8           0       -5.161575   -5.634145    0.115479
     41          6           0       -4.093519   -3.387097    0.610708
     42          6           0       -3.446655   -3.721093    1.928329
     43          8           0       -3.678967   -3.127317    2.917549
     44          8           0       -2.652680   -4.867889    1.705198
     45          6           0       -1.985972   -5.292321    2.904437
     46          6           0        2.775220   -0.430995   -1.375903
     47          6           0        4.062103   -0.303445   -0.577905
     48          6           0        5.020592    0.546508   -0.890875
     49          6           0        4.995102    1.487602   -1.958597
     50          6           0        6.277640    0.471111   -0.078395
     51          6           0        7.517805    0.080391   -0.924700
     52          6           0        8.828679    0.014817   -0.034107
     53          6           0       10.076653   -0.468480   -0.853321
     54          6           0        9.881338   -1.907952   -1.263251
     55          6           0       11.276056   -0.165350    0.042143
     56          6           0       12.560409   -0.360240   -0.707348
     57          6           0       13.871358    0.036629    0.125556
     58          6           0       15.316911   -0.116789   -0.627355
     59          6           0       15.640351   -1.646337   -1.018337
     60          6           0       16.315726    0.422668    0.449735
     61          6           0       17.760600    0.400363   -0.202817
     62          6           0       18.727070    1.061396    0.760033
     63          6           0       20.166563    1.160308    0.326580
     64          6           0       20.281006    1.842625   -1.054733
     65          6           0       21.105522    1.748902    1.346556
     66          1           0       -3.965413    3.565520    1.332257
     67          1           0       -9.997317    3.798224   -0.491918
     68          1           0      -10.195750   -2.531828   -1.157684
     69          1           0       -2.430811   -1.089998    1.918691
     70          1           0       -2.277123    1.398350    1.118231
     71          1           0       -1.884508    1.126754    3.478342
     72          1           0       -3.024823    2.445775    3.278527
     73          1           0       -3.572423    0.696529    3.539464
     74          1           0       -1.942917   -1.600610   -0.325370
     75          1           0       -2.308246    0.194554   -0.586015
     76          1           0       -0.210149    0.504779    0.875864
     77          1           0       -0.409487   -1.198268    1.189981
     78          1           0       -4.963954    6.177402    0.335833
     79          1           0       -5.903090    6.610829    1.843643
     80          1           0       -4.618682    5.412245    1.805870
     81          1           0       -9.749741    5.710339    0.496467
     82          1           0       -8.730873    8.112335    0.041418
     83          1           0       -7.113575    7.629100    0.331882
     84          1           0      -12.089188    3.195977   -2.066223
     85          1           0      -13.154705    1.963429   -1.608216
     86          1           0      -12.506792    3.120930   -0.353966
     87          1           0      -12.386263   -1.786362   -1.230867
     88          1           0      -13.186443   -0.265154   -1.532015
     89          1           0      -13.304690   -1.329734   -3.648430
     90          1           0      -12.107415   -0.089662   -3.915534
     91          1           0      -11.338500   -1.750747   -3.576438
     92          1           0       -8.851684   -4.958866   -2.194493
     93          1           0       -8.010546   -5.907699   -0.556823
     94          1           0       -9.682223   -4.803551   -0.384279
     95          1           0       -3.436438   -3.539489   -0.247702
     96          1           0       -1.179242   -4.568721    3.216252
     97          1           0       -2.618942   -5.561861    3.754413
     98          1           0       -1.454666   -6.302712    2.356802
     99          1           0        2.492467   -1.383741   -1.898869
    100          1           0        2.806902    0.432148   -2.209181
    101          1           0        3.980536   -0.875599    0.319925
    102          1           0        3.881526    1.736843   -2.297874
    103          1           0        5.412242    2.443978   -1.810856
    104          1           0        5.578970    1.209707   -2.847949
    105          1           0        6.529668    1.391031    0.096625
    106          1           0        6.215274   -0.087329    0.769896
    107          1           0        7.205325   -1.069407   -1.241738
    108          1           0        7.571574    0.551352   -1.830295
    109          1           0        8.835639    0.979037    0.437634
    110          1           0        8.526613   -0.678023    0.781325
    111          1           0       10.293370    0.242826   -1.588150
    112          1           0        9.065142   -2.025039   -1.901413
    113          1           0       10.622461   -2.324138   -2.022409
    114          1           0        9.675799   -2.658959   -0.389750
    115          1           0       11.329254    0.754753    0.649429
    116          1           0       11.209644   -1.030341    0.856242
    117          1           0       12.598238   -1.403784   -1.252335
    118          1           0       12.779155    0.404799   -1.609097
    119          1           0       13.881289    1.047301    0.404369
    120          1           0       13.930432   -0.526275    1.045268
    121          1           0       15.416482    0.474605   -1.667578
    122          1           0       15.554699   -2.505015   -0.183173
    123          1           0       15.154755   -1.919945   -1.963955
    124          1           0       16.682695   -1.576442   -1.455624
    125          1           0       15.870284    1.360143    0.626808
    126          1           0       16.467643   -0.116548    1.239071
    127          1           0       18.245873   -0.634376   -0.115440
    128          1           0       17.909045    0.870658   -1.170653
    129          1           0       18.495826    2.212539    1.037644
    130          1           0       18.535322    0.602899    1.715336
    131          1           0       20.558935    0.138379    0.075714
    132          1           0       19.939647    2.949105   -0.992349
    133          1           0       21.395744    1.784382   -1.337221
    134          1           0       19.801354    1.207538   -1.990812
    135          1           0       21.065365    1.220698    2.185869
    136          1           0       22.103614    1.931983    1.126589
    137          1           0       20.613527    2.855655    1.550510
 ---------------------------------------------------------------------

 SCF Done:  E(RCAM-B3LYP) =  -2932.58504945     A.U. after   17 cycles

 Excitation energies and oscillator strengths:

 Excited State   1:      Singlet-A      1.7664 eV  701.89 nm  f=0.3331  <S**2>=0.000
     240 -> 243       -0.18821
     241 -> 242        0.67871
     240 <- 243       -0.10106
 This state for optimization and/or second-order correction.
 Total Energy, E(TD-HF/TD-KS) =  -2932.52013449
 Copying the excited state density for this state as the 1-particle RhoCI density.

 The electronic state is 1-A.
 Alpha  occ. eigenvalues --  -46.83611 -19.27231 -19.26408 -19.22762 -19.21284
 Alpha  occ. eigenvalues --  -19.20796 -14.42865 -14.39551 -14.39480 -14.39457
 Alpha  occ. eigenvalues --  -10.40125 -10.39778 -10.35491 -10.32870 -10.32297
 Alpha  occ. eigenvalues --  -10.30626 -10.30512 -10.30230 -10.29942 -10.29743
 Alpha  occ. eigenvalues --  -10.29695 -10.29654 -10.29256 -10.29210 -10.28606
 Alpha  occ. eigenvalues --  -10.28398 -10.28150 -10.27771 -10.27704 -10.27354
 Alpha  occ. eigenvalues --  -10.27187 -10.27089 -10.27024 -10.26964 -10.26947
 Alpha  occ. eigenvalues --  -10.26934 -10.26761 -10.26731 -10.26638 -10.26604
 Alpha  occ. eigenvalues --  -10.26567 -10.26537 -10.26518 -10.26481 -10.26282
 Alpha  occ. eigenvalues --  -10.26161 -10.26064 -10.26038 -10.25881 -10.25868
 Alpha  occ. eigenvalues --  -10.25756 -10.25649 -10.25542 -10.25532 -10.25299
 Alpha  occ. eigenvalues --  -10.25222 -10.25216 -10.24977 -10.24895 -10.24894
 Alpha  occ. eigenvalues --  -10.24868 -10.24862 -10.23973 -10.23902 -10.23583
 Alpha  occ. eigenvalues --   -3.12808  -1.87504  -1.87056  -1.86989  -1.18344
 Alpha  occ. eigenvalues --   -1.18150  -1.11240  -1.10686  -1.08370  -1.04931
 Alpha  occ. eigenvalues --   -1.03336  -1.02456  -1.01141  -0.92584  -0.92520
 Alpha  occ. eigenvalues --   -0.90828  -0.90301  -0.90270  -0.89984  -0.89070
 Alpha  occ. eigenvalues --   -0.88548  -0.87952  -0.87409  -0.86635  -0.86504
 Alpha  occ. eigenvalues --   -0.85325  -0.84321  -0.83697  -0.83432  -0.82983
 Alpha  occ. eigenvalues --   -0.81958  -0.81051  -0.80529  -0.79895  -0.78407
 Alpha  occ. eigenvalues --   -0.77515  -0.76834  -0.76081  -0.75640  -0.75342
 Alpha  occ. eigenvalues --   -0.75266  -0.74650  -0.74477  -0.73855  -0.72326
 Alpha  occ. eigenvalues --   -0.71774  -0.70546  -0.69047  -0.68749  -0.68288
 Alpha  occ. eigenvalues --   -0.66903  -0.66647  -0.65887  -0.65217  -0.65109
 Alpha  occ. eigenvalues --   -0.64666  -0.63678  -0.63187  -0.62466  -0.62425
 Alpha  occ. eigenvalues --   -0.61490  -0.61064  -0.60667  -0.60421  -0.59518
 Alpha  occ. eigenvalues --   -0.59078  -0.58593  -0.57764  -0.57503  -0.56872
 Alpha  occ. eigenvalues --   -0.56406  -0.56263  -0.55857  -0.55190  -0.54992
 Alpha  occ. eigenvalues --   -0.54965  -0.54587  -0.54307  -0.53980  -0.53576
 Alpha  occ. eigenvalues --   -0.53255  -0.52820  -0.52732  -0.52309  -0.52031
 Alpha  occ. eigenvalues --   -0.51657  -0.51331  -0.50962  -0.50673  -0.50547
 Alpha  occ. eigenvalues --   -0.50451  -0.50062  -0.49734  -0.49573  -0.49512
 Alpha  occ. eigenvalues --   -0.49205  -0.48878  -0.48793  -0.48603  -0.48484
 Alpha  occ. eigenvalues --   -0.48423  -0.47960  -0.47724  -0.47278  -0.47243
 Alpha  occ. eigenvalues --   -0.46972  -0.46859  -0.46731  -0.46214  -0.46136
 Alpha  occ. eigenvalues --   -0.46036  -0.45874  -0.45645  -0.45503  -0.45256
 Alpha  occ. eigenvalues --   -0.44945  -0.44735  -0.44572  -0.44355  -0.44041
 Alpha  occ. eigenvalues --   -0.43968  -0.43739  -0.43668  -0.43562  -0.43457
 Alpha  occ. eigenvalues --   -0.43146  -0.42971  -0.42863  -0.42613  -0.42341
 Alpha  occ. eigenvalues --   -0.42125  -0.42047  -0.41810  -0.41694  -0.41572
 Alpha  occ. eigenvalues --   -0.41291  -0.41117  -0.41044  -0.40976  -0.40252
 Alpha  occ. eigenvalues --   -0.39953  -0.39510  -0.39403  -0.39128  -0.38933
 Alpha  occ. eigenvalues --   -0.38646  -0.38500  -0.38237  -0.38093  -0.37683
 Alpha  occ. eigenvalues --   -0.37367  -0.37349  -0.37125  -0.37069  -0.36927
 Alpha  occ. eigenvalues --   -0.36406  -0.36293  -0.36013  -0.35952  -0.35490
 Alpha  occ. eigenvalues --   -0.35271  -0.34784  -0.34442  -0.34035  -0.33779
 Alpha  occ. eigenvalues --   -0.32492  -0.32021  -0.31976  -0.31306  -0.30210
 Alpha  occ. eigenvalues --   -0.29581  -0.29407  -0.27764  -0.26734  -0.23580
 Alpha  occ. eigenvalues --   -0.20385
 Alpha virt. eigenvalues --   -0.07553  -0.02328   0.01143   0.03770   0.05366
 Alpha virt. eigenvalues --    0.05594   0.06364   0.06463   0.06543   0.06727
 Alpha virt. eigenvalues --    0.07646   0.10083   0.10465   0.11207   0.11744

 Mulliken charges:
               1
     1  Mg   0.815001
     2  C    0.048727
     3  C   -0.192045
     4  C   -0.096491
     5  C   -0.166928
     6  N   -0.625033
     7  C    0.366505
     8  C   -0.249183
     9  C   -0.111621
    10  C    0.313782
    11  C   -0.284146
    12  C   -0.156496
    13  C   -0.276947
    14  C    0.593905
    15  O   -0.480609
    16  O   -0.457108
    17  N   -0.740456
    18  C    0.356077
    19  C    0.012716
    20  C   -0.030537
    21  C    0.305360
    22  C   -0.406285
    23  C   -0.033085
    24  C   -0.273508
    25  N   -0.716649
    26  C    0.319809
    27  C    0.045193
    28  C   -0.003112
    29  C    0.336494
    30  C   -0.387204
    31  C   -0.231434
    32  C   -0.291086
    33  N   -0.716867
    34  C    0.244218
    35  C    0.071627
    36  C    0.031128
    37  C    0.266718
    38  C   -0.355458
    39  C    0.352103
    40  O   -0.457562
    41  C   -0.326415
    42  C    0.634769
    43  O   -0.432635
    44  O   -0.466933
    45  C   -0.082732
    46  C    0.004422
    47  C   -0.129972
    48  C    0.150559
    49  C   -0.394529
    50  C   -0.202493
    51  C   -0.197382
    52  C   -0.180302
    53  C   -0.044325
    54  C   -0.317349
    55  C   -0.161497
    56  C   -0.176658
    57  C   -0.187412
    58  C   -0.071561
    59  C   -0.313029
    60  C   -0.140601
    61  C   -0.199461
    62  C   -0.153703
    63  C   -0.059902
    64  C   -0.294889
    65  C   -0.286823
    66  H    0.092904
    67  H    0.071990
    68  H    0.089019
    69  H    0.107567
    70  H    0.100481
    71  H    0.117126
    72  H    0.105303
    73  H    0.131813
    74  H    0.127801
    75  H    0.113965
    76  H    0.136813
    77  H    0.133283
    78  H    0.133641
    79  H    0.118114
    80  H    0.097359
    81  H    0.050909
    82  H    0.110435
    83  H    0.100129
    84  H    0.123819
    85  H    0.125007
    86  H    0.082353
    87  H    0.101143
    88  H    0.113564
    89  H    0.100647
    90  H    0.112255
    91  H    0.079585
    92  H    0.086576
    93  H    0.151036
    94  H    0.081185
    95  H    0.165550
    96  H    0.116183
    97  H    0.141074
    98  H    0.106026
    99  H    0.129292
   100  H    0.093656
   101  H    0.096002
   102  H    0.102323
   103  H    0.124893
   104  H    0.128627
   105  H    0.102348
   106  H    0.099643
   107  H    0.059193
   108  H    0.100347
   109  H    0.094371
   110  H    0.093677
   111  H    0.099898
   112  H    0.123247
   113  H    0.096370
   114  H    0.099082
   115  H    0.095927
   116  H    0.068307
   117  H    0.091735
   118  H    0.062286
   119  H    0.093103
   120  H    0.092538
   121  H    0.070261
   122  H    0.089157
   123  H    0.099791
   124  H    0.096865
   125  H    0.100345
   126  H    0.104329
   127  H    0.097543
   128  H    0.100060
   129  H    0.048398
   130  H    0.084483
   131  H    0.073950
   132  H    0.093921
   133  H    0.090289
   134  H    0.083242
   135  H    0.114904
   136  H    0.109929
   137  H    0.062358
 Sum of Mulliken charges =   0.00000

 Dipole moment (field-independent basis, Debye):
    X=              3.3565    Y=              3.9750    Z=              0.9013  Tot=              5.2801
 Quadrupole moment (field-independent basis, Debye-Ang):
   XX=           -349.4354   YY=           -400.6693   ZZ=           -398.8115
   XY=            -17.7904   XZ=             12.5284   YZ=             -3.6156

 Normal termination of Gaussian 09 at Sat Jun 29 20:01:07 2019.
