 Gaussian 09, Revision D.01,
 Gaussian 09:  ES64L-G09RevD.01 24-Apr-2013

 -------------------------------------
 # td=(NStates=1) CAM-B3LYP/6-31G(d,p)
 -------------------------------------

 --
 TD
 --
 Symbolic Z-matrix:
 Charge =  0 Multiplicity = 1

                         Standard orientation:
 ---------------------------------------------------------------------
 Center     Atomic      Atomic             Coordinates (Angstroms)
 Number     Number       Type             X           Y           Z
 ---------------------------------------------------------------------
      1         12           0       -7.295530    0.566832    0.101321
      2          6           0       -4.819968   -1.957373    0.381856
      3          6           0       -4.860541    2.876988    1.161368
      4          6           0       -9.565458    3.068079   -0.318573
      5          6           0       -9.488965   -1.775094   -0.754539
      6          7           0       -5.158351    0.502914    0.681842
      7          6           0       -4.331780   -0.669327    0.708816
      8          6           0       -2.992482   -0.315783    1.201912
      9          6           0       -2.975847    1.113868    1.676831
     10          6           0       -4.348718    1.553579    1.108382
     11          6           0       -2.829711    1.248874    3.078938
     12          6           0       -1.892444   -0.504273    0.058402
     13          6           0       -0.491137   -0.505804    0.500079
     14          6           0        0.597279   -0.698168   -0.630183
     15          8           0        0.245848   -0.879735   -1.810467
     16          8           0        1.793392   -0.527845   -0.201177
     17          7           0       -7.243984    2.643384    0.389390
     18          6           0       -6.141421    3.300421    0.896158
     19          6           0       -6.484538    4.714943    0.924721
     20          6           0       -7.853029    4.845539    0.383441
     21          6           0       -8.345652    3.461410    0.078933
     22          6           0       -5.578554    5.875369    1.312349
     23          6           0       -8.576721    6.030715    0.106566
     24          6           0       -8.084265    7.258138    0.019696
     25          7           0       -9.148887    0.548922   -0.477761
     26          6           0       -9.951866    1.754479   -0.562342
     27          6           0      -11.244206    1.361535   -0.953309
     28          6           0      -11.298005   -0.020329   -1.098477
     29          6           0       -9.966407   -0.445733   -0.804466
     30          6           0      -12.365730    2.243487   -1.421212
     31          6           0      -12.435497   -0.860042   -1.501699
     32          6           0      -12.340696   -1.135794   -2.999233
     33          7           0       -7.284173   -1.387495   -0.127091
     34          6           0       -8.240471   -2.229208   -0.477865
     35          6           0       -7.774356   -3.634393   -0.524983
     36          6           0       -6.464335   -3.588077   -0.158670
     37          6           0       -6.181863   -2.185936    0.041758
     38          6           0       -8.679220   -4.907827   -0.719050
     39          6           0       -5.284276   -4.340523    0.144035
     40          8           0       -5.144397   -5.597391    0.116425
     41          6           0       -4.147833   -3.263637    0.498484
     42          6           0       -3.547973   -3.605567    1.807151
     43          8           0       -3.832988   -3.079486    2.804049
     44          8           0       -2.568860   -4.562379    1.706370
     45          6           0       -1.949858   -5.081751    2.986497
     46          6           0        2.841039   -0.720506   -1.290696
     47          6           0        4.164002   -0.436454   -0.623792
     48          6           0        5.129725    0.408289   -0.998322
     49          6           0        5.041128    1.270675   -2.161460
     50          6           0        6.434314    0.563491   -0.147053
     51          6           0        7.632765   -0.119355   -0.948426
     52          6           0        8.943533   -0.106527   -0.134234
     53          6           0       10.183758   -0.525094   -0.930509
     54          6           0       10.184238   -2.020741   -1.221723
     55          6           0       11.394959   -0.274752   -0.035294
     56          6           0       12.803938   -0.476505   -0.774756
     57          6           0       13.997916   -0.038092    0.138921
     58          6           0       15.345372   -0.120590   -0.466660
     59          6           0       15.685723   -1.685463   -0.798086
     60          6           0       16.399997    0.387094    0.407853
     61          6           0       17.818267    0.559929   -0.119320
     62          6           0       18.845668    1.202450    0.730515
     63          6           0       20.365400    1.179839    0.379645
     64          6           0       20.463806    1.982770   -1.080818
     65          6           0       21.134543    1.840906    1.364943
     66          1           0       -4.167948    3.575936    1.620346
     67          1           0      -10.183403    3.845073   -0.698000
     68          1           0      -10.299350   -2.421521   -1.256567
     69          1           0       -2.620163   -1.076905    1.883258
     70          1           0       -2.247309    1.906285    1.040141
     71          1           0       -1.832350    0.785025    3.281625
     72          1           0       -2.675206    2.432020    3.384301
     73          1           0       -3.988497    0.914061    3.689064
     74          1           0       -2.022562   -1.526002   -0.555133
     75          1           0       -1.955481    0.343808   -0.503624
     76          1           0       -0.037704    0.493255    1.256421
     77          1           0       -0.104804   -1.086702    1.390211
     78          1           0       -4.925731    6.016662    0.453128
     79          1           0       -6.188855    6.755991    1.524725
     80          1           0       -4.983916    5.744307    2.037514
     81          1           0       -9.605176    5.964854    0.195078
     82          1           0       -8.686916    8.163179    0.043470
     83          1           0       -6.869925    7.560468   -0.092786
     84          1           0      -11.988976    2.926866   -2.255027
     85          1           0      -13.290172    1.736009   -1.879149
     86          1           0      -12.635557    2.897039   -0.412128
     87          1           0      -12.471613   -1.756774   -0.923707
     88          1           0      -13.432684   -0.298016   -1.285622
     89          1           0      -13.404356   -1.568819   -3.416625
     90          1           0      -12.258858   -0.246429   -3.625465
     91          1           0      -11.632009   -1.816701   -3.299718
     92          1           0       -9.083706   -4.872890   -1.699816
     93          1           0       -7.849455   -5.809979   -0.774899
     94          1           0       -9.503672   -5.221303    0.156252
     95          1           0       -3.374508   -3.542685   -0.273778
     96          1           0       -1.476522   -4.068092    3.244574
     97          1           0       -2.801238   -5.496505    3.615137
     98          1           0       -1.289206   -5.819112    2.651308
     99          1           0        2.839206   -1.622679   -1.661581
    100          1           0        2.627926   -0.032940   -2.104439
    101          1           0        4.426769   -0.852317    0.488123
    102          1           0        3.969176    1.452487   -2.563468
    103          1           0        5.300989    2.435283   -1.969298
    104          1           0        5.703830    0.958203   -3.134376
    105          1           0        6.776057    1.401511    0.049015
    106          1           0        6.311179   -0.031142    0.774864
    107          1           0        7.568016   -1.073530   -1.364152
    108          1           0        7.833394    0.426596   -1.934951
    109          1           0        8.956190    0.944480    0.293734
    110          1           0        8.843966   -0.416709    0.873865
    111          1           0       10.363204    0.170228   -1.719790
    112          1           0        9.211952   -2.307423   -1.884131
    113          1           0       11.157934   -2.291482   -1.891206
    114          1           0        9.939391   -2.739635   -0.424705
    115          1           0       11.254403    0.682712    0.252005
    116          1           0       11.303624   -0.802480    0.900457
    117          1           0       13.007392   -1.548590   -1.045753
    118          1           0       12.950094    0.209468   -1.714120
    119          1           0       13.973422    1.020862    0.317624
    120          1           0       14.036299   -0.520261    1.038064
    121          1           0       15.275857    0.385657   -1.449679
    122          1           0       15.818579   -2.379729    0.020108
    123          1           0       14.887211   -1.999205   -1.413846
    124          1           0       16.575090   -1.488551   -1.522026
    125          1           0       15.974793    1.292849    0.766131
    126          1           0       16.375562   -0.181245    1.258032
    127          1           0       18.056270   -0.403473   -0.511117
    128          1           0       17.580215    1.068114   -1.068448
    129          1           0       18.536542    2.289483    1.059538
    130          1           0       18.624238    0.599597    1.741833
    131          1           0       20.648285    0.154694    0.355150
    132          1           0       20.166197    2.946523   -0.884915
    133          1           0       21.671756    1.957548   -1.423006
    134          1           0       19.982686    1.615940   -2.019028
    135          1           0       20.798795    1.495357    2.331423
    136          1           0       22.140927    1.980717    1.072891
    137          1           0       20.629295    2.864414    1.539535
 ---------------------------------------------------------------------

 SCF Done:  E(RCAM-B3LYP) =  -2932.58593224     A.U. after   18 cycles

 Excitation energies and oscillator strengths:

 Excited State   1:      Singlet-A      2.0151 eV  615.28 nm  f=0.2002  <S**2>=0.000
     240 -> 243        0.26246
     241 -> 242        0.64606
 This state for optimization and/or second-order correction.
 Total Energy, E(TD-HF/TD-KS) =  -2932.51187963
 Copying the excited state density for this state as the 1-particle RhoCI density.

 The electronic state is 1-A.
 Alpha  occ. eigenvalues --  -46.83269 -19.27983 -19.24497 -19.20732 -19.20673
 Alpha  occ. eigenvalues --  -19.19896 -14.42163 -14.39863 -14.38654 -14.38504
 Alpha  occ. eigenvalues --  -10.39419 -10.38337 -10.35890 -10.32596 -10.32326
 Alpha  occ. eigenvalues --  -10.31536 -10.31324 -10.29873 -10.29729 -10.29720
 Alpha  occ. eigenvalues --  -10.29296 -10.29283 -10.29183 -10.28953 -10.28853
 Alpha  occ. eigenvalues --  -10.28668 -10.28593 -10.28432 -10.28325 -10.28292
 Alpha  occ. eigenvalues --  -10.27842 -10.27755 -10.27620 -10.27550 -10.27330
 Alpha  occ. eigenvalues --  -10.27217 -10.27191 -10.27151 -10.26944 -10.26937
 Alpha  occ. eigenvalues --  -10.26873 -10.26687 -10.26625 -10.26566 -10.26404
 Alpha  occ. eigenvalues --  -10.26268 -10.26137 -10.25980 -10.25927 -10.25751
 Alpha  occ. eigenvalues --  -10.25737 -10.25721 -10.25717 -10.25467 -10.25441
 Alpha  occ. eigenvalues --  -10.25282 -10.25205 -10.25010 -10.24332 -10.24230
 Alpha  occ. eigenvalues --  -10.24217 -10.24031 -10.23915 -10.23418 -10.22951
 Alpha  occ. eigenvalues --   -3.12505  -1.87193  -1.86771  -1.86677  -1.19582
 Alpha  occ. eigenvalues --   -1.17948  -1.08980  -1.08666  -1.07588  -1.05435
 Alpha  occ. eigenvalues --   -1.02420  -1.02336  -1.00503  -0.93466  -0.91882
 Alpha  occ. eigenvalues --   -0.91581  -0.90775  -0.90277  -0.89335  -0.89273
 Alpha  occ. eigenvalues --   -0.88572  -0.88153  -0.87844  -0.86688  -0.86433
 Alpha  occ. eigenvalues --   -0.85644  -0.84508  -0.83981  -0.83394  -0.82505
 Alpha  occ. eigenvalues --   -0.82207  -0.80896  -0.80098  -0.79566  -0.77719
 Alpha  occ. eigenvalues --   -0.77311  -0.76516  -0.76116  -0.75936  -0.75639
 Alpha  occ. eigenvalues --   -0.75280  -0.74768  -0.74644  -0.73896  -0.72425
 Alpha  occ. eigenvalues --   -0.71660  -0.70678  -0.69982  -0.69793  -0.69035
 Alpha  occ. eigenvalues --   -0.67854  -0.66784  -0.65938  -0.65180  -0.64672
 Alpha  occ. eigenvalues --   -0.64421  -0.64236  -0.63650  -0.63476  -0.62722
 Alpha  occ. eigenvalues --   -0.60954  -0.59970  -0.59857  -0.59196  -0.59095
 Alpha  occ. eigenvalues --   -0.58153  -0.57845  -0.57569  -0.57465  -0.57184
 Alpha  occ. eigenvalues --   -0.55929  -0.55233  -0.55176  -0.54942  -0.54621
 Alpha  occ. eigenvalues --   -0.54265  -0.54105  -0.53922  -0.53672  -0.53307
 Alpha  occ. eigenvalues --   -0.52931  -0.52605  -0.52298  -0.52078  -0.51936
 Alpha  occ. eigenvalues --   -0.51774  -0.51454  -0.51203  -0.50950  -0.50542
 Alpha  occ. eigenvalues --   -0.50357  -0.50335  -0.49872  -0.49659  -0.49571
 Alpha  occ. eigenvalues --   -0.49430  -0.49228  -0.48982  -0.48683  -0.48381
 Alpha  occ. eigenvalues --   -0.48212  -0.47990  -0.47721  -0.47665  -0.47484
 Alpha  occ. eigenvalues --   -0.47133  -0.46697  -0.46575  -0.46432  -0.46217
 Alpha  occ. eigenvalues --   -0.45770  -0.45729  -0.45549  -0.45491  -0.45276
 Alpha  occ. eigenvalues --   -0.44937  -0.44804  -0.44515  -0.44478  -0.44083
 Alpha  occ. eigenvalues --   -0.43931  -0.43624  -0.43524  -0.43285  -0.43012
 Alpha  occ. eigenvalues --   -0.42891  -0.42792  -0.42673  -0.42219  -0.42065
 Alpha  occ. eigenvalues --   -0.41904  -0.41798  -0.41363  -0.41323  -0.41198
 Alpha  occ. eigenvalues --   -0.40940  -0.40826  -0.40665  -0.40332  -0.40279
 Alpha  occ. eigenvalues --   -0.40146  -0.39566  -0.39564  -0.39086  -0.38969
 Alpha  occ. eigenvalues --   -0.38888  -0.38811  -0.38321  -0.38182  -0.37801
 Alpha  occ. eigenvalues --   -0.37116  -0.37073  -0.36866  -0.36740  -0.36444
 Alpha  occ. eigenvalues --   -0.36429  -0.36303  -0.36204  -0.35936  -0.35414
 Alpha  occ. eigenvalues --   -0.35185  -0.34652  -0.34271  -0.33678  -0.33369
 Alpha  occ. eigenvalues --   -0.32939  -0.32658  -0.32515  -0.30950  -0.30483
 Alpha  occ. eigenvalues --   -0.30434  -0.30182  -0.27558  -0.25510  -0.23138
 Alpha  occ. eigenvalues --   -0.20903
 Alpha virt. eigenvalues --   -0.06195  -0.03614   0.00538   0.03982   0.05129
 Alpha virt. eigenvalues --    0.05972   0.06258   0.06944   0.07213   0.07577
 Alpha virt. eigenvalues --    0.08139   0.09869   0.10105   0.11027   0.11575

 Mulliken charges:
               1
     1  Mg   0.832727
     2  C    0.068566
     3  C   -0.201199
     4  C   -0.160809
     5  C   -0.201637
     6  N   -0.621846
     7  C    0.342954
     8  C   -0.188011
     9  C   -0.106756
    10  C    0.304742
    11  C   -0.267102
    12  C   -0.154606
    13  C   -0.272174
    14  C    0.624827
    15  O   -0.513770
    16  O   -0.448477
    17  N   -0.751093
    18  C    0.369517
    19  C   -0.024313
    20  C   -0.015502
    21  C    0.327201
    22  C   -0.356695
    23  C   -0.067954
    24  C   -0.257725
    25  N   -0.730659
    26  C    0.278238
    27  C    0.012101
    28  C    0.047815
    29  C    0.307392
    30  C   -0.363850
    31  C   -0.250870
    32  C   -0.303106
    33  N   -0.725794
    34  C    0.319483
    35  C   -0.007046
    36  C    0.088716
    37  C    0.264843
    38  C   -0.360138
    39  C    0.340362
    40  O   -0.481334
    41  C   -0.340397
    42  C    0.627813
    43  O   -0.441571
    44  O   -0.514640
    45  C   -0.075245
    46  C    0.013513
    47  C   -0.161885
    48  C    0.157866
    49  C   -0.374324
    50  C   -0.196907
    51  C   -0.191170
    52  C   -0.194257
    53  C   -0.047583
    54  C   -0.296216
    55  C   -0.170844
    56  C   -0.194008
    57  C   -0.162919
    58  C   -0.084868
    59  C   -0.323566
    60  C   -0.158223
    61  C   -0.172318
    62  C   -0.170365
    63  C   -0.044688
    64  C   -0.308873
    65  C   -0.292889
    66  H    0.078486
    67  H    0.101841
    68  H    0.084348
    69  H    0.127260
    70  H    0.102383
    71  H    0.116270
    72  H    0.082851
    73  H    0.101188
    74  H    0.120881
    75  H    0.131183
    76  H    0.071437
    77  H    0.125291
    78  H    0.123856
    79  H    0.122716
    80  H    0.115349
    81  H    0.094815
    82  H    0.100782
    83  H    0.087049
    84  H    0.118652
    85  H    0.111722
    86  H    0.095367
    87  H    0.115325
    88  H    0.099340
    89  H    0.067681
    90  H    0.116117
    91  H    0.123525
    92  H    0.133749
    93  H    0.129275
    94  H    0.118077
    95  H    0.167195
    96  H    0.132849
    97  H    0.143817
    98  H    0.144443
    99  H    0.154761
   100  H    0.143867
   101  H    0.083106
   102  H    0.106776
   103  H    0.101338
   104  H    0.109798
   105  H    0.109124
   106  H    0.096758
   107  H    0.106837
   108  H    0.081739
   109  H    0.066403
   110  H    0.096172
   111  H    0.099617
   112  H    0.064925
   113  H    0.094265
   114  H    0.117245
   115  H    0.096882
   116  H    0.091183
   117  H    0.100906
   118  H    0.078058
   119  H    0.086009
   120  H    0.093928
   121  H    0.072907
   122  H    0.106045
   123  H    0.099643
   124  H    0.089220
   125  H    0.077284
   126  H    0.090909
   127  H    0.099897
   128  H    0.082378
   129  H    0.074680
   130  H    0.061634
   131  H    0.096248
   132  H    0.118623
   133  H    0.056908
   134  H    0.108749
   135  H    0.110045
   136  H    0.112161
   137  H    0.079400
 Sum of Mulliken charges =   0.00000

 Dipole moment (field-independent basis, Debye):
    X=              3.4723    Y=              3.2484    Z=              1.1245  Tot=              4.8860
 Quadrupole moment (field-independent basis, Debye-Ang):
   XX=           -366.4341   YY=           -397.3627   ZZ=           -397.2615
   XY=            -12.0785   XZ=             14.4963   YZ=             -4.3832

 Normal termination of Gaussian 09 at Sat Jun 29 05:45:29 2019.
