 Gaussian 09, Revision D.01,
 Gaussian 09:  ES64L-G09RevD.01 24-Apr-2013

 -------------------------------------
 # td=(NStates=1) CAM-B3LYP/6-31G(d,p)
 -------------------------------------

 --
 TD
 --
 Symbolic Z-matrix:
 Charge =  0 Multiplicity = 1

                         Standard orientation:
 ---------------------------------------------------------------------
 Center     Atomic      Atomic             Coordinates (Angstroms)
 Number     Number       Type             X           Y           Z
 ---------------------------------------------------------------------
      1         12           0       -7.114709    0.653533    0.102494
      2          6           0       -4.806892   -1.940303    0.551617
      3          6           0       -4.831187    2.738757    1.208791
      4          6           0       -9.393396    3.131828   -0.316393
      5          6           0       -9.557944   -1.741874   -0.741629
      6          7           0       -5.133390    0.467724    0.734637
      7          6           0       -4.339301   -0.714195    0.792865
      8          6           0       -2.925606   -0.436164    1.286982
      9          6           0       -3.088363    1.092431    1.716314
     10          6           0       -4.356626    1.492980    1.183983
     11          6           0       -2.888848    1.297327    3.205962
     12          6           0       -1.963338   -0.650500    0.161603
     13          6           0       -0.508250   -0.410908    0.533292
     14          6           0        0.477406   -0.569282   -0.680028
     15          8           0        0.216228   -0.976347   -1.810782
     16          8           0        1.744050   -0.294536   -0.316379
     17          7           0       -7.103102    2.638553    0.278371
     18          6           0       -6.049144    3.298187    0.898318
     19          6           0       -6.498799    4.801252    0.917783
     20          6           0       -7.817043    4.936818    0.464384
     21          6           0       -8.174383    3.410426    0.137217
     22          6           0       -5.667870    5.876129    1.366145
     23          6           0       -8.635787    5.966602    0.419900
     24          6           0       -8.156359    7.217927    0.079665
     25          7           0       -9.057371    0.699823   -0.469104
     26          6           0       -9.885299    1.804575   -0.680257
     27          6           0      -11.194502    1.369952   -1.114845
     28          6           0      -11.183498   -0.017112   -1.259897
     29          6           0       -9.887706   -0.376935   -0.783726
     30          6           0      -12.288873    2.391402   -1.420044
     31          6           0      -12.350711   -0.788033   -1.850477
     32          6           0      -12.193604   -1.248195   -3.385156
     33          7           0       -7.164225   -1.363195   -0.179415
     34          6           0       -8.311975   -2.189061   -0.457635
     35          6           0       -7.794740   -3.554703   -0.437954
     36          6           0       -6.483044   -3.545103   -0.050061
     37          6           0       -6.126117   -2.155084    0.188425
     38          6           0       -8.582804   -4.817198   -0.726239
     39          6           0       -5.342425   -4.318003    0.347695
     40          8           0       -5.242940   -5.507355    0.258775
     41          6           0       -4.254882   -3.328683    0.551050
     42          6           0       -3.588400   -3.714810    1.887639
     43          8           0       -3.561584   -3.056132    2.902480
     44          8           0       -2.793985   -4.797873    1.730564
     45          6           0       -2.167944   -5.231100    2.924342
     46          6           0        2.783935   -0.572586   -1.211476
     47          6           0        4.085118   -0.273499   -0.538994
     48          6           0        5.112650    0.445687   -1.044763
     49          6           0        5.068447    1.245722   -2.402948
     50          6           0        6.453472    0.476330   -0.385892
     51          6           0        7.640927   -0.156820   -1.071149
     52          6           0        8.976504   -0.100437   -0.275858
     53          6           0       10.229262   -0.536884   -0.987527
     54          6           0       10.204991   -2.071900   -1.433569
     55          6           0       11.471886   -0.315645   -0.234658
     56          6           0       12.797665   -0.669492   -0.890602
     57          6           0       14.012198   -0.327136    0.025517
     58          6           0       15.394267   -0.267679   -0.481380
     59          6           0       15.776114   -1.708642   -0.771825
     60          6           0       16.385856    0.252646    0.591846
     61          6           0       17.870122    0.516459   -0.058903
     62          6           0       18.728188    1.214477    0.851745
     63          6           0       20.215690    1.431592    0.371030
     64          6           0       20.277724    2.280915   -0.890224
     65          6           0       21.098450    1.998826    1.454843
     66          1           0       -4.144304    3.452145    1.508633
     67          1           0      -10.052237    4.005164   -0.420628
     68          1           0      -10.522432   -2.315907   -0.907519
     69          1           0       -2.691266   -0.959205    2.250827
     70          1           0       -2.173154    1.770444    1.290820
     71          1           0       -1.823670    1.228256    3.522418
     72          1           0       -3.216864    2.098266    3.687692
     73          1           0       -3.480043    0.460032    3.745731
     74          1           0       -2.088504   -1.547880   -0.566482
     75          1           0       -2.194280    0.090497   -0.626616
     76          1           0       -0.374821    0.652298    0.737958
     77          1           0       -0.136211   -1.179786    1.273763
     78          1           0       -4.841994    6.032932    0.564413
     79          1           0       -6.406993    6.861924    1.498987
     80          1           0       -5.123288    5.486385    2.349123
     81          1           0       -9.731039    5.895545    0.701813
     82          1           0       -8.980452    7.881300   -0.046446
     83          1           0       -7.120224    7.512060   -0.253184
     84          1           0      -12.135211    2.914978   -2.535492
     85          1           0      -13.532756    1.901991   -1.260376
     86          1           0      -12.383838    3.123229   -0.674573
     87          1           0      -12.277074   -1.662427   -1.060334
     88          1           0      -13.286741   -0.280479   -1.682102
     89          1           0      -12.925453   -2.152719   -3.496512
     90          1           0      -12.221653   -0.370131   -4.137247
     91          1           0      -11.225563   -1.784205   -3.483735
     92          1           0       -9.024427   -4.994745   -1.674850
     93          1           0       -8.070898   -5.771757   -0.605628
     94          1           0       -9.560896   -4.775667   -0.155252
     95          1           0       -3.519999   -3.656914   -0.322609
     96          1           0       -1.286202   -4.442824    3.169759
     97          1           0       -2.904840   -5.571665    3.615919
     98          1           0       -1.834030   -6.276422    2.509655
     99          1           0        2.508657   -1.772784   -1.454785
    100          1           0        2.725477   -0.106508   -2.123780
    101          1           0        4.330811   -0.924510    0.329146
    102          1           0        3.924895    1.403328   -2.647273
    103          1           0        5.460359    2.314777   -2.406194
    104          1           0        5.592536    0.591115   -3.026272
    105          1           0        6.621182    1.534740   -0.109477
    106          1           0        6.246943    0.252980    0.705910
    107          1           0        7.308745   -0.932694   -1.580486
    108          1           0        7.875700    0.664987   -2.061875
    109          1           0        9.086156    0.601742    0.147836
    110          1           0        8.854606   -0.783755    0.574663
    111          1           0       10.310935   -0.036247   -2.066382
    112          1           0        9.236476   -2.367660   -1.812716
    113          1           0       11.079304   -2.490316   -1.980874
    114          1           0       10.127958   -2.551505   -0.502210
    115          1           0       11.507843    0.705048   -0.058202
    116          1           0       11.316268   -0.834136    0.713421
    117          1           0       12.824988   -1.705142   -1.198563
    118          1           0       12.868954   -0.037452   -1.773098
    119          1           0       13.868243    0.831775    0.330843
    120          1           0       13.959598   -0.823345    1.148193
    121          1           0       15.363838    0.329055   -1.318185
    122          1           0       15.615587   -2.222883    0.165353
    123          1           0       15.024953   -2.036701   -1.543411
    124          1           0       16.612844   -1.959691   -1.298908
    125          1           0       15.954420    1.188605    0.770144
    126          1           0       16.466882   -0.216687    1.541084
    127          1           0       18.155190   -0.415127   -0.557636
    128          1           0       17.661287    1.095930   -0.915068
    129          1           0       18.289271    2.180760    0.927041
    130          1           0       18.770838    0.634621    1.841612
    131          1           0       20.311659    0.268614    0.182401
    132          1           0       19.628827    3.219791   -0.809846
    133          1           0       21.501402    2.910148   -1.056965
    134          1           0       19.740540    1.773682   -1.765850
    135          1           0       21.108659    1.270131    2.254874
    136          1           0       22.078600    2.275568    1.047295
    137          1           0       20.467638    3.012559    1.762630
 ---------------------------------------------------------------------

 SCF Done:  E(RCAM-B3LYP) =  -2932.56175005     A.U. after   15 cycles

 Excitation energies and oscillator strengths:

 Excited State   1:      Singlet-A      2.1917 eV  565.69 nm  f=0.1931  <S**2>=0.000
     240 -> 243       -0.25806
     241 -> 242        0.64120
 This state for optimization and/or second-order correction.
 Total Energy, E(TD-HF/TD-KS) =  -2932.48120530
 Copying the excited state density for this state as the 1-particle RhoCI density.

 The electronic state is 1-A.
 Alpha  occ. eigenvalues --  -46.83076 -19.26080 -19.25739 -19.21113 -19.20881
 Alpha  occ. eigenvalues --  -19.19322 -14.41700 -14.39956 -14.39183 -14.38934
 Alpha  occ. eigenvalues --  -10.39396 -10.39138 -10.33683 -10.32235 -10.32180
 Alpha  occ. eigenvalues --  -10.31945 -10.30807 -10.30638 -10.29269 -10.29111
 Alpha  occ. eigenvalues --  -10.28936 -10.28861 -10.28643 -10.28586 -10.28517
 Alpha  occ. eigenvalues --  -10.28435 -10.28363 -10.28105 -10.28099 -10.27963
 Alpha  occ. eigenvalues --  -10.27904 -10.27858 -10.27843 -10.27752 -10.27736
 Alpha  occ. eigenvalues --  -10.27721 -10.27558 -10.27334 -10.27142 -10.27113
 Alpha  occ. eigenvalues --  -10.27058 -10.26889 -10.26863 -10.26696 -10.26543
 Alpha  occ. eigenvalues --  -10.26361 -10.26286 -10.26274 -10.26154 -10.25796
 Alpha  occ. eigenvalues --  -10.25689 -10.25616 -10.25600 -10.25502 -10.25174
 Alpha  occ. eigenvalues --  -10.24955 -10.24814 -10.24640 -10.24389 -10.24360
 Alpha  occ. eigenvalues --  -10.24142 -10.24059 -10.23948 -10.23711 -10.23095
 Alpha  occ. eigenvalues --   -3.12355  -1.87050  -1.86592  -1.86554  -1.18653
 Alpha  occ. eigenvalues --   -1.18610  -1.11679  -1.09334  -1.08594  -1.04226
 Alpha  occ. eigenvalues --   -1.02942  -1.02153  -1.00894  -0.93758  -0.92288
 Alpha  occ. eigenvalues --   -0.91356  -0.91247  -0.90549  -0.90215  -0.89527
 Alpha  occ. eigenvalues --   -0.89177  -0.88068  -0.86908  -0.86546  -0.86403
 Alpha  occ. eigenvalues --   -0.85614  -0.84686  -0.83532  -0.83244  -0.82530
 Alpha  occ. eigenvalues --   -0.81696  -0.81657  -0.80725  -0.80092  -0.78490
 Alpha  occ. eigenvalues --   -0.77493  -0.77349  -0.76340  -0.75857  -0.75707
 Alpha  occ. eigenvalues --   -0.75378  -0.74606  -0.74434  -0.74206  -0.72985
 Alpha  occ. eigenvalues --   -0.71416  -0.70948  -0.69837  -0.69576  -0.68651
 Alpha  occ. eigenvalues --   -0.68106  -0.67365  -0.66459  -0.65648  -0.65253
 Alpha  occ. eigenvalues --   -0.63620  -0.63541  -0.63306  -0.63065  -0.61902
 Alpha  occ. eigenvalues --   -0.61514  -0.60603  -0.59836  -0.59309  -0.59036
 Alpha  occ. eigenvalues --   -0.58721  -0.57997  -0.57453  -0.57239  -0.56835
 Alpha  occ. eigenvalues --   -0.56091  -0.55857  -0.55530  -0.55357  -0.55026
 Alpha  occ. eigenvalues --   -0.54742  -0.54180  -0.54112  -0.53874  -0.53541
 Alpha  occ. eigenvalues --   -0.53098  -0.52584  -0.52484  -0.51992  -0.51784
 Alpha  occ. eigenvalues --   -0.51714  -0.51501  -0.51294  -0.50766  -0.50656
 Alpha  occ. eigenvalues --   -0.50531  -0.50303  -0.50091  -0.49750  -0.49491
 Alpha  occ. eigenvalues --   -0.49361  -0.49152  -0.49012  -0.48707  -0.48233
 Alpha  occ. eigenvalues --   -0.48037  -0.47677  -0.47499  -0.47341  -0.47116
 Alpha  occ. eigenvalues --   -0.46947  -0.46811  -0.46738  -0.46639  -0.46362
 Alpha  occ. eigenvalues --   -0.45965  -0.45544  -0.45240  -0.45131  -0.44630
 Alpha  occ. eigenvalues --   -0.44551  -0.44407  -0.44217  -0.44166  -0.44063
 Alpha  occ. eigenvalues --   -0.43878  -0.43570  -0.43289  -0.43199  -0.43079
 Alpha  occ. eigenvalues --   -0.43005  -0.42865  -0.42691  -0.42329  -0.42264
 Alpha  occ. eigenvalues --   -0.42099  -0.42066  -0.41857  -0.41719  -0.41221
 Alpha  occ. eigenvalues --   -0.41130  -0.40931  -0.40557  -0.40377  -0.40349
 Alpha  occ. eigenvalues --   -0.40207  -0.39949  -0.39933  -0.39465  -0.39254
 Alpha  occ. eigenvalues --   -0.38980  -0.38812  -0.38152  -0.37896  -0.37750
 Alpha  occ. eigenvalues --   -0.37624  -0.37577  -0.37283  -0.37104  -0.36663
 Alpha  occ. eigenvalues --   -0.36505  -0.36102  -0.35881  -0.35388  -0.35246
 Alpha  occ. eigenvalues --   -0.34912  -0.34786  -0.34734  -0.33720  -0.33631
 Alpha  occ. eigenvalues --   -0.33042  -0.32624  -0.32410  -0.31200  -0.30277
 Alpha  occ. eigenvalues --   -0.29567  -0.28924  -0.27495  -0.26702  -0.23933
 Alpha  occ. eigenvalues --   -0.20997
 Alpha virt. eigenvalues --   -0.05330  -0.03596   0.01373   0.03078   0.05154
 Alpha virt. eigenvalues --    0.05503   0.06319   0.06671   0.06817   0.07415
 Alpha virt. eigenvalues --    0.08232   0.10027   0.10421   0.10784   0.11265

 Mulliken charges:
               1
     1  Mg   0.800981
     2  C    0.139246
     3  C   -0.248114
     4  C   -0.190158
     5  C   -0.143847
     6  N   -0.667409
     7  C    0.250932
     8  C   -0.145592
     9  C   -0.172442
    10  C    0.458379
    11  C   -0.314600
    12  C   -0.184145
    13  C   -0.246071
    14  C    0.573109
    15  O   -0.480591
    16  O   -0.454558
    17  N   -0.723308
    18  C    0.342175
    19  C    0.018176
    20  C    0.104083
    21  C    0.347833
    22  C   -0.386026
    23  C   -0.164567
    24  C   -0.249704
    25  N   -0.686604
    26  C    0.279783
    27  C    0.001604
    28  C    0.032057
    29  C    0.263845
    30  C   -0.347407
    31  C   -0.224085
    32  C   -0.304666
    33  N   -0.729978
    34  C    0.270196
    35  C   -0.000681
    36  C    0.015196
    37  C    0.276893
    38  C   -0.389203
    39  C    0.373731
    40  O   -0.454778
    41  C   -0.348707
    42  C    0.610736
    43  O   -0.473883
    44  O   -0.438897
    45  C   -0.078735
    46  C    0.029039
    47  C   -0.121199
    48  C    0.074023
    49  C   -0.347950
    50  C   -0.228875
    51  C   -0.161155
    52  C   -0.085546
    53  C   -0.079169
    54  C   -0.329377
    55  C   -0.157503
    56  C   -0.182070
    57  C   -0.164177
    58  C   -0.065996
    59  C   -0.292333
    60  C   -0.180232
    61  C   -0.193780
    62  C   -0.163640
    63  C   -0.045118
    64  C   -0.287559
    65  C   -0.282181
    66  H    0.068035
    67  H    0.082857
    68  H    0.101736
    69  H    0.147806
    70  H    0.089061
    71  H    0.110060
    72  H    0.125364
    73  H    0.113110
    74  H    0.125883
    75  H    0.116951
    76  H    0.137206
    77  H    0.137908
    78  H    0.118432
    79  H    0.106414
    80  H    0.101743
    81  H    0.118964
    82  H    0.100315
    83  H    0.127368
    84  H    0.101258
    85  H    0.054631
    86  H    0.130007
    87  H    0.085817
    88  H    0.116114
    89  H    0.102010
    90  H    0.119242
    91  H    0.116048
    92  H    0.126281
    93  H    0.146809
    94  H    0.108853
    95  H    0.179427
    96  H    0.117122
    97  H    0.141973
    98  H    0.115530
    99  H    0.090358
   100  H    0.123367
   101  H    0.090167
   102  H    0.099986
   103  H    0.114871
   104  H    0.140366
   105  H    0.103624
   106  H    0.089940
   107  H    0.117083
   108  H    0.042540
   109  H    0.065718
   110  H    0.083709
   111  H    0.059287
   112  H    0.096772
   113  H    0.107853
   114  H    0.100466
   115  H    0.097202
   116  H    0.087605
   117  H    0.106463
   118  H    0.096028
   119  H    0.053253
   120  H    0.064970
   121  H    0.090019
   122  H    0.102587
   123  H    0.077394
   124  H    0.102643
   125  H    0.091092
   126  H    0.095667
   127  H    0.092630
   128  H    0.093721
   129  H    0.093873
   130  H    0.080260
   131  H    0.073167
   132  H    0.095605
   133  H    0.050778
   134  H    0.105280
   135  H    0.106801
   136  H    0.107172
   137  H    0.073948
 Sum of Mulliken charges =   0.00000

 Dipole moment (field-independent basis, Debye):
    X=              1.8315    Y=              4.6691    Z=              1.1739  Tot=              5.1510
 Quadrupole moment (field-independent basis, Debye-Ang):
   XX=           -374.0445   YY=           -392.8536   ZZ=           -399.3812
   XY=            -21.1518   XZ=              4.8031   YZ=             -3.0309

 Normal termination of Gaussian 09 at Fri Jun 28 21:55:23 2019.
