 Gaussian 09, Revision D.01,
 Gaussian 09:  ES64L-G09RevD.01 24-Apr-2013

 -------------------------------------
 # td=(NStates=1) CAM-B3LYP/6-31G(d,p)
 -------------------------------------

 --
 TD
 --
 Symbolic Z-matrix:
 Charge =  0 Multiplicity = 1

                         Standard orientation:
 ---------------------------------------------------------------------
 Center     Atomic      Atomic             Coordinates (Angstroms)
 Number     Number       Type             X           Y           Z
 ---------------------------------------------------------------------
      1         12           0       -7.151304    0.576342    0.164858
      2          6           0       -4.841543   -1.938833    0.462798
      3          6           0       -4.875873    2.727571    1.310029
      4          6           0       -9.554375    3.036701   -0.304434
      5          6           0       -9.611688   -1.789596   -1.044132
      6          7           0       -5.123830    0.368755    0.764032
      7          6           0       -4.319204   -0.779694    0.863555
      8          6           0       -2.956864   -0.375215    1.367618
      9          6           0       -3.107854    1.087165    1.889567
     10          6           0       -4.497035    1.490597    1.243423
     11          6           0       -3.025390    1.199769    3.274245
     12          6           0       -1.922381   -0.488096    0.035659
     13          6           0       -0.471953   -0.244270    0.548632
     14          6           0        0.570099   -0.464411   -0.406533
     15          8           0        0.335573   -0.927274   -1.550111
     16          8           0        1.853235   -0.373335    0.006761
     17          7           0       -7.145960    2.589584    0.368291
     18          6           0       -6.132470    3.331876    0.814122
     19          6           0       -6.511503    4.748573    0.908571
     20          6           0       -7.804235    4.860461    0.367433
     21          6           0       -8.243598    3.422687    0.104176
     22          6           0       -5.615288    5.858855    1.431306
     23          6           0       -8.570265    5.989432    0.146436
     24          6           0       -8.162294    7.179479   -0.251867
     25          7           0       -9.097212    0.641828   -0.561112
     26          6           0       -9.868817    1.774405   -0.679470
     27          6           0      -11.276157    1.478268   -1.057721
     28          6           0      -11.379445    0.066781   -1.217200
     29          6           0       -9.969731   -0.475501   -0.909226
     30          6           0      -12.383775    2.383725   -1.263429
     31          6           0      -12.482977   -0.799438   -1.716369
     32          6           0      -12.334594   -1.128886   -3.221071
     33          7           0       -7.302714   -1.346873   -0.212303
     34          6           0       -8.335370   -2.230104   -0.726570
     35          6           0       -7.869123   -3.532940   -0.726633
     36          6           0       -6.577842   -3.599155   -0.173433
     37          6           0       -6.280073   -2.120181    0.076088
     38          6           0       -8.619556   -4.743536   -1.078554
     39          6           0       -5.363883   -4.392666    0.089411
     40          8           0       -5.207764   -5.580963    0.060035
     41          6           0       -4.138667   -3.328159    0.409907
     42          6           0       -3.573525   -3.756316    1.800527
     43          8           0       -3.836136   -3.296373    2.898215
     44          8           0       -2.838027   -4.798815    1.676147
     45          6           0       -2.222410   -5.387818    2.769281
     46          6           0        2.845598   -0.611673   -1.027469
     47          6           0        4.156336   -0.343634   -0.227722
     48          6           0        5.230431    0.441101   -0.728883
     49          6           0        5.033693    1.451110   -1.921954
     50          6           0        6.438882    0.489666    0.050278
     51          6           0        7.677470   -0.014747   -0.808335
     52          6           0        9.041983   -0.077488    0.017271
     53          6           0       10.252090   -0.492358   -0.783673
     54          6           0       10.171328   -1.954779   -1.334593
     55          6           0       11.553279   -0.316775    0.079211
     56          6           0       12.879491   -0.443246   -0.685021
     57          6           0       14.047316   -0.081038    0.176472
     58          6           0       15.394768   -0.193591   -0.556345
     59          6           0       15.744064   -1.581627   -1.090578
     60          6           0       16.526817    0.354760    0.420938
     61          6           0       17.938936    0.484316   -0.283954
     62          6           0       18.991164    1.083108    0.698361
     63          6           0       20.392892    1.134690    0.116509
     64          6           0       20.339483    1.868432   -1.304103
     65          6           0       21.315596    1.889272    1.068510
     66          1           0       -4.256676    3.413182    1.911438
     67          1           0      -10.217523    3.946445   -0.354920
     68          1           0      -10.275314   -2.393360   -1.426382
     69          1           0       -2.432609   -1.248963    1.923625
     70          1           0       -2.353551    1.730563    1.439745
     71          1           0       -1.993110    1.162168    4.004297
     72          1           0       -3.191754    2.234960    3.343922
     73          1           0       -3.826595    0.484064    3.778370
     74          1           0       -2.001701   -1.537017   -0.431741
     75          1           0       -2.355614    0.188589   -0.730766
     76          1           0       -0.339209    0.868515    0.862730
     77          1           0       -0.204088   -0.692254    1.418248
     78          1           0       -4.933494    6.210700    0.581278
     79          1           0       -6.080909    6.836016    1.659582
     80          1           0       -4.945274    5.452363    2.157979
     81          1           0       -9.555598    5.768928    0.355749
     82          1           0       -8.939187    8.162595   -0.387326
     83          1           0       -7.205174    7.587255   -0.358954
     84          1           0      -12.124221    3.084688   -2.119920
     85          1           0      -13.246602    1.790694   -1.586870
     86          1           0      -12.599328    3.312982   -0.640085
     87          1           0      -12.411658   -1.804113   -1.283068
     88          1           0      -13.456328   -0.225155   -1.348547
     89          1           0      -13.313340   -1.542141   -3.571136
     90          1           0      -12.476796   -0.154187   -3.779378
     91          1           0      -11.424360   -1.733380   -3.694144
     92          1           0       -8.742063   -4.913225   -2.247319
     93          1           0       -7.955906   -5.617187   -0.799776
     94          1           0       -9.642696   -4.919437   -0.622604
     95          1           0       -3.520701   -3.321545   -0.473028
     96          1           0       -1.839167   -4.494384    3.424481
     97          1           0       -3.035510   -5.732830    3.264782
     98          1           0       -1.438463   -5.990578    2.477409
     99          1           0        2.644666   -1.658723   -1.366615
    100          1           0        2.636735    0.197641   -1.875998
    101          1           0        4.258047   -1.010051    0.559629
    102          1           0        4.056483    1.435861   -2.404467
    103          1           0        5.248392    2.566266   -1.651963
    104          1           0        5.909565    1.267845   -2.779492
    105          1           0        6.573796    1.648773    0.432520
    106          1           0        6.381915   -0.212356    0.978856
    107          1           0        7.449045   -0.963524   -1.259278
    108          1           0        7.764598    0.728838   -1.485648
    109          1           0        9.120870    0.838869    0.529204
    110          1           0        8.856468   -0.833444    0.722624
    111          1           0       10.221201    0.282555   -1.484249
    112          1           0        9.226347   -2.166559   -2.028301
    113          1           0       11.052325   -2.328410   -1.824052
    114          1           0        9.969435   -2.632453   -0.391722
    115          1           0       11.515087    0.702301    0.524863
    116          1           0       11.734960   -0.986011    0.888908
    117          1           0       12.915534   -1.425149   -1.019377
    118          1           0       12.780236    0.215198   -1.586814
    119          1           0       13.988933    1.013916    0.475108
    120          1           0       14.002070   -0.581191    1.111589
    121          1           0       15.319960    0.359835   -1.408178
    122          1           0       15.895208   -1.994138    0.048879
    123          1           0       15.189743   -2.142124   -1.755419
    124          1           0       16.666299   -1.618397   -1.586287
    125          1           0       16.195243    1.262258    0.692930
    126          1           0       16.452622   -0.101417    1.372170
    127          1           0       18.244183   -0.481231   -0.560794
    128          1           0       17.902725    1.173627   -1.313286
    129          1           0       18.605297    2.142387    0.582616
    130          1           0       18.940244    0.713397    1.664123
    131          1           0       20.882062    0.030754    0.164137
    132          1           0       19.819564    2.931254   -1.150306
    133          1           0       21.331188    2.187843   -1.709286
    134          1           0       19.915458    1.383631   -2.108751
    135          1           0       21.500098    1.365376    2.010658
    136          1           0       22.391843    2.034865    0.627993
    137          1           0       20.972948    2.979670    1.330405
 ---------------------------------------------------------------------

 SCF Done:  E(RCAM-B3LYP) =  -2932.68344330     A.U. after   16 cycles

 Excitation energies and oscillator strengths:

 Excited State   1:      Singlet-A      1.9247 eV  644.18 nm  f=0.3354  <S**2>=0.000
     240 -> 242       -0.10554
     240 -> 243       -0.17652
     241 -> 242        0.66935
 This state for optimization and/or second-order correction.
 Total Energy, E(TD-HF/TD-KS) =  -2932.61271217
 Copying the excited state density for this state as the 1-particle RhoCI density.

 The electronic state is 1-A.
 Alpha  occ. eigenvalues --  -46.83802 -19.25585 -19.25444 -19.20274 -19.19403
 Alpha  occ. eigenvalues --  -19.19114 -14.40527 -14.40504 -14.40287 -14.39723
 Alpha  occ. eigenvalues --  -10.38535 -10.38143 -10.35271 -10.32548 -10.31210
 Alpha  occ. eigenvalues --  -10.30663 -10.30047 -10.30025 -10.30017 -10.29771
 Alpha  occ. eigenvalues --  -10.29541 -10.29492 -10.28674 -10.28493 -10.28457
 Alpha  occ. eigenvalues --  -10.28435 -10.28287 -10.28133 -10.28007 -10.27942
 Alpha  occ. eigenvalues --  -10.27770 -10.27752 -10.27626 -10.27625 -10.27577
 Alpha  occ. eigenvalues --  -10.27501 -10.27374 -10.27350 -10.27234 -10.27207
 Alpha  occ. eigenvalues --  -10.27037 -10.26926 -10.26825 -10.26726 -10.26715
 Alpha  occ. eigenvalues --  -10.26584 -10.26453 -10.26444 -10.26413 -10.26393
 Alpha  occ. eigenvalues --  -10.25900 -10.25795 -10.25522 -10.25505 -10.25466
 Alpha  occ. eigenvalues --  -10.25388 -10.24829 -10.24779 -10.24477 -10.24472
 Alpha  occ. eigenvalues --  -10.24446 -10.24053 -10.23915 -10.23854 -10.23753
 Alpha  occ. eigenvalues --   -3.12973  -1.87666  -1.87219  -1.87163  -1.20522
 Alpha  occ. eigenvalues --   -1.16994  -1.11650  -1.08227  -1.06145  -1.03777
 Alpha  occ. eigenvalues --   -1.02972  -1.01802  -1.00291  -0.91212  -0.90820
 Alpha  occ. eigenvalues --   -0.90474  -0.90094  -0.89493  -0.89120  -0.88935
 Alpha  occ. eigenvalues --   -0.88394  -0.88055  -0.87810  -0.87547  -0.86574
 Alpha  occ. eigenvalues --   -0.84770  -0.84422  -0.84114  -0.83321  -0.82610
 Alpha  occ. eigenvalues --   -0.82260  -0.80811  -0.80068  -0.79029  -0.77812
 Alpha  occ. eigenvalues --   -0.77475  -0.76796  -0.75730  -0.75541  -0.75430
 Alpha  occ. eigenvalues --   -0.75361  -0.74958  -0.74219  -0.73284  -0.72575
 Alpha  occ. eigenvalues --   -0.70619  -0.70326  -0.69456  -0.68905  -0.68341
 Alpha  occ. eigenvalues --   -0.66883  -0.66707  -0.65266  -0.65133  -0.64214
 Alpha  occ. eigenvalues --   -0.64170  -0.63948  -0.63468  -0.62423  -0.61734
 Alpha  occ. eigenvalues --   -0.61705  -0.60307  -0.59861  -0.59687  -0.59263
 Alpha  occ. eigenvalues --   -0.58786  -0.58301  -0.58056  -0.57448  -0.57086
 Alpha  occ. eigenvalues --   -0.56562  -0.55864  -0.55453  -0.55052  -0.54991
 Alpha  occ. eigenvalues --   -0.54549  -0.54184  -0.53935  -0.53604  -0.53420
 Alpha  occ. eigenvalues --   -0.53064  -0.52684  -0.52414  -0.52155  -0.51978
 Alpha  occ. eigenvalues --   -0.51346  -0.51069  -0.50724  -0.50563  -0.50216
 Alpha  occ. eigenvalues --   -0.50172  -0.50061  -0.49933  -0.49882  -0.49588
 Alpha  occ. eigenvalues --   -0.49374  -0.49066  -0.48924  -0.48305  -0.48255
 Alpha  occ. eigenvalues --   -0.48135  -0.47961  -0.47584  -0.47282  -0.47085
 Alpha  occ. eigenvalues --   -0.46690  -0.46361  -0.46210  -0.46086  -0.45460
 Alpha  occ. eigenvalues --   -0.45364  -0.45240  -0.45090  -0.44875  -0.44576
 Alpha  occ. eigenvalues --   -0.44459  -0.44258  -0.44107  -0.43880  -0.43857
 Alpha  occ. eigenvalues --   -0.43748  -0.43552  -0.43280  -0.43180  -0.43081
 Alpha  occ. eigenvalues --   -0.42684  -0.42443  -0.42378  -0.42196  -0.42003
 Alpha  occ. eigenvalues --   -0.41776  -0.41651  -0.41389  -0.41278  -0.41200
 Alpha  occ. eigenvalues --   -0.40800  -0.40741  -0.40525  -0.40298  -0.39889
 Alpha  occ. eigenvalues --   -0.39757  -0.39710  -0.39270  -0.39237  -0.38998
 Alpha  occ. eigenvalues --   -0.38722  -0.38594  -0.38540  -0.38431  -0.38109
 Alpha  occ. eigenvalues --   -0.37754  -0.37703  -0.37656  -0.36790  -0.36351
 Alpha  occ. eigenvalues --   -0.36285  -0.36204  -0.35547  -0.35410  -0.35169
 Alpha  occ. eigenvalues --   -0.35022  -0.34933  -0.34713  -0.33225  -0.33067
 Alpha  occ. eigenvalues --   -0.32830  -0.32336  -0.31507  -0.31240  -0.29541
 Alpha  occ. eigenvalues --   -0.29256  -0.28456  -0.27865  -0.27324  -0.23254
 Alpha  occ. eigenvalues --   -0.21255
 Alpha virt. eigenvalues --   -0.07430  -0.02125   0.02340   0.03989   0.04391
 Alpha virt. eigenvalues --    0.06032   0.06207   0.06985   0.07194   0.07906
 Alpha virt. eigenvalues --    0.08166   0.10628   0.11219   0.11492   0.12013

 Mulliken charges:
               1
     1  Mg   0.811678
     2  C   -0.022391
     3  C   -0.200810
     4  C   -0.151044
     5  C   -0.110801
     6  N   -0.685064
     7  C    0.368584
     8  C   -0.173096
     9  C   -0.137427
    10  C    0.373949
    11  C   -0.265713
    12  C   -0.186222
    13  C   -0.259926
    14  C    0.606153
    15  O   -0.508570
    16  O   -0.483802
    17  N   -0.698140
    18  C    0.308423
    19  C    0.017192
    20  C    0.003238
    21  C    0.269969
    22  C   -0.372136
    23  C   -0.072733
    24  C   -0.239982
    25  N   -0.674120
    26  C    0.326521
    27  C    0.050406
    28  C    0.030506
    29  C    0.241050
    30  C   -0.396968
    31  C   -0.253136
    32  C   -0.312206
    33  N   -0.733524
    34  C    0.259166
    35  C    0.036775
    36  C   -0.009871
    37  C    0.330785
    38  C   -0.399351
    39  C    0.358540
    40  O   -0.445405
    41  C   -0.305930
    42  C    0.596818
    43  O   -0.498391
    44  O   -0.396759
    45  C   -0.077089
    46  C    0.017590
    47  C   -0.129662
    48  C    0.137434
    49  C   -0.351590
    50  C   -0.234789
    51  C   -0.191606
    52  C   -0.182736
    53  C   -0.045946
    54  C   -0.314090
    55  C   -0.185071
    56  C   -0.180164
    57  C   -0.175378
    58  C   -0.067611
    59  C   -0.296107
    60  C   -0.190316
    61  C   -0.184117
    62  C   -0.155981
    63  C   -0.041171
    64  C   -0.319232
    65  C   -0.299039
    66  H    0.077845
    67  H    0.096525
    68  H    0.077362
    69  H    0.113570
    70  H    0.106697
    71  H    0.082199
    72  H    0.103161
    73  H    0.115879
    74  H    0.118967
    75  H    0.123297
    76  H    0.124412
    77  H    0.149856
    78  H    0.116464
    79  H    0.126025
    80  H    0.121539
    81  H    0.098887
    82  H    0.074970
    83  H    0.112478
    84  H    0.116572
    85  H    0.112454
    86  H    0.117467
    87  H    0.117258
    88  H    0.103177
    89  H    0.106214
    90  H    0.105619
    91  H    0.117876
    92  H    0.105838
    93  H    0.145326
    94  H    0.119392
    95  H    0.163170
    96  H    0.107133
    97  H    0.143486
    98  H    0.132073
    99  H    0.137797
   100  H    0.110612
   101  H    0.099004
   102  H    0.121400
   103  H    0.110279
   104  H    0.094210
   105  H    0.078589
   106  H    0.094468
   107  H    0.106127
   108  H    0.106023
   109  H    0.095682
   110  H    0.091732
   111  H    0.090656
   112  H    0.087462
   113  H    0.116159
   114  H    0.089650
   115  H    0.078711
   116  H    0.091682
   117  H    0.104670
   118  H    0.080702
   119  H    0.081287
   120  H    0.088120
   121  H    0.088289
   122  H    0.067476
   123  H    0.103271
   124  H    0.104430
   125  H    0.099907
   126  H    0.092305
   127  H    0.104639
   128  H    0.073792
   129  H    0.089456
   130  H    0.096549
   131  H    0.068096
   132  H    0.085536
   133  H    0.095733
   134  H    0.120778
   135  H    0.102299
   136  H    0.084530
   137  H    0.085139
 Sum of Mulliken charges =   0.00000

 Dipole moment (field-independent basis, Debye):
    X=              0.7847    Y=              5.2987    Z=             -0.0200  Tot=              5.3566
 Quadrupole moment (field-independent basis, Debye-Ang):
   XX=           -330.2012   YY=           -387.1837   ZZ=           -399.2843
   XY=            -25.7906   XZ=             14.6392   YZ=             -0.1450

 Normal termination of Gaussian 09 at Thu Jun 27 08:55:09 2019.
