 Gaussian 09, Revision D.01,
 Gaussian 09:  ES64L-G09RevD.01 24-Apr-2013

 -------------------------------------
 # td=(NStates=1) CAM-B3LYP/6-31G(d,p)
 -------------------------------------

 --
 TD
 --
 Symbolic Z-matrix:
 Charge =  0 Multiplicity = 1

                         Standard orientation:
 ---------------------------------------------------------------------
 Center     Atomic      Atomic             Coordinates (Angstroms)
 Number     Number       Type             X           Y           Z
 ---------------------------------------------------------------------
      1         12           0       -7.215852    0.558956    0.246113
      2          6           0       -4.818699   -1.909510    0.490967
      3          6           0       -4.958572    2.867988    1.287891
      4          6           0       -9.427068    3.055090   -0.320077
      5          6           0       -9.550590   -1.754267   -0.851718
      6          7           0       -5.131236    0.512402    0.731982
      7          6           0       -4.392388   -0.664835    0.824004
      8          6           0       -2.913141   -0.410304    1.149022
      9          6           0       -3.017699    1.048168    1.723231
     10          6           0       -4.403474    1.525531    1.292343
     11          6           0       -2.977289    1.130390    3.302537
     12          6           0       -1.971746   -0.511294    0.084590
     13          6           0       -0.456805   -0.478945    0.540014
     14          6           0        0.515452   -0.609084   -0.567702
     15          8           0        0.375772   -0.977232   -1.679332
     16          8           0        1.770209   -0.430226   -0.105986
     17          7           0       -7.162647    2.590368    0.439343
     18          6           0       -6.123702    3.364192    0.790709
     19          6           0       -6.457184    4.705513    0.817293
     20          6           0       -7.762737    4.842468    0.522114
     21          6           0       -8.172537    3.490237    0.105583
     22          6           0       -5.473853    5.838576    1.406397
     23          6           0       -8.565590    6.085230    0.347994
     24          6           0       -8.232091    7.355421    0.082605
     25          7           0       -9.158067    0.558033   -0.484785
     26          6           0       -9.860337    1.755212   -0.743954
     27          6           0      -11.218151    1.420170   -1.203312
     28          6           0      -11.206756    0.076725   -1.408033
     29          6           0       -9.932989   -0.499838   -0.883209
     30          6           0      -12.268871    2.432557   -1.510978
     31          6           0      -12.377780   -0.791784   -1.921346
     32          6           0      -12.255623   -1.141304   -3.381978
     33          7           0       -7.214165   -1.422725   -0.127424
     34          6           0       -8.286423   -2.277217   -0.613944
     35          6           0       -7.868792   -3.613281   -0.486629
     36          6           0       -6.502037   -3.532571   -0.105704
     37          6           0       -6.187675   -2.169128    0.143511
     38          6           0       -8.530914   -4.847206   -0.895752
     39          6           0       -5.301467   -4.340701    0.189969
     40          8           0       -5.193851   -5.553466    0.246207
     41          6           0       -4.127027   -3.253589    0.598982
     42          6           0       -3.577207   -3.623076    1.962418
     43          8           0       -3.870800   -2.967760    2.930180
     44          8           0       -2.764611   -4.682565    1.852809
     45          6           0       -2.179672   -5.050670    3.109766
     46          6           0        2.762900   -0.649650   -1.152864
     47          6           0        4.112847   -0.461708   -0.520877
     48          6           0        5.178325    0.277991   -0.985945
     49          6           0        5.098146    1.123917   -2.234126
     50          6           0        6.467359    0.432033   -0.212784
     51          6           0        7.654766   -0.187187   -1.032435
     52          6           0        8.999844   -0.113760   -0.201785
     53          6           0       10.208981   -0.586795   -1.027379
     54          6           0       10.116151   -2.064352   -1.335654
     55          6           0       11.484768   -0.273823   -0.188472
     56          6           0       12.870356   -0.602359   -0.772619
     57          6           0       13.965856   -0.028173    0.220271
     58          6           0       15.266037   -0.102512   -0.500179
     59          6           0       15.594931   -1.453135   -0.974408
     60          6           0       16.439477    0.471517    0.448951
     61          6           0       17.816422    0.511591   -0.088453
     62          6           0       18.843020    1.181406    0.835649
     63          6           0       20.302022    1.271488    0.273377
     64          6           0       20.327180    2.095968   -1.051774
     65          6           0       21.231035    1.892688    1.296140
     66          1           0       -4.094277    3.570751    1.687837
     67          1           0      -10.052432    3.964074   -0.651522
     68          1           0      -10.282485   -2.591887   -1.006574
     69          1           0       -2.553257   -0.916924    1.910693
     70          1           0       -2.257578    1.756256    1.435872
     71          1           0       -2.036676    0.580567    3.749604
     72          1           0       -3.187969    2.286141    3.625573
     73          1           0       -3.672703    0.304653    3.547272
     74          1           0       -2.001334   -1.519188   -0.699859
     75          1           0       -1.983482    0.292324   -0.814517
     76          1           0       -0.107291    0.392927    1.091921
     77          1           0       -0.371378   -1.418809    1.205506
     78          1           0       -4.768139    6.166714    0.656578
     79          1           0       -6.221379    6.685798    1.737889
     80          1           0       -4.837667    5.510096    2.373989
     81          1           0       -9.621875    5.902204    0.266134
     82          1           0       -8.861266    8.190891   -0.207001
     83          1           0       -7.263742    7.528389   -0.171942
     84          1           0      -12.142226    2.897484   -2.362302
     85          1           0      -13.314097    2.032655   -1.623961
     86          1           0      -12.539268    3.183485   -0.612954
     87          1           0      -12.599239   -1.765943   -1.427300
     88          1           0      -13.209765   -0.030128   -1.942459
     89          1           0      -12.987328   -1.868366   -3.770947
     90          1           0      -12.257556   -0.308215   -4.068071
     91          1           0      -11.371607   -1.670472   -3.266777
     92          1           0       -8.746161   -4.676807   -1.988923
     93          1           0       -7.927341   -5.613549   -0.822038
     94          1           0       -9.551283   -5.110167   -0.500599
     95          1           0       -3.248376   -3.353437   -0.103889
     96          1           0       -1.327180   -4.330116    3.341126
     97          1           0       -3.029859   -5.040405    3.939587
     98          1           0       -1.878790   -6.254466    2.957573
     99          1           0        2.513270   -1.732928   -1.505398
    100          1           0        2.489280    0.080071   -2.034422
    101          1           0        4.354323   -1.062999    0.359173
    102          1           0        4.123867    1.409990   -2.432961
    103          1           0        5.626888    2.130875   -2.069833
    104          1           0        5.426703    0.671701   -3.221270
    105          1           0        6.528640    1.504005    0.064867
    106          1           0        6.314119   -0.070526    0.838232
    107          1           0        7.353764   -1.282651   -1.255155
    108          1           0        7.739049    0.523466   -1.915994
    109          1           0        9.063043    0.887397   -0.066474
    110          1           0        8.862230   -0.596560    0.727719
    111          1           0       10.135126    0.141864   -1.777055
    112          1           0        9.193482   -2.432580   -1.999515
    113          1           0       11.002095   -2.319970   -1.918364
    114          1           0        9.971333   -2.607474   -0.535374
    115          1           0       11.445407    0.839229    0.088415
    116          1           0       11.382885   -0.981947    0.779300
    117          1           0       12.878038   -1.626067   -1.043990
    118          1           0       12.887565   -0.078705   -1.595871
    119          1           0       13.726848    1.058464    0.235398
    120          1           0       13.969914   -0.450338    1.217642
    121          1           0       15.060273    0.409415   -1.519697
    122          1           0       15.237966   -2.208084   -0.259559
    123          1           0       15.047547   -1.972461   -1.852888
    124          1           0       16.728650   -1.540763   -1.219813
    125          1           0       16.185147    1.472578    0.743688
    126          1           0       16.340631   -0.196879    1.283864
    127          1           0       18.307103   -0.670285   -0.351143
    128          1           0       17.834513    0.916783   -1.124805
    129          1           0       18.598717    2.239640    0.905319
    130          1           0       18.792039    0.657583    1.759293
    131          1           0       20.767298    0.216162    0.099151
    132          1           0       19.986781    3.075938   -0.728013
    133          1           0       21.402278    2.067830   -1.399549
    134          1           0       19.802674    1.726984   -1.836793
    135          1           0       21.160208    1.272280    2.192893
    136          1           0       22.337964    1.762800    0.695529
    137          1           0       21.052692    3.005523    1.336318
 ---------------------------------------------------------------------

 SCF Done:  E(RCAM-B3LYP) =  -2932.73213954     A.U. after   18 cycles

 Excitation energies and oscillator strengths:

 Excited State   1:      Singlet-A      2.1076 eV  588.26 nm  f=0.2120  <S**2>=0.000
     240 -> 243        0.23895
     241 -> 242        0.65025
 This state for optimization and/or second-order correction.
 Total Energy, E(TD-HF/TD-KS) =  -2932.65468502
 Copying the excited state density for this state as the 1-particle RhoCI density.

 The electronic state is 1-A.
 Alpha  occ. eigenvalues --  -46.84245 -19.27194 -19.25014 -19.21025 -19.20678
 Alpha  occ. eigenvalues --  -19.19843 -14.42107 -14.39666 -14.39269 -14.38698
 Alpha  occ. eigenvalues --  -10.39109 -10.38267 -10.34910 -10.33989 -10.32598
 Alpha  occ. eigenvalues --  -10.32201 -10.30409 -10.30282 -10.30251 -10.29338
 Alpha  occ. eigenvalues --  -10.29054 -10.28429 -10.28400 -10.28308 -10.28260
 Alpha  occ. eigenvalues --  -10.28232 -10.28232 -10.28123 -10.28054 -10.27986
 Alpha  occ. eigenvalues --  -10.27819 -10.27638 -10.27575 -10.27565 -10.27351
 Alpha  occ. eigenvalues --  -10.27200 -10.26912 -10.26827 -10.26749 -10.26740
 Alpha  occ. eigenvalues --  -10.26690 -10.26676 -10.26583 -10.26559 -10.26469
 Alpha  occ. eigenvalues --  -10.26321 -10.26252 -10.26175 -10.26021 -10.25953
 Alpha  occ. eigenvalues --  -10.25947 -10.25747 -10.25694 -10.25184 -10.25007
 Alpha  occ. eigenvalues --  -10.24873 -10.24776 -10.24737 -10.24415 -10.24231
 Alpha  occ. eigenvalues --  -10.24225 -10.24009 -10.23747 -10.23633 -10.23507
 Alpha  occ. eigenvalues --   -3.13256  -1.87966  -1.87510  -1.87413  -1.19210
 Alpha  occ. eigenvalues --   -1.18958  -1.10350  -1.10077  -1.09277  -1.04899
 Alpha  occ. eigenvalues --   -1.03700  -1.02857  -1.01679  -0.91762  -0.91158
 Alpha  occ. eigenvalues --   -0.90995  -0.90354  -0.89336  -0.89289  -0.88677
 Alpha  occ. eigenvalues --   -0.88517  -0.88502  -0.87595  -0.87217  -0.86082
 Alpha  occ. eigenvalues --   -0.84824  -0.84430  -0.83801  -0.83260  -0.82747
 Alpha  occ. eigenvalues --   -0.81580  -0.80869  -0.80717  -0.79792  -0.78333
 Alpha  occ. eigenvalues --   -0.77705  -0.76962  -0.76408  -0.75787  -0.75728
 Alpha  occ. eigenvalues --   -0.75086  -0.74935  -0.74413  -0.72989  -0.72531
 Alpha  occ. eigenvalues --   -0.71348  -0.70297  -0.69362  -0.68473  -0.68163
 Alpha  occ. eigenvalues --   -0.66899  -0.65871  -0.65344  -0.64892  -0.64541
 Alpha  occ. eigenvalues --   -0.63498  -0.63435  -0.62011  -0.61667  -0.61532
 Alpha  occ. eigenvalues --   -0.61233  -0.60929  -0.60242  -0.60022  -0.58948
 Alpha  occ. eigenvalues --   -0.58560  -0.58128  -0.57658  -0.56891  -0.56766
 Alpha  occ. eigenvalues --   -0.56137  -0.55975  -0.55538  -0.55447  -0.54980
 Alpha  occ. eigenvalues --   -0.54770  -0.54499  -0.54132  -0.53733  -0.53245
 Alpha  occ. eigenvalues --   -0.52994  -0.52706  -0.52579  -0.52225  -0.51905
 Alpha  occ. eigenvalues --   -0.51625  -0.51282  -0.51204  -0.50936  -0.50603
 Alpha  occ. eigenvalues --   -0.50431  -0.50333  -0.50266  -0.50055  -0.49924
 Alpha  occ. eigenvalues --   -0.49371  -0.48850  -0.48656  -0.48522  -0.48099
 Alpha  occ. eigenvalues --   -0.47932  -0.47849  -0.47682  -0.47596  -0.46915
 Alpha  occ. eigenvalues --   -0.46812  -0.46600  -0.46502  -0.46439  -0.45887
 Alpha  occ. eigenvalues --   -0.45710  -0.45676  -0.45239  -0.45061  -0.44794
 Alpha  occ. eigenvalues --   -0.44700  -0.44669  -0.44383  -0.44237  -0.44097
 Alpha  occ. eigenvalues --   -0.43605  -0.43540  -0.43275  -0.43037  -0.42855
 Alpha  occ. eigenvalues --   -0.42744  -0.42510  -0.42249  -0.42200  -0.42084
 Alpha  occ. eigenvalues --   -0.42024  -0.41680  -0.41577  -0.41447  -0.41255
 Alpha  occ. eigenvalues --   -0.41155  -0.40992  -0.40916  -0.40759  -0.40360
 Alpha  occ. eigenvalues --   -0.40156  -0.40001  -0.39859  -0.39415  -0.39383
 Alpha  occ. eigenvalues --   -0.38848  -0.38610  -0.38507  -0.37925  -0.37776
 Alpha  occ. eigenvalues --   -0.37510  -0.37477  -0.37121  -0.36974  -0.36938
 Alpha  occ. eigenvalues --   -0.36509  -0.36363  -0.35952  -0.35700  -0.35685
 Alpha  occ. eigenvalues --   -0.35548  -0.35236  -0.34630  -0.33975  -0.33829
 Alpha  occ. eigenvalues --   -0.33180  -0.33035  -0.32454  -0.31097  -0.29285
 Alpha  occ. eigenvalues --   -0.29067  -0.28938  -0.28558  -0.28081  -0.23294
 Alpha  occ. eigenvalues --   -0.21658
 Alpha virt. eigenvalues --   -0.06627  -0.02847   0.01994   0.03782   0.05564
 Alpha virt. eigenvalues --    0.05679   0.06143   0.06558   0.07127   0.07231
 Alpha virt. eigenvalues --    0.08586   0.10438   0.11073   0.11646   0.11872

 Mulliken charges:
               1
     1  Mg   0.821102
     2  C    0.101964
     3  C   -0.252774
     4  C   -0.190722
     5  C   -0.175366
     6  N   -0.629699
     7  C    0.281630
     8  C   -0.098025
     9  C   -0.178497
    10  C    0.356150
    11  C   -0.311721
    12  C   -0.169263
    13  C   -0.265898
    14  C    0.601761
    15  O   -0.461217
    16  O   -0.487603
    17  N   -0.695862
    18  C    0.397380
    19  C   -0.011716
    20  C    0.029478
    21  C    0.270836
    22  C   -0.354428
    23  C   -0.076823
    24  C   -0.243296
    25  N   -0.686315
    26  C    0.262274
    27  C    0.041686
    28  C    0.016116
    29  C    0.338309
    30  C   -0.385490
    31  C   -0.250872
    32  C   -0.300542
    33  N   -0.746187
    34  C    0.231551
    35  C    0.034685
    36  C   -0.032167
    37  C    0.333864
    38  C   -0.376496
    39  C    0.362842
    40  O   -0.463693
    41  C   -0.338232
    42  C    0.633862
    43  O   -0.474042
    44  O   -0.432327
    45  C   -0.088766
    46  C    0.016585
    47  C   -0.127776
    48  C    0.116496
    49  C   -0.366386
    50  C   -0.233596
    51  C   -0.183614
    52  C   -0.171063
    53  C   -0.058495
    54  C   -0.302625
    55  C   -0.171937
    56  C   -0.182018
    57  C   -0.172772
    58  C   -0.061863
    59  C   -0.307171
    60  C   -0.164978
    61  C   -0.167137
    62  C   -0.155124
    63  C   -0.076969
    64  C   -0.302167
    65  C   -0.275386
    66  H    0.068358
    67  H    0.086452
    68  H    0.097767
    69  H    0.112363
    70  H    0.110934
    71  H    0.099172
    72  H    0.108369
    73  H    0.138540
    74  H    0.101294
    75  H    0.100727
    76  H    0.137681
    77  H    0.134172
    78  H    0.131542
    79  H    0.115144
    80  H    0.105019
    81  H    0.088340
    82  H    0.115625
    83  H    0.107111
    84  H    0.143873
    85  H    0.111771
    86  H    0.103522
    87  H    0.109692
    88  H    0.094202
    89  H    0.097258
    90  H    0.108273
    91  H    0.111666
    92  H    0.121700
    93  H    0.152228
    94  H    0.114006
    95  H    0.148690
    96  H    0.125442
    97  H    0.136686
    98  H    0.116115
    99  H    0.124939
   100  H    0.116187
   101  H    0.088937
   102  H    0.121232
   103  H    0.096718
   104  H    0.120998
   105  H    0.104424
   106  H    0.080074
   107  H    0.099103
   108  H    0.096294
   109  H    0.096023
   110  H    0.092474
   111  H    0.084390
   112  H    0.079106
   113  H    0.102329
   114  H    0.119562
   115  H    0.074170
   116  H    0.058731
   117  H    0.102695
   118  H    0.104922
   119  H    0.092866
   120  H    0.095809
   121  H    0.072481
   122  H    0.091298
   123  H    0.088923
   124  H    0.093439
   125  H    0.096506
   126  H    0.098251
   127  H    0.040019
   128  H    0.095303
   129  H    0.084719
   130  H    0.094965
   131  H    0.070338
   132  H    0.098880
   133  H    0.091318
   134  H    0.116085
   135  H    0.109580
   136  H    0.064318
   137  H    0.098409
 Sum of Mulliken charges =   0.00000

 Dipole moment (field-independent basis, Debye):
    X=              1.1966    Y=              5.1336    Z=              0.3337  Tot=              5.2817
 Quadrupole moment (field-independent basis, Debye-Ang):
   XX=           -356.9263   YY=           -389.6594   ZZ=           -397.7199
   XY=            -21.8089   XZ=             13.7241   YZ=             -7.4960

 Normal termination of Gaussian 09 at Mon Jul  1 09:32:20 2019.
