 Gaussian 09, Revision D.01,
 Gaussian 09:  ES64L-G09RevD.01 24-Apr-2013

 -------------------------------------
 # td=(NStates=1) CAM-B3LYP/6-31G(d,p)
 -------------------------------------

 --
 TD
 --
 Symbolic Z-matrix:
 Charge =  0 Multiplicity = 1

                         Standard orientation:
 ---------------------------------------------------------------------
 Center     Atomic      Atomic             Coordinates (Angstroms)
 Number     Number       Type             X           Y           Z
 ---------------------------------------------------------------------
      1         12           0       -7.167001    0.646339    0.086268
      2          6           0       -4.882455   -1.932017    0.537738
      3          6           0       -4.963402    2.803842    1.226988
      4          6           0       -9.489535    3.082832   -0.333114
      5          6           0       -9.467568   -1.775836   -0.823839
      6          7           0       -5.151472    0.424760    0.827521
      7          6           0       -4.328930   -0.736963    0.841708
      8          6           0       -2.957959   -0.335286    1.297514
      9          6           0       -3.176521    1.157713    1.713173
     10          6           0       -4.477866    1.524756    1.133538
     11          6           0       -2.939895    1.484738    3.152440
     12          6           0       -1.925151   -0.546794    0.090838
     13          6           0       -0.540185   -0.414245    0.591809
     14          6           0        0.446605   -0.686059   -0.583238
     15          8           0        0.283957   -1.075534   -1.696924
     16          8           0        1.817651   -0.422411   -0.142426
     17          7           0       -7.172584    2.614952    0.387184
     18          6           0       -6.147438    3.354968    0.939358
     19          6           0       -6.450013    4.768105    0.882246
     20          6           0       -7.778407    4.763509    0.300439
     21          6           0       -8.214719    3.379448    0.147853
     22          6           0       -5.602891    5.912464    1.130667
     23          6           0       -8.702831    6.048676    0.208074
     24          6           0       -8.142957    7.199359   -0.124732
     25          7           0       -9.079350    0.613013   -0.480915
     26          6           0       -9.884033    1.743613   -0.642266
     27          6           0      -11.154514    1.355905   -1.236572
     28          6           0      -11.199065    0.003852   -1.281604
     29          6           0       -9.903817   -0.392224   -0.859605
     30          6           0      -12.252909    2.370940   -1.401556
     31          6           0      -12.306937   -0.769292   -1.741859
     32          6           0      -12.242886   -1.353121   -3.138592
     33          7           0       -7.193310   -1.392506   -0.193446
     34          6           0       -8.255289   -2.223112   -0.502806
     35          6           0       -7.797371   -3.629549   -0.423396
     36          6           0       -6.468284   -3.571577   -0.132537
     37          6           0       -6.170142   -2.194009    0.108797
     38          6           0       -8.571907   -4.738273   -0.708880
     39          6           0       -5.250486   -4.271506    0.249251
     40          8           0       -5.101877   -5.507525    0.328669
     41          6           0       -4.158884   -3.213569    0.606489
     42          6           0       -3.439193   -3.559046    1.847950
     43          8           0       -3.745574   -2.993418    2.908168
     44          8           0       -2.478590   -4.441295    1.682063
     45          6           0       -1.843130   -4.913631    2.862197
     46          6           0        2.856838   -0.805152   -1.106021
     47          6           0        4.128138   -0.685785   -0.540411
     48          6           0        5.054953    0.175406   -0.890808
     49          6           0        5.033795    0.879495   -2.339224
     50          6           0        6.356063    0.407865   -0.229915
     51          6           0        7.628356   -0.178832   -0.885070
     52          6           0        8.909810   -0.035516   -0.122343
     53          6           0       10.157847   -0.679486   -0.855489
     54          6           0        9.993422   -2.193845   -1.147600
     55          6           0       11.420123   -0.461928    0.077484
     56          6           0       12.781666   -0.592538   -0.725487
     57          6           0       13.988178   -0.248648    0.030524
     58          6           0       15.365121   -0.316904   -0.609929
     59          6           0       15.764169   -1.691109   -0.886819
     60          6           0       16.412042    0.434685    0.378293
     61          6           0       17.739559    0.711009   -0.308618
     62          6           0       18.662449    1.380581    0.671178
     63          6           0       20.228334    1.517612    0.182612
     64          6           0       20.379965    2.335947   -1.074441
     65          6           0       21.055336    2.081341    1.435609
     66          1           0       -4.244261    3.418875    1.828838
     67          1           0      -10.167224    4.085218   -0.760612
     68          1           0      -10.164584   -2.594114   -1.307020
     69          1           0       -2.512985   -0.959645    2.082676
     70          1           0       -2.487780    1.812172    1.264448
     71          1           0       -1.817526    1.324656    3.421683
     72          1           0       -3.143635    2.548850    3.215167
     73          1           0       -3.620786    0.653923    3.645069
     74          1           0       -1.936170   -1.639259   -0.548634
     75          1           0       -2.079262    0.137092   -0.679831
     76          1           0       -0.657637    0.637684    1.030431
     77          1           0       -0.302462   -1.405707    1.381081
     78          1           0       -4.984311    5.993643    0.227932
     79          1           0       -6.032036    6.935319    1.374055
     80          1           0       -5.167223    5.560129    1.978667
     81          1           0       -9.851964    6.006349    0.232253
     82          1           0       -8.741034    8.222503    0.182676
     83          1           0       -7.063927    7.246968   -0.483298
     84          1           0      -12.108552    2.926976   -2.342768
     85          1           0      -13.410135    1.769848   -1.434425
     86          1           0      -12.511530    3.262326   -0.743037
     87          1           0      -12.532610   -1.500265   -0.970332
     88          1           0      -13.170089   -0.116615   -1.588908
     89          1           0      -13.095575   -2.110901   -3.301918
     90          1           0      -12.216731   -0.687091   -3.844068
     91          1           0      -11.365026   -1.940169   -3.211243
     92          1           0       -8.893044   -4.802505   -1.822036
     93          1           0       -7.988065   -5.670307   -0.551701
     94          1           0       -9.497289   -4.686480   -0.168714
     95          1           0       -3.506427   -3.338791   -0.283652
     96          1           0       -0.952858   -4.151394    2.953850
     97          1           0       -2.590247   -5.150884    3.581326
     98          1           0       -1.470197   -6.065941    2.560266
     99          1           0        2.559890   -1.798367   -1.390427
    100          1           0        2.544767   -0.225371   -1.985785
    101          1           0        4.503521   -1.178441    0.367931
    102          1           0        4.123954    1.050088   -3.012994
    103          1           0        5.437245    1.781691   -2.233724
    104          1           0        5.808657    0.185949   -3.027595
    105          1           0        6.569363    1.461692   -0.212771
    106          1           0        6.258644    0.032692    0.854958
    107          1           0        7.457356   -1.026980   -1.189013
    108          1           0        7.790904    0.324466   -1.823660
    109          1           0        9.046021    0.987351   -0.097994
    110          1           0        8.710144   -0.554909    0.842640
    111          1           0       10.302079   -0.013955   -1.797008
    112          1           0        9.285485   -2.379359   -1.991960
    113          1           0       11.037179   -2.530094   -1.597178
    114          1           0        9.482052   -2.853675   -0.292227
    115          1           0       11.241513    0.597247    0.738270
    116          1           0       11.377940   -1.292648    0.808374
    117          1           0       12.945464   -1.685750   -0.729627
    118          1           0       12.625010    0.024176   -1.576605
    119          1           0       14.026788    0.856480    0.625885
    120          1           0       13.973702   -0.755906    1.009275
    121          1           0       15.320152    0.513602   -1.498260
    122          1           0       16.049299   -2.008760    0.158861
    123          1           0       14.849788   -2.374641   -1.327635
    124          1           0       16.632324   -1.729460   -1.493588
    125          1           0       16.124241    1.368527    0.657544
    126          1           0       16.565564   -0.125982    1.391364
    127          1           0       18.151774   -0.366752   -0.739630
    128          1           0       17.417527    1.335900   -1.219268
    129          1           0       18.237327    2.336190    0.882676
    130          1           0       18.710106    0.852828    1.558694
    131          1           0       20.401244    0.514346    0.049168
    132          1           0       20.164503    3.303100   -0.969599
    133          1           0       21.347147    2.380732   -1.536405
    134          1           0       19.763461    1.993436   -1.980264
    135          1           0       20.877136    1.662005    2.445165
    136          1           0       22.190022    2.054782    1.236374
    137          1           0       20.699150    3.108321    1.795847
 ---------------------------------------------------------------------

 SCF Done:  E(RCAM-B3LYP) =  -2932.60036717     A.U. after   16 cycles

 Excitation energies and oscillator strengths:

 Excited State   1:      Singlet-A      2.0268 eV  611.72 nm  f=0.2162  <S**2>=0.000
     240 -> 243       -0.24389
     241 -> 242        0.65181
 This state for optimization and/or second-order correction.
 Total Energy, E(TD-HF/TD-KS) =  -2932.52588267
 Copying the excited state density for this state as the 1-particle RhoCI density.

 The electronic state is 1-A.
 Alpha  occ. eigenvalues --  -46.83651 -19.27483 -19.23198 -19.22995 -19.20355
 Alpha  occ. eigenvalues --  -19.20285 -14.41345 -14.39419 -14.39181 -14.38812
 Alpha  occ. eigenvalues --  -10.40238 -10.39454 -10.35514 -10.33849 -10.30779
 Alpha  occ. eigenvalues --  -10.30635 -10.30083 -10.29729 -10.29601 -10.28787
 Alpha  occ. eigenvalues --  -10.28682 -10.28643 -10.28621 -10.28562 -10.28446
 Alpha  occ. eigenvalues --  -10.28410 -10.28116 -10.28091 -10.27913 -10.27882
 Alpha  occ. eigenvalues --  -10.27809 -10.27706 -10.27539 -10.27455 -10.27438
 Alpha  occ. eigenvalues --  -10.27349 -10.27093 -10.27011 -10.26981 -10.26908
 Alpha  occ. eigenvalues --  -10.26883 -10.26870 -10.26399 -10.26334 -10.26236
 Alpha  occ. eigenvalues --  -10.26227 -10.26202 -10.25857 -10.25840 -10.25794
 Alpha  occ. eigenvalues --  -10.25508 -10.25449 -10.25327 -10.25258 -10.25233
 Alpha  occ. eigenvalues --  -10.25220 -10.25160 -10.25004 -10.24798 -10.24703
 Alpha  occ. eigenvalues --  -10.24643 -10.24230 -10.24107 -10.23462 -10.22980
 Alpha  occ. eigenvalues --   -3.12850  -1.87550  -1.87095  -1.87034  -1.19835
 Alpha  occ. eigenvalues --   -1.16789  -1.09538  -1.08677  -1.07529  -1.04939
 Alpha  occ. eigenvalues --   -1.04185  -1.03654  -1.02670  -0.94033  -0.91606
 Alpha  occ. eigenvalues --   -0.90787  -0.90672  -0.90103  -0.89542  -0.89130
 Alpha  occ. eigenvalues --   -0.89034  -0.88262  -0.87927  -0.87578  -0.86619
 Alpha  occ. eigenvalues --   -0.85601  -0.84634  -0.84037  -0.83536  -0.82924
 Alpha  occ. eigenvalues --   -0.81974  -0.81664  -0.81516  -0.79866  -0.78736
 Alpha  occ. eigenvalues --   -0.77934  -0.76880  -0.76799  -0.76113  -0.75723
 Alpha  occ. eigenvalues --   -0.74939  -0.74648  -0.73953  -0.73236  -0.72608
 Alpha  occ. eigenvalues --   -0.72236  -0.71103  -0.70155  -0.68686  -0.68072
 Alpha  occ. eigenvalues --   -0.67040  -0.66036  -0.65069  -0.64890  -0.64378
 Alpha  occ. eigenvalues --   -0.63955  -0.63542  -0.62291  -0.62139  -0.61798
 Alpha  occ. eigenvalues --   -0.61195  -0.60472  -0.60340  -0.59996  -0.59251
 Alpha  occ. eigenvalues --   -0.58747  -0.58104  -0.57978  -0.57737  -0.57032
 Alpha  occ. eigenvalues --   -0.56600  -0.56192  -0.55776  -0.55320  -0.54947
 Alpha  occ. eigenvalues --   -0.54641  -0.54465  -0.54196  -0.53969  -0.53734
 Alpha  occ. eigenvalues --   -0.53408  -0.52930  -0.52287  -0.52049  -0.52030
 Alpha  occ. eigenvalues --   -0.51891  -0.51767  -0.51428  -0.51290  -0.50684
 Alpha  occ. eigenvalues --   -0.50425  -0.50061  -0.50034  -0.49412  -0.49176
 Alpha  occ. eigenvalues --   -0.48972  -0.48925  -0.48860  -0.48600  -0.48435
 Alpha  occ. eigenvalues --   -0.47876  -0.47739  -0.47544  -0.47461  -0.47046
 Alpha  occ. eigenvalues --   -0.46770  -0.46415  -0.46363  -0.46243  -0.45789
 Alpha  occ. eigenvalues --   -0.45767  -0.45555  -0.45515  -0.45315  -0.44701
 Alpha  occ. eigenvalues --   -0.44603  -0.44497  -0.44414  -0.44278  -0.44203
 Alpha  occ. eigenvalues --   -0.44035  -0.43793  -0.43634  -0.43394  -0.43211
 Alpha  occ. eigenvalues --   -0.42962  -0.42613  -0.42520  -0.42343  -0.42244
 Alpha  occ. eigenvalues --   -0.42140  -0.41982  -0.41812  -0.41589  -0.41208
 Alpha  occ. eigenvalues --   -0.40831  -0.40762  -0.40632  -0.40537  -0.40495
 Alpha  occ. eigenvalues --   -0.40103  -0.39904  -0.39552  -0.39225  -0.39036
 Alpha  occ. eigenvalues --   -0.38848  -0.38809  -0.38158  -0.38127  -0.38020
 Alpha  occ. eigenvalues --   -0.37999  -0.37392  -0.37145  -0.36984  -0.36599
 Alpha  occ. eigenvalues --   -0.36291  -0.36232  -0.36042  -0.36011  -0.35400
 Alpha  occ. eigenvalues --   -0.34523  -0.34100  -0.34030  -0.33938  -0.33498
 Alpha  occ. eigenvalues --   -0.33220  -0.32896  -0.32683  -0.30922  -0.30273
 Alpha  occ. eigenvalues --   -0.29817  -0.29651  -0.28662  -0.26973  -0.23596
 Alpha  occ. eigenvalues --   -0.20546
 Alpha virt. eigenvalues --   -0.05953  -0.03593   0.01353   0.04412   0.04768
 Alpha virt. eigenvalues --    0.05538   0.05855   0.06024   0.06866   0.07148
 Alpha virt. eigenvalues --    0.08398   0.08883   0.10243   0.10895   0.11330

 Mulliken charges:
               1
     1  Mg   0.813507
     2  C    0.097157
     3  C   -0.233100
     4  C   -0.173608
     5  C   -0.211146
     6  N   -0.646173
     7  C    0.309813
     8  C   -0.174912
     9  C   -0.174570
    10  C    0.394235
    11  C   -0.281895
    12  C   -0.179617
    13  C   -0.232585
    14  C    0.601850
    15  O   -0.433884
    16  O   -0.541001
    17  N   -0.738905
    18  C    0.336804
    19  C    0.017284
    20  C   -0.071564
    21  C    0.359036
    22  C   -0.365696
    23  C   -0.058850
    24  C   -0.247317
    25  N   -0.690586
    26  C    0.264946
    27  C    0.025954
    28  C    0.070132
    29  C    0.272502
    30  C   -0.375581
    31  C   -0.251279
    32  C   -0.297705
    33  N   -0.725577
    34  C    0.325493
    35  C    0.036872
    36  C    0.062938
    37  C    0.273114
    38  C   -0.415291
    39  C    0.344342
    40  O   -0.484750
    41  C   -0.321656
    42  C    0.635344
    43  O   -0.504273
    44  O   -0.432355
    45  C   -0.081183
    46  C    0.031507
    47  C   -0.102405
    48  C    0.114075
    49  C   -0.353148
    50  C   -0.237630
    51  C   -0.168168
    52  C   -0.167576
    53  C   -0.055853
    54  C   -0.313969
    55  C   -0.172119
    56  C   -0.163479
    57  C   -0.168934
    58  C   -0.041289
    59  C   -0.291112
    60  C   -0.181111
    61  C   -0.168225
    62  C   -0.185138
    63  C   -0.044351
    64  C   -0.316205
    65  C   -0.326081
    66  H    0.066972
    67  H    0.097570
    68  H    0.092722
    69  H    0.126717
    70  H    0.105902
    71  H    0.101675
    72  H    0.112042
    73  H    0.122913
    74  H    0.091879
    75  H    0.128465
    76  H    0.139018
    77  H    0.112367
    78  H    0.132435
    79  H    0.125116
    80  H    0.122385
    81  H    0.100602
    82  H    0.086128
    83  H    0.107962
    84  H    0.122000
    85  H    0.070616
    86  H    0.122718
    87  H    0.106389
    88  H    0.096332
    89  H    0.092094
    90  H    0.125121
    91  H    0.108544
    92  H    0.120304
    93  H    0.148678
    94  H    0.132482
    95  H    0.168101
    96  H    0.127033
    97  H    0.159881
    98  H    0.108673
    99  H    0.111855
   100  H    0.119554
   101  H    0.080583
   102  H    0.108997
   103  H    0.120738
   104  H    0.090926
   105  H    0.107076
   106  H    0.085743
   107  H    0.099702
   108  H    0.085782
   109  H    0.099931
   110  H    0.086491
   111  H    0.074415
   112  H    0.104578
   113  H    0.097868
   114  H    0.098235
   115  H    0.060984
   116  H    0.093266
   117  H    0.109675
   118  H    0.101497
   119  H    0.039309
   120  H    0.085218
   121  H    0.056906
   122  H    0.104037
   123  H    0.082005
   124  H    0.114922
   125  H    0.104629
   126  H    0.069985
   127  H    0.056633
   128  H    0.088451
   129  H    0.093491
   130  H    0.101164
   131  H    0.102319
   132  H    0.116005
   133  H    0.100481
   134  H    0.092345
   135  H    0.100333
   136  H    0.095280
   137  H    0.091700
 Sum of Mulliken charges =   0.00000

 Dipole moment (field-independent basis, Debye):
    X=              1.9883    Y=              3.1345    Z=             -0.2477  Tot=              3.7202
 Quadrupole moment (field-independent basis, Debye-Ang):
   XX=           -361.2946   YY=           -391.0469   ZZ=           -399.1127
   XY=            -13.3912   XZ=             14.1147   YZ=             -1.3826

 Normal termination of Gaussian 09 at Sat Jun 29 23:57:57 2019.
