 Gaussian 09, Revision D.01,
 Gaussian 09:  ES64L-G09RevD.01 24-Apr-2013

 -------------------------------------
 # td=(NStates=1) CAM-B3LYP/6-31G(d,p)
 -------------------------------------

 --
 TD
 --
 Symbolic Z-matrix:
 Charge =  0 Multiplicity = 1

                         Standard orientation:
 ---------------------------------------------------------------------
 Center     Atomic      Atomic             Coordinates (Angstroms)
 Number     Number       Type             X           Y           Z
 ---------------------------------------------------------------------
      1         12           0       -7.222788    0.601884    0.122664
      2          6           0       -4.855554   -1.916244    0.501630
      3          6           0       -4.789361    2.896367    1.181560
      4          6           0       -9.432566    3.077599   -0.473809
      5          6           0       -9.494275   -1.792413   -0.832909
      6          7           0       -5.100819    0.454813    0.737002
      7          6           0       -4.380918   -0.703007    0.784056
      8          6           0       -3.041192   -0.321349    1.257388
      9          6           0       -3.090628    1.076578    1.724061
     10          6           0       -4.365404    1.534766    1.131764
     11          6           0       -3.042571    1.193184    3.271091
     12          6           0       -2.002009   -0.613559    0.102396
     13          6           0       -0.558187   -0.455933    0.537737
     14          6           0        0.443559   -0.509272   -0.537133
     15          8           0        0.163640   -0.774376   -1.690698
     16          8           0        1.766018   -0.390136   -0.142263
     17          7           0       -7.127245    2.675405    0.377147
     18          6           0       -6.079188    3.401088    0.828306
     19          6           0       -6.463126    4.727998    0.980700
     20          6           0       -7.775024    4.848333    0.501197
     21          6           0       -8.272053    3.447750    0.159962
     22          6           0       -5.642791    5.841738    1.291077
     23          6           0       -8.665803    5.832831    0.308868
     24          6           0       -8.401334    7.195809    0.102665
     25          7           0       -9.085623    0.611376   -0.475095
     26          6           0       -9.903705    1.716399   -0.677740
     27          6           0      -11.213141    1.401765   -1.168329
     28          6           0      -11.320318   -0.015088   -1.261539
     29          6           0       -9.917949   -0.447313   -0.855932
     30          6           0      -12.257968    2.397644   -1.384743
     31          6           0      -12.368543   -0.834436   -1.744595
     32          6           0      -12.284258   -1.316322   -3.177745
     33          7           0       -7.146638   -1.293973   -0.296798
     34          6           0       -8.212088   -2.281470   -0.677652
     35          6           0       -7.751175   -3.597484   -0.532440
     36          6           0       -6.472842   -3.592934   -0.068187
     37          6           0       -6.137647   -2.126529    0.051385
     38          6           0       -8.628633   -4.706623   -0.786169
     39          6           0       -5.257887   -4.364107    0.189789
     40          8           0       -5.123497   -5.563119    0.322405
     41          6           0       -4.137523   -3.319365    0.509849
     42          6           0       -3.415465   -3.635423    1.875204
     43          8           0       -3.703651   -3.088409    2.929465
     44          8           0       -2.533809   -4.694758    1.628846
     45          6           0       -1.923982   -5.248543    2.827878
     46          6           0        2.764184   -0.603915   -1.117035
     47          6           0        4.092164   -0.312989   -0.445058
     48          6           0        5.178483    0.320997   -0.989776
     49          6           0        5.030411    1.122957   -2.203796
     50          6           0        6.440754    0.380059   -0.171789
     51          6           0        7.646798   -0.095110   -1.028442
     52          6           0        8.912209   -0.156392   -0.146834
     53          6           0       10.193534   -0.566645   -0.786194
     54          6           0       10.115182   -1.933920   -1.503330
     55          6           0       11.464608   -0.287880    0.050426
     56          6           0       12.760747   -0.468424   -0.709423
     57          6           0       13.944837   -0.084611    0.208369
     58          6           0       15.328865   -0.222144   -0.419293
     59          6           0       15.622467   -1.690783   -0.705130
     60          6           0       16.465865    0.434924    0.400527
     61          6           0       17.790632    0.510451   -0.193135
     62          6           0       18.824369    1.185368    0.697057
     63          6           0       20.321813    1.323478    0.194455
     64          6           0       20.416507    2.075541   -1.183557
     65          6           0       21.209663    1.990361    1.205755
     66          1           0       -3.944558    3.531932    1.413405
     67          1           0      -10.045903    3.785413   -0.888832
     68          1           0      -10.180452   -2.473507   -1.220126
     69          1           0       -2.831272   -0.890173    2.003305
     70          1           0       -2.209955    1.731256    1.255184
     71          1           0       -2.127375    0.897025    3.603936
     72          1           0       -3.108959    2.295540    3.462673
     73          1           0       -3.683606    0.527157    3.813781
     74          1           0       -2.071482   -1.661783   -0.209559
     75          1           0       -2.163219    0.084806   -0.876318
     76          1           0       -0.292442    0.681208    0.838366
     77          1           0       -0.160991   -1.024354    1.331993
     78          1           0       -5.180705    6.319130    0.577782
     79          1           0       -6.177700    6.548166    1.834433
     80          1           0       -4.780663    5.650942    1.991732
     81          1           0       -9.727318    5.580979    0.685524
     82          1           0       -9.023357    8.078081   -0.079378
     83          1           0       -7.385145    7.435097   -0.212779
     84          1           0      -12.089776    2.980890   -2.260553
     85          1           0      -13.358305    2.035473   -1.781269
     86          1           0      -12.401553    3.152372   -0.475483
     87          1           0      -12.482857   -1.600278   -1.085386
     88          1           0      -13.286399   -0.302736   -1.502158
     89          1           0      -13.280356   -2.002996   -3.377671
     90          1           0      -12.426635   -0.386500   -3.807344
     91          1           0      -11.460768   -2.071354   -3.423320
     92          1           0       -8.872733   -4.615047   -1.926573
     93          1           0       -8.145918   -5.790859   -0.521917
     94          1           0       -9.737937   -4.718819   -0.289076
     95          1           0       -3.507887   -3.416558   -0.290507
     96          1           0       -1.065661   -4.444843    3.255129
     97          1           0       -2.746177   -5.562629    3.610973
     98          1           0       -1.367473   -6.123264    2.611087
     99          1           0        2.574603   -1.557656   -1.564188
    100          1           0        2.631106    0.183387   -1.906655
    101          1           0        4.275714   -0.721167    0.392363
    102          1           0        3.920315    1.409484   -2.386062
    103          1           0        5.536295    2.031557   -2.033877
    104          1           0        5.629660    0.736652   -3.017452
    105          1           0        6.548908    1.456099    0.206034
    106          1           0        6.303349   -0.224137    0.759259
    107          1           0        7.304892   -1.041396   -1.372110
    108          1           0        8.013060    0.388699   -1.891236
    109          1           0        9.232956    0.899873    0.228532
    110          1           0        8.837618   -0.734631    0.780421
    111          1           0       10.418256    0.385994   -1.593508
    112          1           0        9.180544   -2.124938   -2.071908
    113          1           0       10.838834   -1.990931   -2.276861
    114          1           0       10.345204   -2.591503   -0.632866
    115          1           0       11.249674    0.635141    0.253055
    116          1           0       11.482916   -0.999831    0.946191
    117          1           0       12.928765   -1.500326   -0.972496
    118          1           0       12.788753    0.144684   -1.562053
    119          1           0       13.787399    0.993966    0.668562
    120          1           0       13.639012   -0.673560    1.135355
    121          1           0       15.113867    0.332334   -1.412700
    122          1           0       15.633325   -2.156937    0.154248
    123          1           0       14.739881   -2.016207   -1.628172
    124          1           0       16.613197   -1.944830   -1.291304
    125          1           0       16.138851    1.464570    0.406184
    126          1           0       16.635123   -0.074259    1.433108
    127          1           0       18.225104   -0.521534   -0.367674
    128          1           0       17.810719    0.993230   -1.116162
    129          1           0       18.596857    2.119163    0.875683
    130          1           0       18.696239    0.474653    1.585257
    131          1           0       20.587414    0.359743   -0.010615
    132          1           0       19.949121    3.093843   -1.154577
    133          1           0       21.480806    2.107398   -1.382913
    134          1           0       19.873249    1.579404   -1.900110
    135          1           0       21.254792    1.456626    2.290738
    136          1           0       22.351653    1.834965    1.017115
    137          1           0       21.028393    3.010498    1.541913
 ---------------------------------------------------------------------

 SCF Done:  E(RCAM-B3LYP) =  -2932.67741638     A.U. after   18 cycles

 Excitation energies and oscillator strengths:

 Excited State   1:      Singlet-A      2.0134 eV  615.81 nm  f=0.2295  <S**2>=0.000
     240 -> 242        0.10372
     240 -> 243       -0.25124
     241 -> 242        0.64106
 This state for optimization and/or second-order correction.
 Total Energy, E(TD-HF/TD-KS) =  -2932.60342695
 Copying the excited state density for this state as the 1-particle RhoCI density.

 The electronic state is 1-A.
 Alpha  occ. eigenvalues --  -46.83128 -19.27216 -19.24977 -19.22593 -19.20316
 Alpha  occ. eigenvalues --  -19.20208 -14.40674 -14.39734 -14.39505 -14.38856
 Alpha  occ. eigenvalues --  -10.40705 -10.38672 -10.35259 -10.33289 -10.31024
 Alpha  occ. eigenvalues --  -10.30652 -10.29759 -10.29637 -10.29353 -10.29317
 Alpha  occ. eigenvalues --  -10.29170 -10.29087 -10.28614 -10.28442 -10.28411
 Alpha  occ. eigenvalues --  -10.28192 -10.28147 -10.28134 -10.27656 -10.27627
 Alpha  occ. eigenvalues --  -10.27468 -10.27438 -10.26996 -10.26969 -10.26813
 Alpha  occ. eigenvalues --  -10.26808 -10.26800 -10.26790 -10.26789 -10.26706
 Alpha  occ. eigenvalues --  -10.26414 -10.26398 -10.25976 -10.25929 -10.25902
 Alpha  occ. eigenvalues --  -10.25871 -10.25837 -10.25801 -10.25592 -10.25591
 Alpha  occ. eigenvalues --  -10.25567 -10.25532 -10.25304 -10.25182 -10.25146
 Alpha  occ. eigenvalues --  -10.25111 -10.25099 -10.24523 -10.24380 -10.24250
 Alpha  occ. eigenvalues --  -10.23959 -10.23905 -10.23836 -10.23721 -10.23576
 Alpha  occ. eigenvalues --   -3.12393  -1.87076  -1.86658  -1.86575  -1.17099
 Alpha  occ. eigenvalues --   -1.16700  -1.11124  -1.09802  -1.08506  -1.04478
 Alpha  occ. eigenvalues --   -1.02749  -1.02023  -1.00985  -0.91998  -0.91701
 Alpha  occ. eigenvalues --   -0.91048  -0.90380  -0.90046  -0.89788  -0.89612
 Alpha  occ. eigenvalues --   -0.88753  -0.88450  -0.88265  -0.87396  -0.86568
 Alpha  occ. eigenvalues --   -0.85705  -0.85038  -0.83702  -0.83585  -0.82799
 Alpha  occ. eigenvalues --   -0.81704  -0.80651  -0.80548  -0.80105  -0.78819
 Alpha  occ. eigenvalues --   -0.77292  -0.76720  -0.76656  -0.75988  -0.75717
 Alpha  occ. eigenvalues --   -0.75538  -0.75085  -0.74872  -0.73726  -0.72701
 Alpha  occ. eigenvalues --   -0.72296  -0.71186  -0.70449  -0.69357  -0.68941
 Alpha  occ. eigenvalues --   -0.67319  -0.67177  -0.65537  -0.65212  -0.65140
 Alpha  occ. eigenvalues --   -0.63741  -0.63612  -0.62753  -0.62568  -0.62103
 Alpha  occ. eigenvalues --   -0.60681  -0.60438  -0.59913  -0.59626  -0.59017
 Alpha  occ. eigenvalues --   -0.58631  -0.57885  -0.57416  -0.57269  -0.56877
 Alpha  occ. eigenvalues --   -0.56230  -0.56068  -0.55849  -0.55727  -0.55281
 Alpha  occ. eigenvalues --   -0.54737  -0.54496  -0.54223  -0.53808  -0.53289
 Alpha  occ. eigenvalues --   -0.53211  -0.52516  -0.52457  -0.52320  -0.52085
 Alpha  occ. eigenvalues --   -0.51725  -0.51616  -0.51346  -0.51183  -0.50881
 Alpha  occ. eigenvalues --   -0.50786  -0.50503  -0.50175  -0.49946  -0.49865
 Alpha  occ. eigenvalues --   -0.49696  -0.49443  -0.48962  -0.48833  -0.48600
 Alpha  occ. eigenvalues --   -0.48489  -0.48336  -0.47969  -0.47851  -0.47123
 Alpha  occ. eigenvalues --   -0.46888  -0.46497  -0.46404  -0.46021  -0.45995
 Alpha  occ. eigenvalues --   -0.45462  -0.45284  -0.45237  -0.45138  -0.44852
 Alpha  occ. eigenvalues --   -0.44832  -0.44710  -0.44475  -0.44441  -0.44091
 Alpha  occ. eigenvalues --   -0.44030  -0.43961  -0.43861  -0.43713  -0.43325
 Alpha  occ. eigenvalues --   -0.43234  -0.43079  -0.42650  -0.42566  -0.42346
 Alpha  occ. eigenvalues --   -0.42057  -0.41812  -0.41731  -0.41667  -0.41394
 Alpha  occ. eigenvalues --   -0.41273  -0.41146  -0.40927  -0.40609  -0.40515
 Alpha  occ. eigenvalues --   -0.40439  -0.40181  -0.39671  -0.39330  -0.39235
 Alpha  occ. eigenvalues --   -0.39190  -0.38923  -0.38595  -0.38372  -0.38056
 Alpha  occ. eigenvalues --   -0.37844  -0.37004  -0.36710  -0.36589  -0.36544
 Alpha  occ. eigenvalues --   -0.36523  -0.36281  -0.35894  -0.35859  -0.35063
 Alpha  occ. eigenvalues --   -0.34987  -0.34680  -0.34491  -0.34325  -0.33715
 Alpha  occ. eigenvalues --   -0.32924  -0.32488  -0.32032  -0.30704  -0.30301
 Alpha  occ. eigenvalues --   -0.29555  -0.28905  -0.28012  -0.26215  -0.23100
 Alpha  occ. eigenvalues --   -0.21030
 Alpha virt. eigenvalues --   -0.06341  -0.03603   0.01259   0.03563   0.05034
 Alpha virt. eigenvalues --    0.06195   0.06272   0.06835   0.06989   0.07847
 Alpha virt. eigenvalues --    0.08038   0.10753   0.11396   0.11467   0.11571

 Mulliken charges:
               1
     1  Mg   0.827062
     2  C    0.073322
     3  C   -0.200340
     4  C   -0.157445
     5  C   -0.164936
     6  N   -0.652646
     7  C    0.315215
     8  C   -0.133711
     9  C   -0.165752
    10  C    0.350365
    11  C   -0.306104
    12  C   -0.180285
    13  C   -0.250037
    14  C    0.597192
    15  O   -0.476182
    16  O   -0.501912
    17  N   -0.718147
    18  C    0.363186
    19  C    0.019533
    20  C    0.064532
    21  C    0.280631
    22  C   -0.388484
    23  C   -0.145978
    24  C   -0.261738
    25  N   -0.687805
    26  C    0.276775
    27  C    0.052927
    28  C    0.049962
    29  C    0.249027
    30  C   -0.400390
    31  C   -0.257359
    32  C   -0.289174
    33  N   -0.725671
    34  C    0.227115
    35  C    0.077807
    36  C    0.025476
    37  C    0.282450
    38  C   -0.397292
    39  C    0.355132
    40  O   -0.452915
    41  C   -0.289687
    42  C    0.639385
    43  O   -0.460206
    44  O   -0.463218
    45  C   -0.074208
    46  C    0.040603
    47  C   -0.124236
    48  C    0.117759
    49  C   -0.370457
    50  C   -0.226016
    51  C   -0.179898
    52  C   -0.157634
    53  C   -0.080855
    54  C   -0.308968
    55  C   -0.151805
    56  C   -0.177054
    57  C   -0.171378
    58  C   -0.061540
    59  C   -0.279803
    60  C   -0.153128
    61  C   -0.186902
    62  C   -0.154878
    63  C   -0.058522
    64  C   -0.315141
    65  C   -0.311549
    66  H    0.081658
    67  H    0.098163
    68  H    0.079498
    69  H    0.112164
    70  H    0.089980
    71  H    0.119935
    72  H    0.106065
    73  H    0.133179
    74  H    0.123642
    75  H    0.116703
    76  H    0.112904
    77  H    0.145093
    78  H    0.140234
    79  H    0.127643
    80  H    0.092963
    81  H    0.101172
    82  H    0.114049
    83  H    0.098418
    84  H    0.133400
    85  H    0.091153
    86  H    0.111962
    87  H    0.119035
    88  H    0.110259
    89  H    0.076724
    90  H    0.115364
    91  H    0.115274
    92  H    0.119462
    93  H    0.131955
    94  H    0.113831
    95  H    0.165580
    96  H    0.093395
    97  H    0.131814
    98  H    0.139183
    99  H    0.129762
   100  H    0.101370
   101  H    0.065788
   102  H    0.114245
   103  H    0.118279
   104  H    0.122105
   105  H    0.097952
   106  H    0.106046
   107  H    0.112016
   108  H    0.107332
   109  H    0.073390
   110  H    0.085309
   111  H    0.019283
   112  H    0.099732
   113  H    0.113255
   114  H    0.099963
   115  H    0.102026
   116  H    0.073732
   117  H    0.108249
   118  H    0.093455
   119  H    0.067993
   120  H    0.076883
   121  H    0.076457
   122  H    0.119376
   123  H    0.057969
   124  H    0.091511
   125  H    0.095324
   126  H    0.077786
   127  H    0.075053
   128  H    0.091003
   129  H    0.094751
   130  H    0.072504
   131  H    0.097795
   132  H    0.092317
   133  H    0.106154
   134  H    0.111437
   135  H    0.072808
   136  H    0.090900
   137  H    0.112759
 Sum of Mulliken charges =   0.00000

 Dipole moment (field-independent basis, Debye):
    X=              1.3852    Y=              3.3825    Z=              0.3721  Tot=              3.6740
 Quadrupole moment (field-independent basis, Debye-Ang):
   XX=           -337.8463   YY=           -389.6009   ZZ=           -398.5399
   XY=            -15.8431   XZ=             11.2439   YZ=             -4.1011

 Normal termination of Gaussian 09 at Sun Jun 30 20:54:49 2019.
