 Gaussian 09, Revision D.01,
 Gaussian 09:  ES64L-G09RevD.01 24-Apr-2013

 -------------------------------------
 # td=(NStates=1) CAM-B3LYP/6-31G(d,p)
 -------------------------------------

 --
 TD
 --
 Symbolic Z-matrix:
 Charge =  0 Multiplicity = 1

                         Standard orientation:
 ---------------------------------------------------------------------
 Center     Atomic      Atomic             Coordinates (Angstroms)
 Number     Number       Type             X           Y           Z
 ---------------------------------------------------------------------
      1         12           0       -7.227058    0.582346    0.055509
      2          6           0       -4.870091   -1.917329    0.505202
      3          6           0       -4.809077    2.981566    1.030884
      4          6           0       -9.445615    3.058371   -0.384498
      5          6           0       -9.631961   -1.807556   -0.611534
      6          7           0       -5.098496    0.565795    0.663523
      7          6           0       -4.334048   -0.646661    0.903056
      8          6           0       -2.866339   -0.313690    1.170899
      9          6           0       -2.998808    1.242942    1.628910
     10          6           0       -4.401452    1.648441    1.035921
     11          6           0       -2.943947    1.406631    3.189032
     12          6           0       -1.979562   -0.535668   -0.019338
     13          6           0       -0.547276   -0.659090    0.438510
     14          6           0        0.603036   -0.643609   -0.596725
     15          8           0        0.338087   -0.837763   -1.755127
     16          8           0        1.880361   -0.616236   -0.109005
     17          7           0       -7.164811    2.681926    0.336587
     18          6           0       -6.068317    3.426519    0.708228
     19          6           0       -6.520376    4.910766    0.703626
     20          6           0       -7.844727    4.861099    0.413769
     21          6           0       -8.226338    3.479437    0.133456
     22          6           0       -5.684595    6.049311    1.209502
     23          6           0       -8.748815    6.067665    0.313435
     24          6           0       -8.337420    7.253575   -0.004951
     25          7           0       -9.154914    0.585976   -0.430504
     26          6           0       -9.850518    1.739478   -0.672674
     27          6           0      -11.157060    1.419802   -1.080807
     28          6           0      -11.310582   -0.006044   -1.048049
     29          6           0      -10.008245   -0.481923   -0.713004
     30          6           0      -12.303698    2.363071   -1.448360
     31          6           0      -12.504728   -0.743574   -1.593424
     32          6           0      -12.462547   -1.178307   -3.092897
     33          7           0       -7.293481   -1.519455   -0.080306
     34          6           0       -8.328816   -2.246561   -0.326030
     35          6           0       -7.867905   -3.605090   -0.347011
     36          6           0       -6.561801   -3.537373    0.026787
     37          6           0       -6.189887   -2.166777    0.158565
     38          6           0       -8.547989   -4.865991   -0.841564
     39          6           0       -5.241378   -4.332560    0.080252
     40          8           0       -5.102805   -5.545261   -0.013849
     41          6           0       -4.125846   -3.276866    0.547647
     42          6           0       -3.578687   -3.615148    1.803328
     43          8           0       -3.765596   -3.107148    2.887447
     44          8           0       -2.766843   -4.745569    1.711420
     45          6           0       -2.141397   -5.214692    2.778614
     46          6           0        2.786808   -0.830564   -1.160607
     47          6           0        4.159266   -0.527368   -0.524499
     48          6           0        5.140450    0.277968   -0.856607
     49          6           0        5.197492    0.842186   -2.232757
     50          6           0        6.508871    0.245974   -0.135964
     51          6           0        7.707197   -0.345674   -0.928181
     52          6           0        8.976708   -0.120184   -0.187855
     53          6           0       10.232629   -0.595182   -0.923969
     54          6           0       10.242346   -2.160454   -1.196288
     55          6           0       11.441762   -0.249835    0.007881
     56          6           0       12.875759   -0.418927   -0.656184
     57          6           0       14.015875   -0.059799    0.177944
     58          6           0       15.451179   -0.225601   -0.439086
     59          6           0       15.684959   -1.709544   -0.690570
     60          6           0       16.466694    0.532627    0.463367
     61          6           0       17.888435    0.514944   -0.110987
     62          6           0       18.798754    1.417101    0.765672
     63          6           0       20.242016    1.472791    0.176445
     64          6           0       20.389839    2.157286   -1.175403
     65          6           0       21.222761    2.123649    1.174870
     66          1           0       -3.987530    3.700739    1.260268
     67          1           0      -10.281159    3.934075   -0.498621
     68          1           0      -10.362647   -2.544799   -1.046494
     69          1           0       -2.701893   -0.890165    2.159341
     70          1           0       -2.182797    1.878306    1.204875
     71          1           0       -1.849324    1.550379    3.534612
     72          1           0       -3.663210    2.564752    3.316181
     73          1           0       -3.528920    0.515480    3.690804
     74          1           0       -2.091947   -1.594346   -0.391943
     75          1           0       -2.258783    0.067447   -0.783635
     76          1           0       -0.217781    0.189910    1.083448
     77          1           0       -0.350616   -1.455963    1.161605
     78          1           0       -5.109742    6.173421    0.222760
     79          1           0       -6.126455    6.876183    1.528947
     80          1           0       -4.974788    5.667725    1.942395
     81          1           0       -9.836897    5.922493    0.404776
     82          1           0       -8.944467    8.139672   -0.094592
     83          1           0       -7.180076    7.542592   -0.059414
     84          1           0      -11.906726    2.825625   -2.309866
     85          1           0      -13.248533    1.786158   -1.500716
     86          1           0      -12.363064    3.217472   -0.777092
     87          1           0      -12.787613   -1.685760   -0.958970
     88          1           0      -13.241183   -0.067223   -1.462281
     89          1           0      -13.423706   -1.743555   -3.422169
     90          1           0      -12.415804   -0.309530   -3.833999
     91          1           0      -11.560056   -1.815158   -3.230244
     92          1           0       -8.714483   -4.777588   -1.960130
     93          1           0       -8.096928   -5.814229   -0.830615
     94          1           0       -9.722661   -4.863084   -0.432730
     95          1           0       -3.303103   -3.352482   -0.300345
     96          1           0       -1.647929   -4.472541    3.385142
     97          1           0       -2.693733   -5.547622    3.724142
     98          1           0       -1.433186   -5.849734    2.251288
     99          1           0        2.770129   -1.850410   -1.612259
    100          1           0        2.340210   -0.077335   -2.017999
    101          1           0        4.134757   -0.854996    0.400234
    102          1           0        4.063501    0.995598   -2.536615
    103          1           0        5.625231    1.827025   -2.414771
    104          1           0        5.898716    0.445260   -3.029144
    105          1           0        6.858970    1.234354    0.087071
    106          1           0        6.381547   -0.346528    0.580972
    107          1           0        7.382559   -1.442835   -1.209618
    108          1           0        7.501443    0.304633   -1.816333
    109          1           0        8.906378    1.037191   -0.023543
    110          1           0        8.758203   -0.516259    0.900054
    111          1           0       10.406776    0.004196   -1.685571
    112          1           0        9.608293   -2.279697   -2.095987
    113          1           0       11.140657   -2.368092   -1.739401
    114          1           0        9.893911   -2.690619   -0.282419
    115          1           0       11.251331    0.637398    0.648817
    116          1           0       11.388964   -1.142062    0.595985
    117          1           0       12.961925   -1.533405   -1.066757
    118          1           0       13.099501    0.092683   -1.618396
    119          1           0       13.861452    1.054056    0.427375
    120          1           0       14.238674   -0.733598    1.109257
    121          1           0       15.578964    0.311027   -1.362729
    122          1           0       15.509434   -2.517592    0.129874
    123          1           0       15.123868   -2.128069   -1.470261
    124          1           0       16.760122   -1.769125   -1.082278
    125          1           0       16.144164    1.480458    0.748339
    126          1           0       16.445871   -0.043884    1.583781
    127          1           0       18.300098   -0.732912   -0.193665
    128          1           0       18.116158    0.927871   -1.152009
    129          1           0       18.212946    2.440104    0.922978
    130          1           0       18.851041    0.750322    1.591544
    131          1           0       20.664265    0.344895    0.039665
    132          1           0       19.791169    3.108738   -1.046890
    133          1           0       21.588799    2.477735   -1.219626
    134          1           0       20.046726    1.574399   -1.957113
    135          1           0       20.969191    1.743108    2.422365
    136          1           0       22.295432    2.196703    1.024902
    137          1           0       20.819408    3.165614    1.309268
 ---------------------------------------------------------------------

 SCF Done:  E(RCAM-B3LYP) =  -2932.61443150     A.U. after   18 cycles

 Excitation energies and oscillator strengths:

 Excited State   1:      Singlet-A      2.1585 eV  574.40 nm  f=0.1990  <S**2>=0.000
     240 -> 243       -0.27642
     241 -> 242        0.64428
 This state for optimization and/or second-order correction.
 Total Energy, E(TD-HF/TD-KS) =  -2932.53510764
 Copying the excited state density for this state as the 1-particle RhoCI density.

 The electronic state is 1-A.
 Alpha  occ. eigenvalues --  -46.85502 -19.27306 -19.25313 -19.21659 -19.21522
 Alpha  occ. eigenvalues --  -19.21340 -14.42780 -14.39972 -14.39105 -14.38955
 Alpha  occ. eigenvalues --  -10.39781 -10.39433 -10.36528 -10.32871 -10.31804
 Alpha  occ. eigenvalues --  -10.31746 -10.31303 -10.30100 -10.29888 -10.29843
 Alpha  occ. eigenvalues --  -10.29825 -10.29131 -10.29029 -10.28794 -10.28526
 Alpha  occ. eigenvalues --  -10.28472 -10.28464 -10.28424 -10.28185 -10.28037
 Alpha  occ. eigenvalues --  -10.27979 -10.27885 -10.27426 -10.27415 -10.27337
 Alpha  occ. eigenvalues --  -10.27236 -10.27206 -10.27055 -10.26937 -10.26863
 Alpha  occ. eigenvalues --  -10.26816 -10.26743 -10.26702 -10.26574 -10.26541
 Alpha  occ. eigenvalues --  -10.26397 -10.26310 -10.26308 -10.26285 -10.26183
 Alpha  occ. eigenvalues --  -10.25864 -10.25818 -10.25801 -10.25792 -10.25774
 Alpha  occ. eigenvalues --  -10.25765 -10.25663 -10.25452 -10.25307 -10.25252
 Alpha  occ. eigenvalues --  -10.24878 -10.24795 -10.24704 -10.24652 -10.23680
 Alpha  occ. eigenvalues --   -3.14312  -1.89039  -1.88567  -1.88446  -1.19683
 Alpha  occ. eigenvalues --   -1.19022  -1.11051  -1.10641  -1.10381  -1.06941
 Alpha  occ. eigenvalues --   -1.04031  -1.02639  -1.02171  -0.93181  -0.91550
 Alpha  occ. eigenvalues --   -0.90761  -0.90265  -0.89578  -0.89333  -0.89033
 Alpha  occ. eigenvalues --   -0.88152  -0.88040  -0.87485  -0.86603  -0.85661
 Alpha  occ. eigenvalues --   -0.85378  -0.84599  -0.84269  -0.83266  -0.82713
 Alpha  occ. eigenvalues --   -0.81944  -0.81280  -0.80437  -0.79854  -0.78541
 Alpha  occ. eigenvalues --   -0.77554  -0.77408  -0.76309  -0.76197  -0.75470
 Alpha  occ. eigenvalues --   -0.75218  -0.74814  -0.74451  -0.73499  -0.72519
 Alpha  occ. eigenvalues --   -0.71447  -0.70509  -0.70135  -0.68628  -0.68470
 Alpha  occ. eigenvalues --   -0.66535  -0.65717  -0.65136  -0.64881  -0.64711
 Alpha  occ. eigenvalues --   -0.63926  -0.63691  -0.63235  -0.63216  -0.62574
 Alpha  occ. eigenvalues --   -0.61201  -0.61147  -0.60650  -0.60189  -0.59510
 Alpha  occ. eigenvalues --   -0.58899  -0.58619  -0.58242  -0.57791  -0.57116
 Alpha  occ. eigenvalues --   -0.56530  -0.55912  -0.55424  -0.55211  -0.54945
 Alpha  occ. eigenvalues --   -0.54854  -0.54553  -0.54254  -0.53941  -0.53595
 Alpha  occ. eigenvalues --   -0.53042  -0.52896  -0.52373  -0.52285  -0.52138
 Alpha  occ. eigenvalues --   -0.51838  -0.51399  -0.51238  -0.50979  -0.50720
 Alpha  occ. eigenvalues --   -0.50433  -0.50400  -0.50190  -0.49753  -0.49470
 Alpha  occ. eigenvalues --   -0.49242  -0.49186  -0.48941  -0.48766  -0.48287
 Alpha  occ. eigenvalues --   -0.48192  -0.47977  -0.47844  -0.47562  -0.47453
 Alpha  occ. eigenvalues --   -0.47095  -0.46814  -0.46744  -0.46436  -0.45952
 Alpha  occ. eigenvalues --   -0.45735  -0.45687  -0.45311  -0.45154  -0.44926
 Alpha  occ. eigenvalues --   -0.44666  -0.44565  -0.44426  -0.44260  -0.44080
 Alpha  occ. eigenvalues --   -0.43773  -0.43633  -0.43604  -0.43546  -0.43356
 Alpha  occ. eigenvalues --   -0.43202  -0.42854  -0.42669  -0.42409  -0.42132
 Alpha  occ. eigenvalues --   -0.41968  -0.41895  -0.41678  -0.41439  -0.41127
 Alpha  occ. eigenvalues --   -0.41006  -0.40736  -0.40487  -0.40443  -0.40312
 Alpha  occ. eigenvalues --   -0.40250  -0.39972  -0.39928  -0.39292  -0.38985
 Alpha  occ. eigenvalues --   -0.38724  -0.38267  -0.37767  -0.37472  -0.37417
 Alpha  occ. eigenvalues --   -0.37172  -0.37006  -0.36952  -0.36872  -0.36824
 Alpha  occ. eigenvalues --   -0.36532  -0.36431  -0.36107  -0.35815  -0.35500
 Alpha  occ. eigenvalues --   -0.35312  -0.34393  -0.34216  -0.33857  -0.33360
 Alpha  occ. eigenvalues --   -0.32954  -0.32815  -0.32623  -0.31846  -0.30018
 Alpha  occ. eigenvalues --   -0.29951  -0.29365  -0.28326  -0.27614  -0.23543
 Alpha  occ. eigenvalues --   -0.21458
 Alpha virt. eigenvalues --   -0.06048  -0.03534   0.00902   0.03804   0.04940
 Alpha virt. eigenvalues --    0.05534   0.05898   0.06448   0.06546   0.07328
 Alpha virt. eigenvalues --    0.07386   0.09931   0.11030   0.11159   0.11358

 Mulliken charges:
               1
     1  Mg   0.830990
     2  C    0.076733
     3  C   -0.216506
     4  C   -0.196269
     5  C   -0.159013
     6  N   -0.614687
     7  C    0.236454
     8  C   -0.170406
     9  C   -0.145968
    10  C    0.362099
    11  C   -0.277636
    12  C   -0.140079
    13  C   -0.273621
    14  C    0.595564
    15  O   -0.456593
    16  O   -0.467303
    17  N   -0.725918
    18  C    0.320207
    19  C   -0.015344
    20  C   -0.011092
    21  C    0.352847
    22  C   -0.345774
    23  C   -0.047149
    24  C   -0.249499
    25  N   -0.739783
    26  C    0.348410
    27  C   -0.023248
    28  C    0.010313
    29  C    0.287944
    30  C   -0.362517
    31  C   -0.221956
    32  C   -0.301351
    33  N   -0.737665
    34  C    0.299379
    35  C   -0.002878
    36  C   -0.032032
    37  C    0.314739
    38  C   -0.369847
    39  C    0.379898
    40  O   -0.438332
    41  C   -0.344457
    42  C    0.653734
    43  O   -0.470522
    44  O   -0.435057
    45  C   -0.076412
    46  C    0.006771
    47  C   -0.123024
    48  C    0.112850
    49  C   -0.378530
    50  C   -0.208979
    51  C   -0.176923
    52  C   -0.169597
    53  C   -0.054888
    54  C   -0.324719
    55  C   -0.180031
    56  C   -0.184404
    57  C   -0.147151
    58  C   -0.066356
    59  C   -0.312432
    60  C   -0.154573
    61  C   -0.172986
    62  C   -0.164875
    63  C   -0.051044
    64  C   -0.291268
    65  C   -0.291200
    66  H    0.095350
    67  H    0.085517
    68  H    0.104448
    69  H    0.130311
    70  H    0.101097
    71  H    0.114572
    72  H    0.059684
    73  H    0.127903
    74  H    0.113184
    75  H    0.133040
    76  H    0.114983
    77  H    0.146987
    78  H    0.122869
    79  H    0.133952
    80  H    0.120200
    81  H    0.093019
    82  H    0.106418
    83  H    0.085957
    84  H    0.135831
    85  H    0.114433
    86  H    0.116019
    87  H    0.093993
    88  H    0.107095
    89  H    0.097511
    90  H    0.104905
    91  H    0.110504
    92  H    0.117332
    93  H    0.153065
    94  H    0.085955
    95  H    0.167558
    96  H    0.099431
    97  H    0.105332
    98  H    0.117797
    99  H    0.129688
   100  H    0.117663
   101  H    0.094526
   102  H    0.091888
   103  H    0.104825
   104  H    0.121468
   105  H    0.095339
   106  H    0.094260
   107  H    0.084110
   108  H    0.083566
   109  H    0.080057
   110  H    0.080699
   111  H    0.098442
   112  H    0.104831
   113  H    0.116273
   114  H    0.116939
   115  H    0.089328
   116  H    0.103919
   117  H    0.071148
   118  H    0.083562
   119  H    0.072948
   120  H    0.077537
   121  H    0.088144
   122  H    0.092373
   123  H    0.114485
   124  H    0.089718
   125  H    0.104232
   126  H    0.054993
   127  H    0.057404
   128  H    0.083972
   129  H    0.084052
   130  H    0.118297
   131  H    0.067164
   132  H    0.096645
   133  H    0.080156
   134  H    0.119730
   135  H    0.045601
   136  H    0.111675
   137  H    0.095054
 Sum of Mulliken charges =   0.00000

 Dipole moment (field-independent basis, Debye):
    X=              0.6479    Y=              5.3246    Z=             -1.0104  Tot=              5.4582
 Quadrupole moment (field-independent basis, Debye-Ang):
   XX=           -362.0170   YY=           -395.7058   ZZ=           -403.7350
   XY=            -24.8512   XZ=              5.5323   YZ=              3.2300

 Normal termination of Gaussian 09 at Thu Jun 27 07:08:36 2019.
