 Gaussian 09, Revision D.01,
 Gaussian 09:  ES64L-G09RevD.01 24-Apr-2013

 -------------------------------------
 # td=(NStates=1) CAM-B3LYP/6-31G(d,p)
 -------------------------------------

 --
 TD
 --
 Symbolic Z-matrix:
 Charge =  0 Multiplicity = 1

                         Standard orientation:
 ---------------------------------------------------------------------
 Center     Atomic      Atomic             Coordinates (Angstroms)
 Number     Number       Type             X           Y           Z
 ---------------------------------------------------------------------
      1         12           0       -7.184085    0.570144    0.269361
      2          6           0       -4.763558   -1.899093    0.419563
      3          6           0       -4.887855    2.843482    1.471534
      4          6           0       -9.442510    3.049554   -0.389711
      5          6           0       -9.516523   -1.727038   -0.771422
      6          7           0       -5.167440    0.515406    0.784901
      7          6           0       -4.373065   -0.624207    0.807548
      8          6           0       -2.934497   -0.340365    1.407042
      9          6           0       -3.100858    1.121220    1.812977
     10          6           0       -4.445411    1.530587    1.375983
     11          6           0       -2.925164    1.224346    3.358981
     12          6           0       -2.023949   -0.497363    0.159946
     13          6           0       -0.499294   -0.189021    0.536263
     14          6           0        0.454532   -0.583665   -0.468869
     15          8           0        0.243236   -0.988412   -1.666432
     16          8           0        1.734321   -0.346589   -0.159165
     17          7           0       -7.183278    2.560839    0.419072
     18          6           0       -6.104937    3.342709    0.912031
     19          6           0       -6.569382    4.788721    0.905299
     20          6           0       -7.839344    4.787721    0.395361
     21          6           0       -8.187822    3.358147    0.089004
     22          6           0       -5.644511    5.962534    1.220924
     23          6           0       -8.723371    5.929262    0.161698
     24          6           0       -8.371772    7.165451   -0.258315
     25          7           0       -9.105020    0.661878   -0.465191
     26          6           0       -9.907072    1.808491   -0.569847
     27          6           0      -11.247034    1.389838   -1.124541
     28          6           0      -11.245576    0.054709   -1.233919
     29          6           0       -9.919170   -0.400920   -0.872819
     30          6           0      -12.262588    2.272220   -1.366104
     31          6           0      -12.324172   -0.890858   -1.661396
     32          6           0      -12.396798   -1.105838   -3.232968
     33          7           0       -7.205941   -1.470833   -0.225565
     34          6           0       -8.294034   -2.295238   -0.517619
     35          6           0       -7.914926   -3.643991   -0.427206
     36          6           0       -6.536151   -3.578349   -0.159556
     37          6           0       -6.127687   -2.198757   -0.019520
     38          6           0       -8.640379   -4.769286   -0.811899
     39          6           0       -5.273532   -4.340085    0.131023
     40          8           0       -5.165134   -5.512685    0.186282
     41          6           0       -4.151098   -3.284250    0.493026
     42          6           0       -3.410237   -3.707695    1.712711
     43          8           0       -3.613244   -3.246731    2.806880
     44          8           0       -2.604002   -4.726684    1.489208
     45          6           0       -2.082157   -5.333826    2.734287
     46          6           0        2.743171   -0.603182   -1.130286
     47          6           0        4.019337   -0.311131   -0.493832
     48          6           0        5.137044    0.425164   -0.925114
     49          6           0        5.048854    1.195170   -2.286693
     50          6           0        6.462239    0.584748   -0.239599
     51          6           0        7.656304    0.013325   -0.994669
     52          6           0        8.929221   -0.050038   -0.152468
     53          6           0       10.207240   -0.543464   -0.960143
     54          6           0       10.064783   -2.127008   -1.322198
     55          6           0       11.500137   -0.289270   -0.070865
     56          6           0       12.874466   -0.746681   -0.656485
     57          6           0       14.083790   -0.318213    0.282042
     58          6           0       15.379334   -0.318575   -0.431261
     59          6           0       15.753193   -1.682396   -0.933301
     60          6           0       16.532614    0.282920    0.531157
     61          6           0       17.841632    0.439050   -0.162710
     62          6           0       18.895469    1.245654    0.773256
     63          6           0       20.324046    1.395785    0.137005
     64          6           0       20.379886    2.228775   -1.114912
     65          6           0       21.151014    2.021465    1.189678
     66          1           0       -4.357645    3.692532    1.747508
     67          1           0       -9.921796    3.984443   -0.896595
     68          1           0      -10.314554   -2.563480   -0.979265
     69          1           0       -2.716814   -1.079565    2.146346
     70          1           0       -2.396810    1.849183    1.168798
     71          1           0       -1.874100    1.017588    3.659305
     72          1           0       -3.251294    2.356446    3.712842
     73          1           0       -3.866132    0.679313    3.859474
     74          1           0       -2.046056   -1.629274   -0.151043
     75          1           0       -2.262333    0.157912   -0.788160
     76          1           0       -0.372925    0.893799    0.715392
     77          1           0       -0.067900   -0.570651    1.548687
     78          1           0       -5.107386    6.389754    0.312408
     79          1           0       -6.289277    6.779610    1.591685
     80          1           0       -4.939691    5.622991    2.107919
     81          1           0       -9.758459    5.625009    0.333425
     82          1           0       -9.184302    7.797787   -0.250612
     83          1           0       -7.288807    7.632277   -0.495905
     84          1           0      -11.834369    3.106042   -2.076215
     85          1           0      -13.156762    1.909604   -1.676068
     86          1           0      -12.392394    2.971244   -0.520955
     87          1           0      -12.221966   -1.927897   -1.178717
     88          1           0      -13.306106   -0.657406   -1.368923
     89          1           0      -13.251564   -1.684523   -3.571424
     90          1           0      -12.811581   -0.174055   -3.843908
     91          1           0      -11.372833   -1.264519   -3.575833
     92          1           0       -8.955969   -4.566791   -1.893074
     93          1           0       -7.941786   -5.548120   -0.830719
     94          1           0       -9.672169   -5.026742   -0.325963
     95          1           0       -3.477301   -3.444827   -0.369745
     96          1           0       -1.551565   -4.478528    3.249745
     97          1           0       -2.928465   -5.728696    3.100891
     98          1           0       -1.371143   -6.228361    2.402884
     99          1           0        2.671125   -1.616326   -1.394843
    100          1           0        2.729154    0.043309   -1.966419
    101          1           0        4.287213   -0.833399    0.482477
    102          1           0        3.991510    1.451389   -2.572010
    103          1           0        5.591320    2.236449   -2.237448
    104          1           0        5.473677    0.400173   -3.166893
    105          1           0        6.676617    1.735143   -0.065074
    106          1           0        6.315410    0.078217    0.755168
    107          1           0        7.507258   -1.167346   -1.248556
    108          1           0        8.093225    0.487112   -1.952549
    109          1           0        9.031477    0.983012    0.156071
    110          1           0        8.914728   -0.523687    0.879922
    111          1           0       10.388823   -0.089471   -1.837481
    112          1           0        9.181869   -2.269495   -1.958277
    113          1           0       10.958560   -2.518974   -1.759219
    114          1           0       10.085101   -2.662852   -0.360240
    115          1           0       11.327114    0.724235    0.325866
    116          1           0       11.226928   -0.806992    0.881983
    117          1           0       12.842957   -1.777648   -0.941307
    118          1           0       13.056969   -0.062019   -1.701094
    119          1           0       14.018505    0.665035    0.636518
    120          1           0       14.080099   -0.796068    1.387269
    121          1           0       15.360695    0.358413   -1.433967
    122          1           0       15.811570   -2.313125   -0.160183
    123          1           0       15.085909   -2.326322   -1.700100
    124          1           0       16.878215   -1.461207   -1.243483
    125          1           0       16.138789    1.160037    1.026604
    126          1           0       16.798834   -0.432037    1.356364
    127          1           0       18.189413   -0.564264   -0.351877
    128          1           0       17.845983    1.239177   -1.153776
    129          1           0       18.560775    2.225591    0.896400
    130          1           0       18.822303    0.727218    1.881023
    131          1           0       20.859603    0.445765   -0.035924
    132          1           0       19.669939    3.144988   -1.108753
    133          1           0       21.392081    2.931286   -1.290105
    134          1           0       20.141850    1.770905   -2.161880
    135          1           0       21.295537    1.360700    2.262158
    136          1           0       22.223449    2.473279    1.014864
    137          1           0       20.705818    3.176300    1.367005
 ---------------------------------------------------------------------

 SCF Done:  E(RCAM-B3LYP) =  -2932.66898712     A.U. after   18 cycles

 Excitation energies and oscillator strengths:

 Excited State   1:      Singlet-A      1.9174 eV  646.63 nm  f=0.2795  <S**2>=0.000
     240 -> 243       -0.20164
     241 -> 242        0.67249
 This state for optimization and/or second-order correction.
 Total Energy, E(TD-HF/TD-KS) =  -2932.59852401
 Copying the excited state density for this state as the 1-particle RhoCI density.

 The electronic state is 1-A.
 Alpha  occ. eigenvalues --  -46.83913 -19.25911 -19.25712 -19.20133 -19.19950
 Alpha  occ. eigenvalues --  -19.19238 -14.42325 -14.39728 -14.39488 -14.38216
 Alpha  occ. eigenvalues --  -10.38894 -10.38416 -10.34789 -10.31906 -10.31599
 Alpha  occ. eigenvalues --  -10.31174 -10.30974 -10.30732 -10.29273 -10.29048
 Alpha  occ. eigenvalues --  -10.28845 -10.28826 -10.28801 -10.28755 -10.28501
 Alpha  occ. eigenvalues --  -10.28438 -10.28204 -10.28101 -10.28036 -10.27948
 Alpha  occ. eigenvalues --  -10.27935 -10.27727 -10.27695 -10.27598 -10.27567
 Alpha  occ. eigenvalues --  -10.27544 -10.27529 -10.27482 -10.27447 -10.27415
 Alpha  occ. eigenvalues --  -10.27310 -10.27273 -10.27003 -10.26842 -10.26806
 Alpha  occ. eigenvalues --  -10.26768 -10.26723 -10.26691 -10.26665 -10.26474
 Alpha  occ. eigenvalues --  -10.26327 -10.26009 -10.25998 -10.25853 -10.25607
 Alpha  occ. eigenvalues --  -10.25600 -10.25590 -10.25490 -10.25446 -10.25400
 Alpha  occ. eigenvalues --  -10.25348 -10.24939 -10.24502 -10.24447 -10.24434
 Alpha  occ. eigenvalues --   -3.13001  -1.87704  -1.87250  -1.87169  -1.18719
 Alpha  occ. eigenvalues --   -1.17823  -1.12881  -1.08839  -1.05076  -1.04050
 Alpha  occ. eigenvalues --   -1.03126  -1.02886  -1.01180  -0.91780  -0.90567
 Alpha  occ. eigenvalues --   -0.90371  -0.89836  -0.89433  -0.89016  -0.88990
 Alpha  occ. eigenvalues --   -0.88789  -0.88273  -0.88152  -0.87564  -0.86465
 Alpha  occ. eigenvalues --   -0.84932  -0.84152  -0.83791  -0.83131  -0.82934
 Alpha  occ. eigenvalues --   -0.81311  -0.81266  -0.80380  -0.78931  -0.78018
 Alpha  occ. eigenvalues --   -0.77835  -0.77036  -0.76000  -0.75212  -0.75081
 Alpha  occ. eigenvalues --   -0.74957  -0.74236  -0.73424  -0.72811  -0.72173
 Alpha  occ. eigenvalues --   -0.71480  -0.70338  -0.69775  -0.68992  -0.67796
 Alpha  occ. eigenvalues --   -0.67034  -0.65468  -0.65006  -0.64797  -0.64149
 Alpha  occ. eigenvalues --   -0.63843  -0.63575  -0.63096  -0.63010  -0.61849
 Alpha  occ. eigenvalues --   -0.61678  -0.60555  -0.59652  -0.59507  -0.58783
 Alpha  occ. eigenvalues --   -0.58380  -0.57616  -0.57466  -0.57432  -0.57094
 Alpha  occ. eigenvalues --   -0.56266  -0.56106  -0.55139  -0.54711  -0.54193
 Alpha  occ. eigenvalues --   -0.53861  -0.53524  -0.53474  -0.53382  -0.53133
 Alpha  occ. eigenvalues --   -0.52770  -0.52602  -0.52251  -0.51957  -0.51613
 Alpha  occ. eigenvalues --   -0.51346  -0.50924  -0.50665  -0.50468  -0.50370
 Alpha  occ. eigenvalues --   -0.49962  -0.49732  -0.49578  -0.49299  -0.49117
 Alpha  occ. eigenvalues --   -0.48788  -0.48714  -0.48676  -0.48396  -0.48267
 Alpha  occ. eigenvalues --   -0.48061  -0.47871  -0.47785  -0.47337  -0.47189
 Alpha  occ. eigenvalues --   -0.46775  -0.46517  -0.46315  -0.46116  -0.45791
 Alpha  occ. eigenvalues --   -0.45740  -0.45594  -0.45278  -0.45039  -0.44973
 Alpha  occ. eigenvalues --   -0.44765  -0.44552  -0.44245  -0.44190  -0.43823
 Alpha  occ. eigenvalues --   -0.43680  -0.43661  -0.43515  -0.42960  -0.42722
 Alpha  occ. eigenvalues --   -0.42658  -0.42505  -0.42364  -0.42319  -0.41902
 Alpha  occ. eigenvalues --   -0.41870  -0.41701  -0.41471  -0.41067  -0.41058
 Alpha  occ. eigenvalues --   -0.40906  -0.40794  -0.40519  -0.40454  -0.40318
 Alpha  occ. eigenvalues --   -0.40092  -0.39886  -0.39739  -0.39047  -0.38931
 Alpha  occ. eigenvalues --   -0.38569  -0.38119  -0.37974  -0.37878  -0.37315
 Alpha  occ. eigenvalues --   -0.37289  -0.37184  -0.36887  -0.36678  -0.36602
 Alpha  occ. eigenvalues --   -0.36235  -0.36036  -0.35924  -0.35757  -0.35558
 Alpha  occ. eigenvalues --   -0.34890  -0.34846  -0.34656  -0.33395  -0.32976
 Alpha  occ. eigenvalues --   -0.32960  -0.32268  -0.31873  -0.31022  -0.29262
 Alpha  occ. eigenvalues --   -0.28830  -0.28488  -0.28175  -0.27560  -0.23457
 Alpha  occ. eigenvalues --   -0.20513
 Alpha virt. eigenvalues --   -0.06582  -0.02367   0.02422   0.04155   0.04955
 Alpha virt. eigenvalues --    0.05256   0.05342   0.06553   0.07048   0.07885
 Alpha virt. eigenvalues --    0.08806   0.10762   0.11338   0.11396   0.11671

 Mulliken charges:
               1
     1  Mg   0.818890
     2  C    0.111092
     3  C   -0.179689
     4  C   -0.203500
     5  C   -0.184159
     6  N   -0.635239
     7  C    0.265010
     8  C   -0.131364
     9  C   -0.144972
    10  C    0.353523
    11  C   -0.301039
    12  C   -0.173193
    13  C   -0.284706
    14  C    0.611966
    15  O   -0.524007
    16  O   -0.470098
    17  N   -0.733375
    18  C    0.263897
    19  C   -0.003950
    20  C    0.013280
    21  C    0.354903
    22  C   -0.366569
    23  C   -0.106875
    24  C   -0.230751
    25  N   -0.677135
    26  C    0.292648
    27  C    0.067302
    28  C    0.062047
    29  C    0.277429
    30  C   -0.401457
    31  C   -0.246667
    32  C   -0.311162
    33  N   -0.730574
    34  C    0.266644
    35  C    0.081923
    36  C   -0.053192
    37  C    0.277310
    38  C   -0.404362
    39  C    0.366444
    40  O   -0.433280
    41  C   -0.332989
    42  C    0.621657
    43  O   -0.493891
    44  O   -0.458381
    45  C   -0.074785
    46  C    0.060841
    47  C   -0.146931
    48  C    0.112097
    49  C   -0.351378
    50  C   -0.220808
    51  C   -0.164293
    52  C   -0.181074
    53  C   -0.069745
    54  C   -0.325384
    55  C   -0.185626
    56  C   -0.169119
    57  C   -0.160960
    58  C   -0.048266
    59  C   -0.297738
    60  C   -0.186985
    61  C   -0.173042
    62  C   -0.162873
    63  C   -0.033145
    64  C   -0.315275
    65  C   -0.277997
    66  H    0.075663
    67  H    0.104229
    68  H    0.084060
    69  H    0.143758
    70  H    0.102615
    71  H    0.121461
    72  H    0.082966
    73  H    0.125155
    74  H    0.117519
    75  H    0.128523
    76  H    0.148660
    77  H    0.129405
    78  H    0.127362
    79  H    0.126587
    80  H    0.101668
    81  H    0.105299
    82  H    0.106656
    83  H    0.106529
    84  H    0.103944
    85  H    0.119267
    86  H    0.122820
    87  H    0.100482
    88  H    0.107638
    89  H    0.110813
    90  H    0.080093
    91  H    0.123190
    92  H    0.122570
    93  H    0.150870
    94  H    0.113310
    95  H    0.165805
    96  H    0.138142
    97  H    0.156570
    98  H    0.117481
    99  H    0.137826
   100  H    0.114991
   101  H    0.071221
   102  H    0.114359
   103  H    0.099730
   104  H    0.101285
   105  H    0.096408
   106  H    0.104505
   107  H    0.080480
   108  H    0.103028
   109  H    0.086951
   110  H    0.085871
   111  H    0.095207
   112  H    0.105669
   113  H    0.101829
   114  H    0.100339
   115  H    0.091175
   116  H    0.080239
   117  H    0.111504
   118  H    0.062864
   119  H    0.100890
   120  H    0.069565
   121  H    0.070018
   122  H    0.113309
   123  H    0.086689
   124  H    0.078239
   125  H    0.095837
   126  H    0.090498
   127  H    0.112457
   128  H    0.063315
   129  H    0.108477
   130  H    0.067243
   131  H    0.101403
   132  H    0.094345
   133  H    0.082965
   134  H    0.106011
   135  H    0.075839
   136  H    0.091518
   137  H    0.057893
 Sum of Mulliken charges =   0.00000

 Dipole moment (field-independent basis, Debye):
    X=              0.9699    Y=              4.9445    Z=              1.6566  Tot=              5.3040
 Quadrupole moment (field-independent basis, Debye-Ang):
   XX=           -340.0812   YY=           -387.5102   ZZ=           -401.4348
   XY=            -21.3535   XZ=             10.4639   YZ=             -4.9860

 Normal termination of Gaussian 09 at Thu Jun 27 00:44:41 2019.
