 Gaussian 09, Revision D.01,
 Gaussian 09:  ES64L-G09RevD.01 24-Apr-2013

 -------------------------------------
 # td=(NStates=1) CAM-B3LYP/6-31G(d,p)
 -------------------------------------

 --
 TD
 --
 Symbolic Z-matrix:
 Charge =  0 Multiplicity = 1

                         Standard orientation:
 ---------------------------------------------------------------------
 Center     Atomic      Atomic             Coordinates (Angstroms)
 Number     Number       Type             X           Y           Z
 ---------------------------------------------------------------------
      1         12           0       -7.156104    0.626240    0.111038
      2          6           0       -4.892115   -1.902094    0.532687
      3          6           0       -4.884013    2.791286    1.313966
      4          6           0       -9.337313    3.182169   -0.332701
      5          6           0       -9.472670   -1.760416   -0.776408
      6          7           0       -5.145967    0.386057    0.735199
      7          6           0       -4.403931   -0.670125    0.814170
      8          6           0       -2.946156   -0.488314    1.166178
      9          6           0       -2.985743    1.061515    1.666383
     10          6           0       -4.407539    1.518545    1.160353
     11          6           0       -2.971155    1.124899    3.226217
     12          6           0       -1.938977   -0.590131    0.102766
     13          6           0       -0.451573   -0.476827    0.528825
     14          6           0        0.531147   -0.836940   -0.586180
     15          8           0        0.182447   -1.287792   -1.636580
     16          8           0        1.750012   -0.451774   -0.211188
     17          7           0       -7.102285    2.658145    0.425630
     18          6           0       -6.051231    3.376326    0.892493
     19          6           0       -6.396023    4.772074    0.918001
     20          6           0       -7.618087    4.951084    0.335246
     21          6           0       -8.048074    3.529831    0.145400
     22          6           0       -5.447353    5.843796    1.364354
     23          6           0       -8.579116    6.127897    0.250508
     24          6           0       -8.138740    7.290101   -0.092290
     25          7           0       -9.069335    0.699974   -0.396922
     26          6           0       -9.886553    1.806776   -0.561539
     27          6           0      -11.091552    1.469315   -1.127758
     28          6           0      -11.149538    0.114852   -1.261542
     29          6           0       -9.938287   -0.351057   -0.797010
     30          6           0      -12.214741    2.529345   -1.349487
     31          6           0      -12.364519   -0.705950   -1.697117
     32          6           0      -12.336281   -1.105579   -3.094352
     33          7           0       -7.256545   -1.384400   -0.049042
     34          6           0       -8.288954   -2.218247   -0.453218
     35          6           0       -7.844378   -3.640752   -0.488177
     36          6           0       -6.463435   -3.582684   -0.161908
     37          6           0       -6.262659   -2.210586    0.203599
     38          6           0       -8.517556   -4.828811   -0.932115
     39          6           0       -5.334698   -4.397630    0.124464
     40          8           0       -5.177930   -5.569916    0.071855
     41          6           0       -4.234803   -3.292985    0.483089
     42          6           0       -3.582271   -3.718780    1.819829
     43          8           0       -3.941115   -3.315250    2.888629
     44          8           0       -2.601073   -4.725368    1.605700
     45          6           0       -2.278640   -5.317763    2.853181
     46          6           0        2.764087   -0.669040   -1.226469
     47          6           0        4.090133   -0.406553   -0.596932
     48          6           0        5.126932    0.410903   -0.932675
     49          6           0        5.059640    1.327855   -2.256475
     50          6           0        6.501425    0.472240   -0.240435
     51          6           0        7.559798   -0.130231   -1.039584
     52          6           0        8.976003   -0.022211   -0.282242
     53          6           0       10.181647   -0.423950   -1.002626
     54          6           0       10.071100   -1.977038   -1.462917
     55          6           0       11.371268   -0.134613   -0.080739
     56          6           0       12.693798   -0.454417   -0.856764
     57          6           0       13.926051   -0.088619    0.136320
     58          6           0       15.395502   -0.212780   -0.507145
     59          6           0       15.662875   -1.808261   -0.817723
     60          6           0       16.422857    0.396971    0.347651
     61          6           0       17.822621    0.444481   -0.146608
     62          6           0       18.680567    1.178542    0.863380
     63          6           0       20.228839    1.411056    0.352647
     64          6           0       20.304967    2.217092   -0.940731
     65          6           0       21.248033    1.845216    1.510833
     66          1           0       -4.203365    3.534802    1.927620
     67          1           0      -10.271006    3.816737   -0.756140
     68          1           0      -10.087315   -2.321301   -1.165145
     69          1           0       -2.691437   -1.008019    2.003429
     70          1           0       -2.450437    1.532275    1.114134
     71          1           0       -1.822432    0.807922    3.600161
     72          1           0       -3.087163    2.086232    3.661029
     73          1           0       -3.698329    0.521539    3.793361
     74          1           0       -2.179651   -1.662116   -0.385695
     75          1           0       -2.154299    0.218639   -0.615412
     76          1           0       -0.269287    0.608132    0.661632
     77          1           0        0.001555   -1.018765    1.497762
     78          1           0       -4.670350    6.258666    0.425579
     79          1           0       -5.971189    6.817738    1.670139
     80          1           0       -4.761950    5.617491    2.319161
     81          1           0       -9.658927    5.868435    0.326035
     82          1           0       -8.734745    8.188055   -0.079676
     83          1           0       -6.932582    7.476592   -0.280740
     84          1           0      -11.660211    3.446646   -2.027284
     85          1           0      -13.162685    2.177488   -1.829473
     86          1           0      -12.526603    3.043863   -0.322200
     87          1           0      -12.272758   -1.717250   -0.947755
     88          1           0      -13.127039   -0.014866   -1.351981
     89          1           0      -13.342615   -1.413180   -3.494824
     90          1           0      -11.975675   -0.385453   -3.782149
     91          1           0      -11.616203   -2.053291   -3.416045
     92          1           0       -8.880125   -4.766432   -2.007832
     93          1           0       -7.797768   -5.540290   -0.689392
     94          1           0       -9.367243   -4.979993   -0.375598
     95          1           0       -3.402110   -3.502765   -0.297110
     96          1           0       -1.792138   -4.695106    3.380107
     97          1           0       -3.146761   -5.655140    3.410828
     98          1           0       -1.662354   -6.257525    2.620860
     99          1           0        2.721491   -1.650621   -1.554884
    100          1           0        2.534091    0.036328   -2.027967
    101          1           0        4.220473   -0.770165    0.436333
    102          1           0        4.032078    1.455903   -2.467073
    103          1           0        5.306178    2.291792   -1.946109
    104          1           0        5.534303    0.962347   -3.195508
    105          1           0        6.616971    1.466561    0.185871
    106          1           0        6.370030   -0.068062    0.728866
    107          1           0        7.280404   -1.234616   -1.389793
    108          1           0        7.653720    0.272844   -1.933125
    109          1           0        9.064283    1.095052   -0.159686
    110          1           0        8.583233   -0.492046    0.834020
    111          1           0       10.311993    0.250535   -1.783308
    112          1           0        9.171256   -2.011921   -2.095435
    113          1           0       10.975626   -2.057084   -2.003438
    114          1           0        9.992708   -2.471030   -0.519937
    115          1           0       11.350829    0.900282    0.101225
    116          1           0       11.261851   -0.901543    0.656052
    117          1           0       12.667922   -1.406229   -1.225041
    118          1           0       12.757649    0.215068   -1.744310
    119          1           0       13.604180    0.986520    0.474064
    120          1           0       13.919466   -0.923703    0.933557
    121          1           0       15.556953    0.160376   -1.548169
    122          1           0       15.467875   -2.519262    0.133632
    123          1           0       14.962482   -2.263293   -1.441578
    124          1           0       16.547413   -2.015977   -1.277433
    125          1           0       16.181418    1.240729    0.596513
    126          1           0       16.512874   -0.134720    1.495827
    127          1           0       18.140252   -0.674666   -0.277727
    128          1           0       17.820993    0.864079   -1.195750
    129          1           0       18.148183    2.176433    1.243385
    130          1           0       18.770253    0.629569    1.724228
    131          1           0       20.540044    0.437041    0.286918
    132          1           0       19.727960    3.184428   -0.786485
    133          1           0       21.521070    2.239326   -1.193496
    134          1           0       19.867920    1.705532   -1.930506
    135          1           0       21.005203    1.389907    2.371156
    136          1           0       22.374861    1.725221    1.178597
    137          1           0       21.328452    3.022091    1.581257
 ---------------------------------------------------------------------

 SCF Done:  E(RCAM-B3LYP) =  -2932.56902420     A.U. after   17 cycles

 Excitation energies and oscillator strengths:

 Excited State   1:      Singlet-A      2.2034 eV  562.70 nm  f=0.1317  <S**2>=0.000
     240 -> 243       -0.30740
     241 -> 242        0.61633
 This state for optimization and/or second-order correction.
 Total Energy, E(TD-HF/TD-KS) =  -2932.48805141
 Copying the excited state density for this state as the 1-particle RhoCI density.

 The electronic state is 1-A.
 Alpha  occ. eigenvalues --  -46.83773 -19.26612 -19.25194 -19.21466 -19.21097
 Alpha  occ. eigenvalues --  -19.20795 -14.41113 -14.39708 -14.39182 -14.38242
 Alpha  occ. eigenvalues --  -10.38886 -10.38770 -10.35185 -10.31754 -10.30950
 Alpha  occ. eigenvalues --  -10.29822 -10.29725 -10.29582 -10.29489 -10.29156
 Alpha  occ. eigenvalues --  -10.28998 -10.28957 -10.28951 -10.28771 -10.28511
 Alpha  occ. eigenvalues --  -10.28492 -10.28426 -10.28305 -10.27803 -10.27757
 Alpha  occ. eigenvalues --  -10.27690 -10.27612 -10.27540 -10.27435 -10.27307
 Alpha  occ. eigenvalues --  -10.27263 -10.27169 -10.27023 -10.27011 -10.27000
 Alpha  occ. eigenvalues --  -10.26803 -10.26353 -10.26190 -10.26118 -10.26047
 Alpha  occ. eigenvalues --  -10.26042 -10.26030 -10.25995 -10.25559 -10.25554
 Alpha  occ. eigenvalues --  -10.25513 -10.25455 -10.25378 -10.25348 -10.25289
 Alpha  occ. eigenvalues --  -10.25190 -10.25172 -10.25124 -10.25024 -10.24767
 Alpha  occ. eigenvalues --  -10.24712 -10.24510 -10.24357 -10.24318 -10.23586
 Alpha  occ. eigenvalues --   -3.12953  -1.87647  -1.87175  -1.87164  -1.19028
 Alpha  occ. eigenvalues --   -1.16707  -1.13384  -1.10319  -1.09349  -1.05463
 Alpha  occ. eigenvalues --   -1.04840  -1.03678  -1.01527  -0.91970  -0.91390
 Alpha  occ. eigenvalues --   -0.90494  -0.90208  -0.89652  -0.89539  -0.89252
 Alpha  occ. eigenvalues --   -0.88504  -0.88145  -0.86949  -0.86780  -0.86290
 Alpha  occ. eigenvalues --   -0.85100  -0.83974  -0.83260  -0.83043  -0.82373
 Alpha  occ. eigenvalues --   -0.81344  -0.80946  -0.80226  -0.79771  -0.78535
 Alpha  occ. eigenvalues --   -0.77557  -0.76235  -0.76022  -0.75690  -0.75585
 Alpha  occ. eigenvalues --   -0.75021  -0.74628  -0.74215  -0.73154  -0.72393
 Alpha  occ. eigenvalues --   -0.71945  -0.70494  -0.69628  -0.69076  -0.68629
 Alpha  occ. eigenvalues --   -0.67305  -0.66936  -0.66268  -0.65068  -0.64749
 Alpha  occ. eigenvalues --   -0.63976  -0.63744  -0.63583  -0.62907  -0.62013
 Alpha  occ. eigenvalues --   -0.61706  -0.60285  -0.59702  -0.59548  -0.59404
 Alpha  occ. eigenvalues --   -0.58806  -0.58170  -0.57216  -0.56919  -0.56531
 Alpha  occ. eigenvalues --   -0.56031  -0.55810  -0.55437  -0.55012  -0.54757
 Alpha  occ. eigenvalues --   -0.54348  -0.54025  -0.53553  -0.53395  -0.52960
 Alpha  occ. eigenvalues --   -0.52730  -0.52460  -0.52266  -0.51968  -0.51536
 Alpha  occ. eigenvalues --   -0.51190  -0.51159  -0.51008  -0.50924  -0.50576
 Alpha  occ. eigenvalues --   -0.50342  -0.50057  -0.49787  -0.49685  -0.49528
 Alpha  occ. eigenvalues --   -0.49334  -0.49128  -0.48968  -0.48838  -0.48169
 Alpha  occ. eigenvalues --   -0.48047  -0.47943  -0.47657  -0.47637  -0.46926
 Alpha  occ. eigenvalues --   -0.46756  -0.46694  -0.46593  -0.46221  -0.46055
 Alpha  occ. eigenvalues --   -0.45903  -0.45792  -0.45673  -0.45485  -0.45411
 Alpha  occ. eigenvalues --   -0.45200  -0.44915  -0.44416  -0.44280  -0.44056
 Alpha  occ. eigenvalues --   -0.43957  -0.43732  -0.43574  -0.43391  -0.43218
 Alpha  occ. eigenvalues --   -0.43010  -0.42801  -0.42587  -0.42476  -0.42374
 Alpha  occ. eigenvalues --   -0.42186  -0.41955  -0.41720  -0.41604  -0.41512
 Alpha  occ. eigenvalues --   -0.41325  -0.41264  -0.40884  -0.40750  -0.40020
 Alpha  occ. eigenvalues --   -0.39788  -0.39627  -0.39493  -0.38919  -0.38844
 Alpha  occ. eigenvalues --   -0.38422  -0.38202  -0.38073  -0.37858  -0.37453
 Alpha  occ. eigenvalues --   -0.37276  -0.37213  -0.37083  -0.36989  -0.36789
 Alpha  occ. eigenvalues --   -0.36516  -0.35851  -0.35797  -0.35614  -0.35334
 Alpha  occ. eigenvalues --   -0.35141  -0.34920  -0.34904  -0.33879  -0.33590
 Alpha  occ. eigenvalues --   -0.33345  -0.33071  -0.32814  -0.30545  -0.30431
 Alpha  occ. eigenvalues --   -0.30064  -0.30004  -0.28601  -0.27684  -0.22810
 Alpha  occ. eigenvalues --   -0.21555
 Alpha virt. eigenvalues --   -0.05628  -0.03870   0.02036   0.04784   0.05678
 Alpha virt. eigenvalues --    0.06168   0.06439   0.07343   0.07505   0.07731
 Alpha virt. eigenvalues --    0.08890   0.10383   0.10834   0.11253   0.11953

 Mulliken charges:
               1
     1  Mg   0.817763
     2  C    0.044997
     3  C   -0.232659
     4  C   -0.166652
     5  C   -0.128078
     6  N   -0.632580
     7  C    0.351533
     8  C   -0.146989
     9  C   -0.081134
    10  C    0.271104
    11  C   -0.307857
    12  C   -0.160031
    13  C   -0.270916
    14  C    0.610675
    15  O   -0.463960
    16  O   -0.473428
    17  N   -0.678004
    18  C    0.350064
    19  C    0.029990
    20  C    0.009584
    21  C    0.269198
    22  C   -0.371067
    23  C   -0.039098
    24  C   -0.242314
    25  N   -0.684791
    26  C    0.262970
    27  C    0.016317
    28  C    0.021943
    29  C    0.221941
    30  C   -0.367046
    31  C   -0.199681
    32  C   -0.298596
    33  N   -0.694121
    34  C    0.313517
    35  C    0.030863
    36  C   -0.010105
    37  C    0.280899
    38  C   -0.377142
    39  C    0.389099
    40  O   -0.437469
    41  C   -0.350343
    42  C    0.620106
    43  O   -0.453697
    44  O   -0.480211
    45  C   -0.071255
    46  C    0.022818
    47  C   -0.132963
    48  C    0.060172
    49  C   -0.365239
    50  C   -0.215063
    51  C   -0.169334
    52  C   -0.150190
    53  C   -0.102200
    54  C   -0.309995
    55  C   -0.156804
    56  C   -0.204375
    57  C   -0.167300
    58  C   -0.072654
    59  C   -0.331538
    60  C   -0.102708
    61  C   -0.176708
    62  C   -0.186724
    63  C   -0.049095
    64  C   -0.291214
    65  C   -0.315590
    66  H    0.081634
    67  H    0.086753
    68  H    0.034491
    69  H    0.126656
    70  H    0.084535
    71  H    0.073030
    72  H    0.117372
    73  H    0.137337
    74  H    0.107388
    75  H    0.108354
    76  H    0.134783
    77  H    0.124476
    78  H    0.086626
    79  H    0.118318
    80  H    0.100939
    81  H    0.110873
    82  H    0.106333
    83  H    0.094043
    84  H    0.091614
    85  H    0.114733
    86  H    0.114553
    87  H    0.079061
    88  H    0.112871
    89  H    0.101480
    90  H    0.125809
    91  H    0.081327
    92  H    0.130347
    93  H    0.155971
    94  H    0.135966
    95  H    0.152621
    96  H    0.127187
    97  H    0.124436
    98  H    0.107352
    99  H    0.145721
   100  H    0.124415
   101  H    0.089067
   102  H    0.107173
   103  H    0.120777
   104  H    0.120174
   105  H    0.107212
   106  H    0.090595
   107  H    0.080305
   108  H    0.108590
   109  H    0.081303
   110  H    0.056858
   111  H    0.090534
   112  H    0.107221
   113  H    0.110493
   114  H    0.112717
   115  H    0.097632
   116  H    0.100145
   117  H    0.104954
   118  H    0.081791
   119  H    0.080600
   120  H    0.095715
   121  H    0.083643
   122  H    0.072476
   123  H    0.107593
   124  H    0.110807
   125  H    0.097258
   126  H    0.038281
   127  H    0.084985
   128  H    0.085163
   129  H    0.067711
   130  H    0.103618
   131  H    0.106937
   132  H    0.108032
   133  H    0.075402
   134  H    0.091351
   135  H    0.115407
   136  H    0.087298
   137  H    0.084147
 Sum of Mulliken charges =   0.00000

 Dipole moment (field-independent basis, Debye):
    X=              1.3990    Y=              4.5227    Z=             -0.4590  Tot=              4.7564
 Quadrupole moment (field-independent basis, Debye-Ang):
   XX=           -349.8948   YY=           -393.6669   ZZ=           -395.9222
   XY=            -17.8179   XZ=              6.1134   YZ=             -0.9930

 Normal termination of Gaussian 09 at Sun Jun 30 22:32:12 2019.
