 Gaussian 09, Revision D.01,
 Gaussian 09:  ES64L-G09RevD.01 24-Apr-2013

 -------------------------------------
 # td=(NStates=1) CAM-B3LYP/6-31G(d,p)
 -------------------------------------

 --
 TD
 --
 Symbolic Z-matrix:
 Charge =  0 Multiplicity = 1

                         Standard orientation:
 ---------------------------------------------------------------------
 Center     Atomic      Atomic             Coordinates (Angstroms)
 Number     Number       Type             X           Y           Z
 ---------------------------------------------------------------------
      1         12           0       -7.168945    0.581858    0.131158
      2          6           0       -4.754766   -1.951560    0.377201
      3          6           0       -4.844039    2.837177    1.004598
      4          6           0       -9.552902    3.055212   -0.318646
      5          6           0       -9.537883   -1.787868   -0.951639
      6          7           0       -5.042782    0.445728    0.652154
      7          6           0       -4.303479   -0.747662    0.746172
      8          6           0       -2.921799   -0.280595    1.148244
      9          6           0       -3.059085    1.193157    1.499789
     10          6           0       -4.400893    1.545575    1.089267
     11          6           0       -2.841562    1.462745    2.960073
     12          6           0       -1.868197   -0.551316   -0.035383
     13          6           0       -0.379906   -0.323536    0.441653
     14          6           0        0.463189   -0.676062   -0.641262
     15          8           0        0.256305   -0.948526   -1.710694
     16          8           0        1.722968   -0.642465   -0.173381
     17          7           0       -7.210123    2.538846    0.216833
     18          6           0       -6.089110    3.332285    0.711834
     19          6           0       -6.539954    4.728242    0.830261
     20          6           0       -7.855734    4.796973    0.506127
     21          6           0       -8.239669    3.493169    0.073580
     22          6           0       -5.655158    5.901943    1.415824
     23          6           0       -8.788709    5.981661    0.353171
     24          6           0       -8.479135    7.271747    0.173095
     25          7           0       -9.187435    0.602794   -0.555988
     26          6           0       -9.916472    1.757344   -0.729077
     27          6           0      -11.279884    1.387192   -1.069945
     28          6           0      -11.330031    0.001680   -1.203387
     29          6           0       -9.983472   -0.411987   -0.931424
     30          6           0      -12.347104    2.486457   -1.353948
     31          6           0      -12.487892   -0.874767   -1.767245
     32          6           0      -12.274645   -1.207008   -3.303659
     33          7           0       -7.134278   -1.388836   -0.205139
     34          6           0       -8.233643   -2.276695   -0.500725
     35          6           0       -7.838151   -3.638610   -0.436216
     36          6           0       -6.456439   -3.578708   -0.011747
     37          6           0       -6.112216   -2.159750    0.072224
     38          6           0       -8.530734   -4.802166   -0.637435
     39          6           0       -5.310679   -4.299476    0.254366
     40          8           0       -5.191800   -5.548891    0.387439
     41          6           0       -4.094894   -3.198517    0.614113
     42          6           0       -3.575400   -3.608733    1.933901
     43          8           0       -3.760503   -3.045263    2.985804
     44          8           0       -2.670996   -4.599732    1.823626
     45          6           0       -2.004315   -4.968631    3.095678
     46          6           0        2.849535   -0.751461   -1.141482
     47          6           0        4.142431   -0.448820   -0.346198
     48          6           0        5.137098    0.252508   -0.904863
     49          6           0        5.062620    1.002530   -2.117192
     50          6           0        6.547812    0.365429   -0.262683
     51          6           0        7.627051   -0.363771   -1.030816
     52          6           0        8.944781   -0.224793   -0.268119
     53          6           0       10.215537   -0.651332   -0.872623
     54          6           0       10.214319   -2.122513   -1.393550
     55          6           0       11.450012   -0.402122   -0.035037
     56          6           0       12.834629   -0.609519   -0.545978
     57          6           0       13.985858   -0.095138    0.325955
     58          6           0       15.415970   -0.143624   -0.436409
     59          6           0       15.749344   -1.499376   -0.936399
     60          6           0       16.517079    0.441257    0.454260
     61          6           0       17.854354    0.601145   -0.119608
     62          6           0       18.754699    1.331334    0.674660
     63          6           0       20.203660    1.440346    0.197395
     64          6           0       20.300546    2.114516   -1.115318
     65          6           0       21.096002    2.161897    1.211585
     66          1           0       -4.090014    3.520692    1.642281
     67          1           0      -10.229350    3.784102   -0.405758
     68          1           0      -10.311699   -2.476558   -0.854864
     69          1           0       -2.731890   -0.935722    1.903902
     70          1           0       -2.256663    1.701933    0.833573
     71          1           0       -1.824290    1.393783    3.371146
     72          1           0       -3.005136    2.538407    3.205044
     73          1           0       -3.395179    0.822487    3.459153
     74          1           0       -2.105335   -1.569037   -0.173365
     75          1           0       -2.148789   -0.088902   -0.911761
     76          1           0       -0.181941    0.576359    0.801341
     77          1           0       -0.242021   -0.821997    1.283237
     78          1           0       -5.119973    6.432073    0.629249
     79          1           0       -6.376995    6.731312    1.898963
     80          1           0       -4.746742    5.528317    2.247772
     81          1           0       -9.757854    5.541123    0.379950
     82          1           0       -9.303836    7.946910    0.052269
     83          1           0       -7.468572    7.656423    0.093444
     84          1           0      -12.075908    3.235184   -2.106383
     85          1           0      -13.426041    1.984579   -1.638986
     86          1           0      -12.529483    2.805064   -0.399562
     87          1           0      -12.455947   -1.842057   -1.145284
     88          1           0      -13.407097   -0.475225   -1.659687
     89          1           0      -13.014872   -1.847767   -3.723502
     90          1           0      -12.410773   -0.394709   -3.841568
     91          1           0      -11.222661   -1.826281   -3.408096
     92          1           0       -8.931224   -5.022430   -1.523281
     93          1           0       -7.903076   -5.572777   -0.512935
     94          1           0       -9.510959   -4.959142    0.009803
     95          1           0       -3.424899   -3.433251   -0.115281
     96          1           0       -1.423412   -3.998973    3.724087
     97          1           0       -2.712198   -5.400791    3.527398
     98          1           0       -1.103940   -5.560284    2.658142
     99          1           0        2.901168   -1.806063   -1.689816
    100          1           0        2.536035   -0.157013   -2.006061
    101          1           0        4.344239   -1.029990    0.721499
    102          1           0        4.214802    1.019656   -2.508324
    103          1           0        5.176551    2.080823   -2.127263
    104          1           0        5.684137    0.796926   -2.960058
    105          1           0        6.773619    1.379563   -0.012772
    106          1           0        6.738248    0.002796    0.677699
    107          1           0        7.400484   -1.444025   -1.274636
    108          1           0        7.610927    0.127396   -2.057964
    109          1           0        9.165607    0.873695    0.116765
    110          1           0        8.752996   -0.779933    0.580631
    111          1           0       10.223723   -0.050041   -1.782540
    112          1           0        9.401791   -2.484030   -2.035093
    113          1           0       11.210911   -2.280575   -1.865150
    114          1           0       10.126887   -2.851577   -0.674616
    115          1           0       11.455258    0.684622    0.433015
    116          1           0       11.293926   -0.953547    1.003744
    117          1           0       13.106309   -1.651548   -0.886550
    118          1           0       12.791897   -0.022117   -1.402742
    119          1           0       13.660101    0.896411    0.846718
    120          1           0       14.012292   -1.005154    1.223966
    121          1           0       15.384117    0.525746   -1.338179
    122          1           0       15.641153   -2.110349    0.090892
    123          1           0       15.102759   -1.977567   -1.637190
    124          1           0       16.753423   -1.491104   -1.262450
    125          1           0       16.196767    1.373812    0.872939
    126          1           0       16.426299   -0.082160    1.426040
    127          1           0       18.267997   -0.303646   -0.550639
    128          1           0       17.618627    0.889717   -1.241760
    129          1           0       18.407982    2.376850    0.988452
    130          1           0       18.826809    0.923732    1.714746
    131          1           0       20.706681    0.420723    0.048164
    132          1           0       19.950501    3.247746   -1.013197
    133          1           0       21.382507    2.329166   -1.432023
    134          1           0       19.842268    1.829397   -2.058101
    135          1           0       21.202110    1.769830    2.320391
    136          1           0       22.176646    2.045923    0.713403
    137          1           0       20.710628    3.095648    1.424256
 ---------------------------------------------------------------------

 SCF Done:  E(RCAM-B3LYP) =  -2932.59971411     A.U. after   16 cycles

 Excitation energies and oscillator strengths:

 Excited State   1:      Singlet-A      1.9243 eV  644.31 nm  f=0.2708  <S**2>=0.000
     240 -> 243        0.22338
     241 -> 242        0.66602
 This state for optimization and/or second-order correction.
 Total Energy, E(TD-HF/TD-KS) =  -2932.52899723
 Copying the excited state density for this state as the 1-particle RhoCI density.

 The electronic state is 1-A.
 Alpha  occ. eigenvalues --  -46.84142 -19.25168 -19.23670 -19.20587 -19.19749
 Alpha  occ. eigenvalues --  -19.18827 -14.41259 -14.39972 -14.39797 -14.39220
 Alpha  occ. eigenvalues --  -10.38176 -10.37065 -10.34029 -10.32768 -10.31919
 Alpha  occ. eigenvalues --  -10.31205 -10.30671 -10.30240 -10.30123 -10.29794
 Alpha  occ. eigenvalues --  -10.29575 -10.29078 -10.28978 -10.28965 -10.28373
 Alpha  occ. eigenvalues --  -10.28282 -10.28257 -10.28173 -10.27863 -10.27723
 Alpha  occ. eigenvalues --  -10.27555 -10.27271 -10.27208 -10.27006 -10.26953
 Alpha  occ. eigenvalues --  -10.26853 -10.26793 -10.26776 -10.26615 -10.26581
 Alpha  occ. eigenvalues --  -10.26510 -10.26505 -10.26489 -10.26383 -10.26023
 Alpha  occ. eigenvalues --  -10.25971 -10.25968 -10.25861 -10.25694 -10.25659
 Alpha  occ. eigenvalues --  -10.25213 -10.25146 -10.25141 -10.24995 -10.24902
 Alpha  occ. eigenvalues --  -10.24872 -10.24871 -10.24682 -10.24657 -10.24586
 Alpha  occ. eigenvalues --  -10.24368 -10.24099 -10.23871 -10.23721 -10.23063
 Alpha  occ. eigenvalues --   -3.13210  -1.87907  -1.87437  -1.87409  -1.20396
 Alpha  occ. eigenvalues --   -1.17280  -1.09827  -1.07895  -1.07329  -1.04374
 Alpha  occ. eigenvalues --   -1.03452  -1.02867  -1.01274  -0.93483  -0.91908
 Alpha  occ. eigenvalues --   -0.91704  -0.90628  -0.90178  -0.89653  -0.89077
 Alpha  occ. eigenvalues --   -0.88853  -0.88364  -0.87926  -0.87279  -0.86798
 Alpha  occ. eigenvalues --   -0.86079  -0.84475  -0.84005  -0.83340  -0.82660
 Alpha  occ. eigenvalues --   -0.82014  -0.81758  -0.81295  -0.81174  -0.79687
 Alpha  occ. eigenvalues --   -0.78274  -0.77097  -0.76784  -0.76352  -0.75678
 Alpha  occ. eigenvalues --   -0.75603  -0.75163  -0.74852  -0.73792  -0.73196
 Alpha  occ. eigenvalues --   -0.72297  -0.71385  -0.70509  -0.69522  -0.68703
 Alpha  occ. eigenvalues --   -0.67392  -0.67237  -0.65897  -0.65518  -0.64838
 Alpha  occ. eigenvalues --   -0.64274  -0.63735  -0.63387  -0.63000  -0.62068
 Alpha  occ. eigenvalues --   -0.61588  -0.61398  -0.60475  -0.60023  -0.59440
 Alpha  occ. eigenvalues --   -0.59122  -0.58813  -0.58364  -0.58071  -0.57164
 Alpha  occ. eigenvalues --   -0.56984  -0.56189  -0.55314  -0.55004  -0.54833
 Alpha  occ. eigenvalues --   -0.54484  -0.54067  -0.53921  -0.53742  -0.53468
 Alpha  occ. eigenvalues --   -0.53222  -0.52869  -0.52714  -0.52197  -0.51927
 Alpha  occ. eigenvalues --   -0.51747  -0.51570  -0.51404  -0.51308  -0.50876
 Alpha  occ. eigenvalues --   -0.50716  -0.50590  -0.50225  -0.50008  -0.49525
 Alpha  occ. eigenvalues --   -0.49304  -0.49157  -0.48987  -0.48595  -0.48460
 Alpha  occ. eigenvalues --   -0.48425  -0.48067  -0.47882  -0.47604  -0.47400
 Alpha  occ. eigenvalues --   -0.46824  -0.46528  -0.46497  -0.46349  -0.46205
 Alpha  occ. eigenvalues --   -0.46039  -0.45678  -0.45383  -0.45205  -0.45086
 Alpha  occ. eigenvalues --   -0.44971  -0.44595  -0.44379  -0.43957  -0.43870
 Alpha  occ. eigenvalues --   -0.43823  -0.43667  -0.43543  -0.43472  -0.43155
 Alpha  occ. eigenvalues --   -0.43016  -0.42978  -0.42702  -0.42623  -0.42283
 Alpha  occ. eigenvalues --   -0.42008  -0.41905  -0.41693  -0.41610  -0.41516
 Alpha  occ. eigenvalues --   -0.41238  -0.40789  -0.40575  -0.40519  -0.40314
 Alpha  occ. eigenvalues --   -0.40134  -0.40054  -0.39979  -0.39648  -0.39622
 Alpha  occ. eigenvalues --   -0.39301  -0.39199  -0.38635  -0.38134  -0.37957
 Alpha  occ. eigenvalues --   -0.37417  -0.37137  -0.36740  -0.36708  -0.36338
 Alpha  occ. eigenvalues --   -0.36123  -0.35920  -0.35778  -0.35575  -0.35450
 Alpha  occ. eigenvalues --   -0.35321  -0.35241  -0.34919  -0.33983  -0.33586
 Alpha  occ. eigenvalues --   -0.33213  -0.33003  -0.32048  -0.31140  -0.29840
 Alpha  occ. eigenvalues --   -0.29097  -0.28751  -0.28568  -0.28093  -0.23772
 Alpha  occ. eigenvalues --   -0.21319
 Alpha virt. eigenvalues --   -0.07349  -0.03458   0.01201   0.04117   0.05435
 Alpha virt. eigenvalues --    0.06252   0.06520   0.06932   0.07410   0.08119
 Alpha virt. eigenvalues --    0.09534   0.10076   0.11382   0.11733   0.12297

 Mulliken charges:
               1
     1  Mg   0.827037
     2  C    0.092313
     3  C   -0.191553
     4  C   -0.165973
     5  C   -0.143891
     6  N   -0.651617
     7  C    0.283267
     8  C   -0.169992
     9  C   -0.164045
    10  C    0.378372
    11  C   -0.307205
    12  C   -0.191945
    13  C   -0.266732
    14  C    0.609404
    15  O   -0.423541
    16  O   -0.515480
    17  N   -0.717643
    18  C    0.306744
    19  C   -0.000022
    20  C    0.025547
    21  C    0.276659
    22  C   -0.360970
    23  C   -0.035017
    24  C   -0.249971
    25  N   -0.653824
    26  C    0.294673
    27  C   -0.026245
    28  C    0.015725
    29  C    0.268768
    30  C   -0.360962
    31  C   -0.220514
    32  C   -0.302064
    33  N   -0.730922
    34  C    0.206063
    35  C    0.107217
    36  C    0.054774
    37  C    0.317688
    38  C   -0.410610
    39  C    0.261532
    40  O   -0.501816
    41  C   -0.325478
    42  C    0.637773
    43  O   -0.492338
    44  O   -0.469914
    45  C   -0.049804
    46  C    0.005060
    47  C   -0.142712
    48  C    0.130643
    49  C   -0.361911
    50  C   -0.219764
    51  C   -0.177974
    52  C   -0.170682
    53  C   -0.048668
    54  C   -0.329356
    55  C   -0.171078
    56  C   -0.165271
    57  C   -0.172264
    58  C   -0.069608
    59  C   -0.292213
    60  C   -0.165810
    61  C   -0.159844
    62  C   -0.166580
    63  C   -0.060631
    64  C   -0.297084
    65  C   -0.299389
    66  H    0.073446
    67  H    0.072221
    68  H    0.100244
    69  H    0.120527
    70  H    0.107093
    71  H    0.104805
    72  H    0.098262
    73  H    0.138726
    74  H    0.115863
    75  H    0.128228
    76  H    0.145488
    77  H    0.148554
    78  H    0.134402
    79  H    0.113096
    80  H    0.087808
    81  H    0.093178
    82  H    0.109978
    83  H    0.113203
    84  H    0.132041
    85  H    0.084293
    86  H    0.141818
    87  H    0.092098
    88  H    0.110781
    89  H    0.104239
    90  H    0.126276
    91  H    0.092236
    92  H    0.139562
    93  H    0.157640
    94  H    0.109369
    95  H    0.166659
    96  H    0.096348
    97  H    0.151321
    98  H    0.124687
    99  H    0.111392
   100  H    0.132747
   101  H    0.097181
   102  H    0.107160
   103  H    0.114514
   104  H    0.121947
   105  H    0.104150
   106  H    0.094593
   107  H    0.098597
   108  H    0.080716
   109  H    0.071356
   110  H    0.101503
   111  H    0.087085
   112  H    0.097900
   113  H    0.098140
   114  H    0.108781
   115  H    0.068652
   116  H    0.064751
   117  H    0.094830
   118  H    0.103418
   119  H    0.084669
   120  H    0.050488
   121  H    0.078928
   122  H    0.078166
   123  H    0.111701
   124  H    0.104960
   125  H    0.093983
   126  H    0.082633
   127  H    0.100955
   128  H    0.072056
   129  H    0.080876
   130  H    0.095088
   131  H    0.082760
   132  H    0.073820
   133  H    0.086547
   134  H    0.113126
   135  H    0.083829
   136  H    0.088817
   137  H    0.114356
 Sum of Mulliken charges =   0.00000

 Dipole moment (field-independent basis, Debye):
    X=              0.4995    Y=              5.7773    Z=              0.0267  Tot=              5.7990
 Quadrupole moment (field-independent basis, Debye-Ang):
   XX=           -328.6359   YY=           -393.8904   ZZ=           -395.6451
   XY=            -26.1704   XZ=              6.8819   YZ=              2.6470

 Normal termination of Gaussian 09 at Sun Jun 30 07:30:18 2019.
