 Gaussian 09, Revision D.01,
 Gaussian 09:  ES64L-G09RevD.01 24-Apr-2013

 -------------------------------------
 # td=(NStates=1) CAM-B3LYP/6-31G(d,p)
 -------------------------------------

 --
 TD
 --
 Symbolic Z-matrix:
 Charge =  0 Multiplicity = 1

                         Standard orientation:
 ---------------------------------------------------------------------
 Center     Atomic      Atomic             Coordinates (Angstroms)
 Number     Number       Type             X           Y           Z
 ---------------------------------------------------------------------
      1         12           0       -7.130431    0.633822    0.100970
      2          6           0       -4.836198   -1.936654    0.468397
      3          6           0       -4.804700    2.812767    1.220143
      4          6           0       -9.406354    3.109359   -0.318738
      5          6           0       -9.610365   -1.708342   -0.827759
      6          7           0       -5.148337    0.477975    0.716700
      7          6           0       -4.406568   -0.578345    0.801416
      8          6           0       -2.911999   -0.357930    1.182677
      9          6           0       -2.957442    1.078527    1.570163
     10          6           0       -4.396287    1.513555    1.081661
     11          6           0       -2.808921    1.442807    3.140723
     12          6           0       -1.966027   -0.574709    0.107801
     13          6           0       -0.539227   -0.463407    0.362446
     14          6           0        0.498600   -0.767161   -0.726013
     15          8           0        0.223205   -1.150322   -1.822772
     16          8           0        1.754810   -0.556471   -0.240165
     17          7           0       -7.066605    2.569265    0.281208
     18          6           0       -6.042224    3.280555    0.768769
     19          6           0       -6.401656    4.755630    0.899460
     20          6           0       -7.650957    4.811448    0.422210
     21          6           0       -8.114286    3.485811    0.044294
     22          6           0       -5.480232    5.725091    1.448413
     23          6           0       -8.577891    6.047163    0.288819
     24          6           0       -8.186251    7.327037    0.026797
     25          7           0       -9.143028    0.786755   -0.564566
     26          6           0       -9.936170    1.877127   -0.609029
     27          6           0      -11.245286    1.571608   -1.094675
     28          6           0      -11.289705    0.051304   -1.172374
     29          6           0       -9.966711   -0.300753   -0.835740
     30          6           0      -12.356828    2.543575   -1.353321
     31          6           0      -12.385748   -0.782174   -1.551649
     32          6           0      -12.258683   -1.194798   -3.001896
     33          7           0       -7.276824   -1.407937   -0.085676
     34          6           0       -8.240854   -2.229106   -0.523430
     35          6           0       -7.766546   -3.585660   -0.586035
     36          6           0       -6.510461   -3.511794    0.010680
     37          6           0       -6.250866   -2.204430    0.221227
     38          6           0       -8.527754   -4.913073   -0.817417
     39          6           0       -5.306311   -4.351385    0.203225
     40          8           0       -5.179318   -5.580915    0.242772
     41          6           0       -4.183773   -3.307542    0.560117
     42          6           0       -3.483174   -3.635313    1.781406
     43          8           0       -3.564937   -3.225632    2.951150
     44          8           0       -2.607519   -4.777683    1.511779
     45          6           0       -1.997053   -5.273379    2.689488
     46          6           0        2.762509   -0.809357   -1.237597
     47          6           0        4.057907   -0.578540   -0.559384
     48          6           0        5.059894    0.299386   -0.849061
     49          6           0        4.993922    1.248311   -2.070502
     50          6           0        6.345268    0.427247   -0.145280
     51          6           0        7.581563   -0.197506   -0.873867
     52          6           0        8.851725   -0.051653   -0.094970
     53          6           0       10.106618   -0.636793   -0.776349
     54          6           0       10.016199   -2.066926   -1.155453
     55          6           0       11.394036   -0.207242    0.060652
     56          6           0       12.772180   -0.457980   -0.595539
     57          6           0       13.965960   -0.053351    0.284558
     58          6           0       15.287426   -0.171753   -0.436125
     59          6           0       15.627136   -1.596751   -0.994791
     60          6           0       16.405456    0.400554    0.407619
     61          6           0       17.822567    0.544717   -0.277428
     62          6           0       18.737762    1.417121    0.582736
     63          6           0       20.152091    1.387168    0.212882
     64          6           0       20.505368    2.186571   -1.102141
     65          6           0       21.016428    2.007529    1.351904
     66          1           0       -4.133607    3.431245    1.584849
     67          1           0      -10.012909    3.973263   -0.641901
     68          1           0      -10.363045   -2.606139   -0.870852
     69          1           0       -2.467564   -0.942420    2.001235
     70          1           0       -2.394390    1.672592    1.000322
     71          1           0       -1.905370    1.012620    3.379282
     72          1           0       -2.886875    2.442346    3.442185
     73          1           0       -3.473552    0.827300    3.653716
     74          1           0       -2.223123   -1.671422   -0.416329
     75          1           0       -2.325538   -0.134146   -0.866990
     76          1           0       -0.120536    0.417157    0.503686
     77          1           0       -0.060372   -1.227547    1.235477
     78          1           0       -4.783526    6.229042    0.597408
     79          1           0       -6.061714    6.673384    1.728847
     80          1           0       -4.750093    5.433533    2.211877
     81          1           0       -9.574180    5.588910    0.410782
     82          1           0       -8.948093    8.219294   -0.116904
     83          1           0       -7.139371    7.683326   -0.304160
     84          1           0      -12.170467    2.994137   -2.362417
     85          1           0      -13.561871    2.139498   -1.538756
     86          1           0      -12.326952    3.284372   -0.595785
     87          1           0      -12.223495   -1.579419   -1.036567
     88          1           0      -13.147084   -0.125872   -1.206132
     89          1           0      -13.113712   -1.738161   -3.566224
     90          1           0      -12.311597   -0.286733   -3.656443
     91          1           0      -11.230872   -1.634711   -3.123074
     92          1           0       -9.211403   -4.782561   -1.799977
     93          1           0       -7.784456   -5.756719   -0.587940
     94          1           0       -9.353824   -4.861809   -0.143440
     95          1           0       -3.483162   -3.350285   -0.308391
     96          1           0       -1.307223   -4.664399    3.369643
     97          1           0       -2.754076   -5.745415    3.359324
     98          1           0       -1.185580   -6.067095    2.408404
     99          1           0        2.817307   -1.847406   -1.686485
    100          1           0        2.579416   -0.186714   -2.167484
    101          1           0        4.379275   -1.348710    0.247297
    102          1           0        3.871074    1.284047   -2.416840
    103          1           0        5.264153    2.243184   -1.688232
    104          1           0        5.533713    0.998099   -2.941423
    105          1           0        6.761560    1.403441    0.168641
    106          1           0        6.388721   -0.236924    0.673213
    107          1           0        7.384573   -1.249625   -1.280203
    108          1           0        7.639449    0.406900   -1.838753
    109          1           0        9.238238    0.889304    0.045118
    110          1           0        8.668363   -0.470343    0.818872
    111          1           0       10.120112   -0.033653   -1.719086
    112          1           0        9.119793   -2.099424   -1.712431
    113          1           0       11.076606   -2.404756   -1.597036
    114          1           0       10.030005   -2.617622   -0.334083
    115          1           0       11.347718    0.666529    0.464501
    116          1           0       11.371400   -0.778782    0.894811
    117          1           0       12.789284   -1.577240   -0.932137
    118          1           0       12.781421    0.012385   -1.601414
    119          1           0       13.827929    0.932161    0.676827
    120          1           0       14.263246   -0.714400    1.238619
    121          1           0       15.396282    0.294677   -1.429346
    122          1           0       15.857396   -2.382869   -0.035535
    123          1           0       14.884143   -1.850804   -1.681970
    124          1           0       16.521177   -1.829399   -1.635013
    125          1           0       16.108940    1.317853    0.748166
    126          1           0       16.394051   -0.406419    1.260753
    127          1           0       18.217622   -0.477965   -0.179978
    128          1           0       17.842469    0.971757   -1.340611
    129          1           0       18.239393    2.368287    0.555027
    130          1           0       18.524829    1.038986    1.648155
    131          1           0       20.312176    0.259619    0.220757
    132          1           0       19.958342    3.065255   -1.083460
    133          1           0       21.603260    2.291554   -1.212141
    134          1           0       20.082762    1.528641   -2.099548
    135          1           0       20.934167    1.226869    2.207137
    136          1           0       22.055535    2.111838    0.943289
    137          1           0       20.659900    3.005432    1.585157
 ---------------------------------------------------------------------

 SCF Done:  E(RCAM-B3LYP) =  -2932.63920340     A.U. after   18 cycles

 Excitation energies and oscillator strengths:

 Excited State   1:      Singlet-A      2.0733 eV  598.01 nm  f=0.2111  <S**2>=0.000
     240 -> 242       -0.14163
     240 -> 243       -0.25077
     241 -> 242        0.63108
     241 -> 243       -0.10708
 This state for optimization and/or second-order correction.
 Total Energy, E(TD-HF/TD-KS) =  -2932.56301147
 Copying the excited state density for this state as the 1-particle RhoCI density.

 The electronic state is 1-A.
 Alpha  occ. eigenvalues --  -46.84629 -19.27202 -19.24837 -19.21934 -19.21437
 Alpha  occ. eigenvalues --  -19.21145 -14.42569 -14.40330 -14.39218 -14.38897
 Alpha  occ. eigenvalues --  -10.39892 -10.39471 -10.36145 -10.32879 -10.31794
 Alpha  occ. eigenvalues --  -10.31005 -10.30919 -10.30585 -10.30455 -10.30393
 Alpha  occ. eigenvalues --  -10.29329 -10.29283 -10.29176 -10.29162 -10.29013
 Alpha  occ. eigenvalues --  -10.28728 -10.28128 -10.28106 -10.28048 -10.28045
 Alpha  occ. eigenvalues --  -10.28028 -10.27886 -10.27799 -10.27786 -10.27535
 Alpha  occ. eigenvalues --  -10.27490 -10.27390 -10.27277 -10.27204 -10.27007
 Alpha  occ. eigenvalues --  -10.26979 -10.26895 -10.26485 -10.26403 -10.26289
 Alpha  occ. eigenvalues --  -10.26173 -10.26150 -10.26069 -10.26051 -10.25967
 Alpha  occ. eigenvalues --  -10.25743 -10.25662 -10.25492 -10.25456 -10.25234
 Alpha  occ. eigenvalues --  -10.25047 -10.24921 -10.24702 -10.24662 -10.24419
 Alpha  occ. eigenvalues --  -10.24364 -10.24184 -10.23677 -10.23568 -10.22956
 Alpha  occ. eigenvalues --   -3.13782  -1.88478  -1.88012  -1.87987  -1.19015
 Alpha  occ. eigenvalues --   -1.14924  -1.10612  -1.10380  -1.07543  -1.07250
 Alpha  occ. eigenvalues --   -1.05393  -1.04086  -1.02395  -0.93060  -0.92435
 Alpha  occ. eigenvalues --   -0.91750  -0.90717  -0.90683  -0.89878  -0.89613
 Alpha  occ. eigenvalues --   -0.89089  -0.88792  -0.87558  -0.86893  -0.86443
 Alpha  occ. eigenvalues --   -0.85309  -0.84596  -0.83614  -0.83326  -0.82914
 Alpha  occ. eigenvalues --   -0.81858  -0.80870  -0.80462  -0.80104  -0.78922
 Alpha  occ. eigenvalues --   -0.78111  -0.76955  -0.76488  -0.75801  -0.75371
 Alpha  occ. eigenvalues --   -0.75017  -0.74643  -0.74492  -0.74300  -0.72534
 Alpha  occ. eigenvalues --   -0.72209  -0.71124  -0.70556  -0.69312  -0.68583
 Alpha  occ. eigenvalues --   -0.67754  -0.67064  -0.66426  -0.65194  -0.65122
 Alpha  occ. eigenvalues --   -0.64378  -0.63735  -0.63635  -0.62692  -0.61724
 Alpha  occ. eigenvalues --   -0.61712  -0.61510  -0.60577  -0.59784  -0.59428
 Alpha  occ. eigenvalues --   -0.59087  -0.58594  -0.58010  -0.57541  -0.57299
 Alpha  occ. eigenvalues --   -0.56557  -0.55680  -0.55659  -0.55311  -0.55231
 Alpha  occ. eigenvalues --   -0.54665  -0.54100  -0.54036  -0.53728  -0.53206
 Alpha  occ. eigenvalues --   -0.53041  -0.52731  -0.52593  -0.52325  -0.51802
 Alpha  occ. eigenvalues --   -0.51692  -0.51343  -0.51175  -0.50961  -0.50701
 Alpha  occ. eigenvalues --   -0.50034  -0.49929  -0.49741  -0.49654  -0.49572
 Alpha  occ. eigenvalues --   -0.49517  -0.49356  -0.49051  -0.48867  -0.48590
 Alpha  occ. eigenvalues --   -0.48485  -0.48340  -0.47930  -0.47580  -0.47542
 Alpha  occ. eigenvalues --   -0.47229  -0.47089  -0.47032  -0.46665  -0.46455
 Alpha  occ. eigenvalues --   -0.46344  -0.46141  -0.45825  -0.45704  -0.45551
 Alpha  occ. eigenvalues --   -0.45155  -0.45078  -0.44973  -0.44765  -0.44603
 Alpha  occ. eigenvalues --   -0.44212  -0.44005  -0.43905  -0.43843  -0.43580
 Alpha  occ. eigenvalues --   -0.43343  -0.42997  -0.42909  -0.42760  -0.42521
 Alpha  occ. eigenvalues --   -0.42449  -0.42303  -0.42054  -0.41961  -0.41547
 Alpha  occ. eigenvalues --   -0.41421  -0.41370  -0.41137  -0.40650  -0.40369
 Alpha  occ. eigenvalues --   -0.39934  -0.39741  -0.39361  -0.39232  -0.39102
 Alpha  occ. eigenvalues --   -0.38848  -0.38330  -0.38257  -0.38161  -0.38053
 Alpha  occ. eigenvalues --   -0.37606  -0.37474  -0.36999  -0.36979  -0.36848
 Alpha  occ. eigenvalues --   -0.36533  -0.36462  -0.35732  -0.35653  -0.35347
 Alpha  occ. eigenvalues --   -0.35282  -0.34432  -0.34340  -0.34037  -0.33946
 Alpha  occ. eigenvalues --   -0.33813  -0.33494  -0.32127  -0.31318  -0.30700
 Alpha  occ. eigenvalues --   -0.29587  -0.29462  -0.29022  -0.26495  -0.23210
 Alpha  occ. eigenvalues --   -0.21579
 Alpha virt. eigenvalues --   -0.06642  -0.03710   0.01113   0.03469   0.04509
 Alpha virt. eigenvalues --    0.05315   0.05378   0.06086   0.06238   0.07132
 Alpha virt. eigenvalues --    0.08107   0.10538   0.10970   0.11150   0.11622

 Mulliken charges:
               1
     1  Mg   0.829053
     2  C   -0.012132
     3  C   -0.163067
     4  C   -0.222136
     5  C   -0.178257
     6  N   -0.614163
     7  C    0.310950
     8  C   -0.141528
     9  C   -0.129584
    10  C    0.303444
    11  C   -0.318524
    12  C   -0.186534
    13  C   -0.224057
    14  C    0.586602
    15  O   -0.457748
    16  O   -0.473362
    17  N   -0.731760
    18  C    0.316425
    19  C    0.073658
    20  C   -0.022750
    21  C    0.311542
    22  C   -0.403987
    23  C   -0.042566
    24  C   -0.264250
    25  N   -0.682292
    26  C    0.334559
    27  C    0.000825
    28  C   -0.007796
    29  C    0.298503
    30  C   -0.376343
    31  C   -0.195813
    32  C   -0.314834
    33  N   -0.678520
    34  C    0.236460
    35  C   -0.000017
    36  C   -0.020750
    37  C    0.300973
    38  C   -0.374162
    39  C    0.383627
    40  O   -0.458634
    41  C   -0.305782
    42  C    0.641475
    43  O   -0.475650
    44  O   -0.474735
    45  C   -0.066591
    46  C    0.007156
    47  C   -0.142875
    48  C    0.130953
    49  C   -0.360395
    50  C   -0.233516
    51  C   -0.202837
    52  C   -0.161151
    53  C   -0.086449
    54  C   -0.291195
    55  C   -0.183342
    56  C   -0.187888
    57  C   -0.154683
    58  C   -0.073243
    59  C   -0.304796
    60  C   -0.167502
    61  C   -0.178535
    62  C   -0.169066
    63  C   -0.055189
    64  C   -0.300854
    65  C   -0.296381
    66  H    0.055218
    67  H    0.092856
    68  H    0.109852
    69  H    0.125699
    70  H    0.112750
    71  H    0.119262
    72  H    0.117011
    73  H    0.133619
    74  H    0.085738
    75  H    0.119596
    76  H    0.144002
    77  H    0.117608
    78  H    0.104933
    79  H    0.123722
    80  H    0.129123
    81  H    0.104395
    82  H    0.103072
    83  H    0.114248
    84  H    0.127717
    85  H    0.087620
    86  H    0.127419
    87  H    0.112137
    88  H    0.112812
    89  H    0.095357
    90  H    0.104425
    91  H    0.112066
    92  H    0.103489
    93  H    0.158778
    94  H    0.138400
    95  H    0.184010
    96  H    0.103675
    97  H    0.121247
    98  H    0.098186
    99  H    0.130357
   100  H    0.122298
   101  H    0.085063
   102  H    0.087525
   103  H    0.112991
   104  H    0.134886
   105  H    0.109131
   106  H    0.103608
   107  H    0.093792
   108  H    0.080294
   109  H    0.102163
   110  H    0.094396
   111  H    0.074496
   112  H    0.106900
   113  H    0.079218
   114  H    0.113903
   115  H    0.088969
   116  H    0.100833
   117  H    0.085717
   118  H    0.094931
   119  H    0.102041
   120  H    0.075956
   121  H    0.082159
   122  H    0.051930
   123  H    0.110886
   124  H    0.104491
   125  H    0.093543
   126  H    0.069720
   127  H    0.095578
   128  H    0.087679
   129  H    0.084875
   130  H    0.079537
   131  H    0.079835
   132  H    0.119408
   133  H    0.107433
   134  H    0.066137
   135  H    0.092738
   136  H    0.090890
   137  H    0.105667
 Sum of Mulliken charges =   0.00000

 Dipole moment (field-independent basis, Debye):
    X=              1.3152    Y=              6.8521    Z=             -0.1469  Tot=              6.9788
 Quadrupole moment (field-independent basis, Debye-Ang):
   XX=           -351.7055   YY=           -399.0116   ZZ=           -402.9384
   XY=            -21.0905   XZ=              8.6979   YZ=              0.4649

 Normal termination of Gaussian 09 at Thu Jun 27 10:31:08 2019.
