 Gaussian 09, Revision D.01,
 Gaussian 09:  ES64L-G09RevD.01 24-Apr-2013

 -------------------------------------
 # td=(NStates=1) CAM-B3LYP/6-31G(d,p)
 -------------------------------------

 --
 TD
 --
 Symbolic Z-matrix:
 Charge =  0 Multiplicity = 1

                         Standard orientation:
 ---------------------------------------------------------------------
 Center     Atomic      Atomic             Coordinates (Angstroms)
 Number     Number       Type             X           Y           Z
 ---------------------------------------------------------------------
      1         12           0       -7.147155    0.697647    0.173620
      2          6           0       -4.872255   -1.932394    0.389428
      3          6           0       -4.733833    2.736210    1.217650
      4          6           0       -9.372759    3.163679   -0.225862
      5          6           0       -9.564900   -1.653295   -0.908332
      6          7           0       -5.097154    0.390750    0.690803
      7          6           0       -4.315015   -0.689589    0.700704
      8          6           0       -2.951288   -0.470723    1.200111
      9          6           0       -3.096522    0.917457    1.746977
     10          6           0       -4.335226    1.413207    1.200637
     11          6           0       -2.962577    0.893770    3.286648
     12          6           0       -1.878641   -0.673756    0.074315
     13          6           0       -0.383008   -0.534694    0.630883
     14          6           0        0.536987   -0.667105   -0.570506
     15          8           0        0.232297   -0.932640   -1.723139
     16          8           0        1.850867   -0.601786   -0.131238
     17          7           0       -7.155654    2.594955    0.500421
     18          6           0       -6.008388    3.274850    0.868166
     19          6           0       -6.370824    4.724248    0.915178
     20          6           0       -7.718308    4.825039    0.581879
     21          6           0       -8.187079    3.551746    0.275436
     22          6           0       -5.400259    5.753003    1.337268
     23          6           0       -8.411882    6.044015    0.391168
     24          6           0       -8.055801    7.162723    0.066536
     25          7           0       -9.165282    0.636291   -0.386534
     26          6           0       -9.935823    1.842150   -0.560725
     27          6           0      -11.240295    1.563068   -1.026583
     28          6           0      -11.263981    0.184229   -1.301823
     29          6           0       -9.998560   -0.317177   -0.850845
     30          6           0      -12.294001    2.495657   -1.464093
     31          6           0      -12.485714   -0.613143   -1.779025
     32          6           0      -12.522436   -0.713265   -3.321419
     33          7           0       -7.215570   -1.336528   -0.127595
     34          6           0       -8.303107   -2.119706   -0.581734
     35          6           0       -7.855607   -3.570558   -0.624451
     36          6           0       -6.586640   -3.566366   -0.114465
     37          6           0       -6.226246   -2.177575    0.133631
     38          6           0       -8.803691   -4.697785   -0.941796
     39          6           0       -5.459465   -4.345058    0.172042
     40          8           0       -5.263036   -5.609689    0.149629
     41          6           0       -4.238849   -3.396114    0.424309
     42          6           0       -3.462759   -3.773362    1.755586
     43          8           0       -3.635339   -3.223054    2.790831
     44          8           0       -2.781821   -4.911555    1.523095
     45          6           0       -2.202468   -5.452635    2.722855
     46          6           0        2.815399   -0.615695   -1.248042
     47          6           0        4.236719   -0.461643   -0.562511
     48          6           0        5.184108    0.396571   -0.945061
     49          6           0        5.032428    1.374980   -2.081505
     50          6           0        6.372678    0.331755    0.038011
     51          6           0        7.588325   -0.154680   -0.780400
     52          6           0        8.974294   -0.009044   -0.014800
     53          6           0       10.169717   -0.485754   -0.887572
     54          6           0       10.111190   -1.954783   -1.175614
     55          6           0       11.473749   -0.284782    0.042195
     56          6           0       12.773006   -0.584089   -0.744399
     57          6           0       13.960317   -0.151155    0.120185
     58          6           0       15.360078   -0.278222   -0.573910
     59          6           0       15.723274   -1.641628   -1.228961
     60          6           0       16.380302    0.443817    0.376173
     61          6           0       17.810307    0.512588   -0.148260
     62          6           0       18.782421    1.266267    0.766680
     63          6           0       20.258146    1.415185    0.196043
     64          6           0       20.417829    2.202685   -1.066811
     65          6           0       21.180124    1.940587    1.256177
     66          1           0       -3.986910    3.373006    1.623207
     67          1           0      -10.005869    4.030412   -0.666573
     68          1           0      -10.122083   -2.435930   -1.184930
     69          1           0       -2.743544   -1.143363    2.131937
     70          1           0       -2.177974    1.549887    1.366514
     71          1           0       -2.103520    0.429262    3.908409
     72          1           0       -2.873062    1.928082    3.611521
     73          1           0       -3.856659    0.332950    3.699958
     74          1           0       -1.991640   -1.666253   -0.248890
     75          1           0       -2.040070    0.058594   -0.733640
     76          1           0       -0.299535    0.418232    1.090419
     77          1           0       -0.232699   -1.247799    1.409050
     78          1           0       -4.568407    6.163784    0.481699
     79          1           0       -5.954527    6.749208    1.949842
     80          1           0       -4.551450    5.400604    2.098012
     81          1           0       -9.541063    6.091161    0.374268
     82          1           0       -8.769353    7.831087   -0.156711
     83          1           0       -6.959626    7.504449   -0.216884
     84          1           0      -12.213374    3.019519   -2.414912
     85          1           0      -13.286897    1.943631   -1.343639
     86          1           0      -12.262313    3.555854   -0.959222
     87          1           0      -12.305180   -1.511219   -1.142171
     88          1           0      -13.424344   -0.127778   -1.366385
     89          1           0      -13.368647   -1.283390   -3.811802
     90          1           0      -12.399276    0.321872   -3.706465
     91          1           0      -11.425996   -0.905479   -3.823562
     92          1           0       -9.363222   -4.374694   -1.921459
     93          1           0       -8.147826   -5.546136   -0.959657
     94          1           0       -9.570139   -4.752777   -0.226673
     95          1           0       -3.535595   -3.752226   -0.378045
     96          1           0       -1.671770   -4.549328    3.243221
     97          1           0       -3.065786   -5.829630    3.567907
     98          1           0       -1.594172   -6.125416    2.204312
     99          1           0        2.777646   -1.594531   -1.653800
    100          1           0        2.484002    0.016927   -2.064055
    101          1           0        4.152368   -0.902494    0.472282
    102          1           0        4.043272    1.341933   -2.475236
    103          1           0        5.379192    2.306849   -1.651171
    104          1           0        5.700971    0.899445   -2.869591
    105          1           0        6.696072    1.469156    0.240036
    106          1           0        6.157821   -0.193010    0.920431
    107          1           0        7.386042   -1.005499   -1.200318
    108          1           0        7.644026    0.445406   -1.761781
    109          1           0        8.989894    1.071629    0.409572
    110          1           0        9.032824   -0.702170    0.956107
    111          1           0       10.341162    0.078992   -1.882030
    112          1           0        9.283386   -2.289710   -1.652148
    113          1           0       11.083563   -2.272721   -1.846324
    114          1           0       10.094442   -2.468547   -0.202530
    115          1           0       11.412194    0.745006    0.451911
    116          1           0       11.546230   -0.912681    0.859620
    117          1           0       12.730443   -1.650555   -0.757217
    118          1           0       12.725509   -0.101477   -1.861395
    119          1           0       13.890543    0.843722    0.415060
    120          1           0       14.028082   -0.768057    1.054713
    121          1           0       15.251964    0.475015   -1.393265
    122          1           0       15.871837   -2.329579   -0.439010
    123          1           0       14.594681   -2.010946   -1.779787
    124          1           0       16.604452   -1.744049   -1.928264
    125          1           0       16.001804    1.488946    0.578315
    126          1           0       16.529317   -0.127131    1.390582
    127          1           0       18.353732   -0.410148   -0.310392
    128          1           0       17.801358    1.101380   -1.107739
    129          1           0       18.436771    2.330432    0.888420
    130          1           0       18.772436    0.635064    1.721124
    131          1           0       20.416945    0.220187   -0.137087
    132          1           0       20.188482    3.282172   -0.929631
    133          1           0       21.347486    2.244818   -1.475079
    134          1           0       19.587887    1.779236   -1.762530
    135          1           0       20.995175    1.457062    2.336617
    136          1           0       22.229240    1.992013    0.958026
    137          1           0       20.967861    3.005202    1.348183
 ---------------------------------------------------------------------

 SCF Done:  E(RCAM-B3LYP) =  -2932.71301938     A.U. after   17 cycles

 Excitation energies and oscillator strengths:

 Excited State   1:      Singlet-A      2.1089 eV  587.90 nm  f=0.1693  <S**2>=0.000
     240 -> 243        0.29750
     241 -> 242        0.63226
 This state for optimization and/or second-order correction.
 Total Energy, E(TD-HF/TD-KS) =  -2932.63551777
 Copying the excited state density for this state as the 1-particle RhoCI density.

 The electronic state is 1-A.
 Alpha  occ. eigenvalues --  -46.83901 -19.26597 -19.25845 -19.21813 -19.21753
 Alpha  occ. eigenvalues --  -19.19391 -14.41555 -14.39831 -14.39419 -14.38992
 Alpha  occ. eigenvalues --  -10.39789 -10.39209 -10.34685 -10.32727 -10.31107
 Alpha  occ. eigenvalues --  -10.31039 -10.30721 -10.30657 -10.29932 -10.29794
 Alpha  occ. eigenvalues --  -10.29467 -10.29317 -10.28869 -10.28788 -10.28685
 Alpha  occ. eigenvalues --  -10.28463 -10.28222 -10.27989 -10.27742 -10.27489
 Alpha  occ. eigenvalues --  -10.27404 -10.27383 -10.27206 -10.27132 -10.27094
 Alpha  occ. eigenvalues --  -10.26988 -10.26960 -10.26945 -10.26891 -10.26881
 Alpha  occ. eigenvalues --  -10.26835 -10.26714 -10.26664 -10.26662 -10.26527
 Alpha  occ. eigenvalues --  -10.26494 -10.26405 -10.26206 -10.26172 -10.25918
 Alpha  occ. eigenvalues --  -10.25848 -10.25779 -10.25763 -10.25649 -10.25581
 Alpha  occ. eigenvalues --  -10.25542 -10.25536 -10.25014 -10.24997 -10.24732
 Alpha  occ. eigenvalues --  -10.24709 -10.24649 -10.24412 -10.24387 -10.24293
 Alpha  occ. eigenvalues --   -3.13070  -1.87761  -1.87307  -1.87270  -1.19093
 Alpha  occ. eigenvalues --   -1.16779  -1.11049  -1.08660  -1.07155  -1.06003
 Alpha  occ. eigenvalues --   -1.03396  -1.02647  -1.01390  -0.91615  -0.91001
 Alpha  occ. eigenvalues --   -0.90971  -0.90306  -0.89999  -0.89224  -0.88969
 Alpha  occ. eigenvalues --   -0.87988  -0.87767  -0.87726  -0.87421  -0.85945
 Alpha  occ. eigenvalues --   -0.84728  -0.84520  -0.83784  -0.82999  -0.82840
 Alpha  occ. eigenvalues --   -0.81281  -0.80933  -0.80497  -0.80138  -0.78687
 Alpha  occ. eigenvalues --   -0.77912  -0.76571  -0.76320  -0.75706  -0.75616
 Alpha  occ. eigenvalues --   -0.74938  -0.74632  -0.74123  -0.73016  -0.72282
 Alpha  occ. eigenvalues --   -0.71865  -0.70774  -0.69289  -0.68463  -0.68123
 Alpha  occ. eigenvalues --   -0.67057  -0.66490  -0.65294  -0.64789  -0.64181
 Alpha  occ. eigenvalues --   -0.63457  -0.63328  -0.63129  -0.61868  -0.61760
 Alpha  occ. eigenvalues --   -0.60940  -0.60753  -0.60678  -0.59350  -0.59174
 Alpha  occ. eigenvalues --   -0.58975  -0.58131  -0.57495  -0.56821  -0.56598
 Alpha  occ. eigenvalues --   -0.56220  -0.55613  -0.55332  -0.55122  -0.55054
 Alpha  occ. eigenvalues --   -0.54616  -0.54248  -0.53904  -0.53620  -0.52969
 Alpha  occ. eigenvalues --   -0.52847  -0.52584  -0.52348  -0.51567  -0.51494
 Alpha  occ. eigenvalues --   -0.51204  -0.51002  -0.50504  -0.50421  -0.50322
 Alpha  occ. eigenvalues --   -0.50188  -0.50105  -0.49731  -0.49601  -0.49342
 Alpha  occ. eigenvalues --   -0.49183  -0.48947  -0.48557  -0.48431  -0.48222
 Alpha  occ. eigenvalues --   -0.47961  -0.47778  -0.47581  -0.47177  -0.46965
 Alpha  occ. eigenvalues --   -0.46868  -0.46547  -0.46388  -0.46056  -0.45894
 Alpha  occ. eigenvalues --   -0.45825  -0.45674  -0.45289  -0.45033  -0.44880
 Alpha  occ. eigenvalues --   -0.44853  -0.44582  -0.44430  -0.43791  -0.43642
 Alpha  occ. eigenvalues --   -0.43525  -0.43349  -0.43271  -0.43159  -0.42992
 Alpha  occ. eigenvalues --   -0.42928  -0.42808  -0.42644  -0.42601  -0.42261
 Alpha  occ. eigenvalues --   -0.42010  -0.41733  -0.41626  -0.41563  -0.41273
 Alpha  occ. eigenvalues --   -0.41237  -0.40962  -0.40678  -0.40627  -0.40185
 Alpha  occ. eigenvalues --   -0.39950  -0.39519  -0.39407  -0.39274  -0.39053
 Alpha  occ. eigenvalues --   -0.38954  -0.38884  -0.38509  -0.38315  -0.38131
 Alpha  occ. eigenvalues --   -0.37851  -0.37559  -0.37333  -0.37242  -0.36801
 Alpha  occ. eigenvalues --   -0.36736  -0.36425  -0.36203  -0.35980  -0.35883
 Alpha  occ. eigenvalues --   -0.35542  -0.34996  -0.34383  -0.34148  -0.33951
 Alpha  occ. eigenvalues --   -0.33732  -0.32698  -0.32350  -0.30731  -0.29985
 Alpha  occ. eigenvalues --   -0.29662  -0.29302  -0.28130  -0.27308  -0.23206
 Alpha  occ. eigenvalues --   -0.21466
 Alpha virt. eigenvalues --   -0.06053  -0.03904   0.00974   0.04264   0.05464
 Alpha virt. eigenvalues --    0.05909   0.06411   0.06849   0.07107   0.07353
 Alpha virt. eigenvalues --    0.08301   0.10835   0.11356   0.11554   0.11668

 Mulliken charges:
               1
     1  Mg   0.825058
     2  C    0.017351
     3  C   -0.203420
     4  C   -0.197462
     5  C   -0.139746
     6  N   -0.644898
     7  C    0.325988
     8  C   -0.174615
     9  C   -0.170226
    10  C    0.385573
    11  C   -0.313701
    12  C   -0.172077
    13  C   -0.279567
    14  C    0.621312
    15  O   -0.469463
    16  O   -0.503967
    17  N   -0.763414
    18  C    0.335296
    19  C    0.035652
    20  C    0.060612
    21  C    0.324873
    22  C   -0.381092
    23  C   -0.077399
    24  C   -0.221145
    25  N   -0.668626
    26  C    0.245727
    27  C    0.048464
    28  C   -0.011887
    29  C    0.305635
    30  C   -0.372904
    31  C   -0.209342
    32  C   -0.312349
    33  N   -0.698540
    34  C    0.245310
    35  C    0.009036
    36  C    0.064949
    37  C    0.296519
    38  C   -0.361885
    39  C    0.327542
    40  O   -0.505360
    41  C   -0.295580
    42  C    0.608220
    43  O   -0.453096
    44  O   -0.436975
    45  C   -0.077384
    46  C    0.004156
    47  C   -0.157562
    48  C    0.093109
    49  C   -0.337141
    50  C   -0.200992
    51  C   -0.179503
    52  C   -0.158432
    53  C   -0.063094
    54  C   -0.291908
    55  C   -0.178930
    56  C   -0.182583
    57  C   -0.170617
    58  C   -0.056139
    59  C   -0.305217
    60  C   -0.167644
    61  C   -0.179555
    62  C   -0.166487
    63  C   -0.032950
    64  C   -0.304573
    65  C   -0.302663
    66  H    0.075331
    67  H    0.090456
    68  H    0.065262
    69  H    0.138160
    70  H    0.091195
    71  H    0.109691
    72  H    0.107988
    73  H    0.125503
    74  H    0.129866
    75  H    0.123575
    76  H    0.139550
    77  H    0.146408
    78  H    0.095363
    79  H    0.098246
    80  H    0.105142
    81  H    0.080823
    82  H    0.092932
    83  H    0.089715
    84  H    0.129493
    85  H    0.109800
    86  H    0.090013
    87  H    0.103313
    88  H    0.102691
    89  H    0.109612
    90  H    0.119121
    91  H    0.089137
    92  H    0.116611
    93  H    0.154531
    94  H    0.150000
    95  H    0.156116
    96  H    0.118750
    97  H    0.117145
    98  H    0.139653
    99  H    0.129631
   100  H    0.123334
   101  H    0.102570
   102  H    0.120257
   103  H    0.128178
   104  H    0.119450
   105  H    0.066977
   106  H    0.111294
   107  H    0.110066
   108  H    0.077649
   109  H    0.085699
   110  H    0.071895
   111  H    0.078335
   112  H    0.108103
   113  H    0.083818
   114  H    0.097393
   115  H    0.079462
   116  H    0.099814
   117  H    0.112700
   118  H    0.070488
   119  H    0.100942
   120  H    0.083579
   121  H    0.080963
   122  H    0.111026
   123  H    0.065569
   124  H    0.111401
   125  H    0.091680
   126  H    0.066787
   127  H    0.094918
   128  H    0.081632
   129  H    0.079007
   130  H    0.083691
   131  H    0.041703
   132  H    0.090004
   133  H    0.118293
   134  H    0.092267
   135  H    0.085679
   136  H    0.102351
   137  H    0.101930
 Sum of Mulliken charges =   0.00000

 Dipole moment (field-independent basis, Debye):
    X=              1.8451    Y=              4.3170    Z=              0.3520  Tot=              4.7079
 Quadrupole moment (field-independent basis, Debye-Ang):
   XX=           -365.8146   YY=           -397.0768   ZZ=           -396.9560
   XY=            -14.0300   XZ=             12.8057   YZ=             -6.9231

 Normal termination of Gaussian 09 at Mon Jul  1 02:45:56 2019.
