 Gaussian 09, Revision D.01,
 Gaussian 09:  ES64L-G09RevD.01 24-Apr-2013

 -------------------------------------
 # td=(NStates=1) CAM-B3LYP/6-31G(d,p)
 -------------------------------------

 --
 TD
 --
 Symbolic Z-matrix:
 Charge =  0 Multiplicity = 1

                         Standard orientation:
 ---------------------------------------------------------------------
 Center     Atomic      Atomic             Coordinates (Angstroms)
 Number     Number       Type             X           Y           Z
 ---------------------------------------------------------------------
      1         12           0       -7.177338    0.619217    0.038188
      2          6           0       -4.856513   -1.934787    0.567602
      3          6           0       -4.838960    2.828505    1.156129
      4          6           0       -9.420716    3.059734   -0.448359
      5          6           0       -9.497597   -1.802327   -0.880993
      6          7           0       -5.128407    0.475543    0.711897
      7          6           0       -4.350658   -0.709876    0.900869
      8          6           0       -2.939715   -0.336717    1.353305
      9          6           0       -3.136037    1.121561    1.607501
     10          6           0       -4.458973    1.509869    1.117567
     11          6           0       -2.876086    1.252095    3.173399
     12          6           0       -1.847787   -0.603116    0.224160
     13          6           0       -0.406663   -0.372599    0.552838
     14          6           0        0.583182   -0.753681   -0.545673
     15          8           0        0.224165   -1.168757   -1.664231
     16          8           0        1.795490   -0.527378   -0.265672
     17          7           0       -7.097004    2.674643    0.275940
     18          6           0       -6.078595    3.383756    0.779659
     19          6           0       -6.465089    4.837038    0.851156
     20          6           0       -7.806791    4.869931    0.339964
     21          6           0       -8.133365    3.457390    0.019955
     22          6           0       -5.613706    5.853339    1.383487
     23          6           0       -8.571540    6.029322    0.333621
     24          6           0       -8.212481    7.317994   -0.037771
     25          7           0       -9.168930    0.694621   -0.468107
     26          6           0       -9.897559    1.748961   -0.591422
     27          6           0      -11.279901    1.400243   -1.084769
     28          6           0      -11.274003    0.100751   -1.286959
     29          6           0       -9.889377   -0.432852   -0.882343
     30          6           0      -12.358632    2.303620   -1.352311
     31          6           0      -12.383304   -0.720675   -1.740831
     32          6           0      -12.259274   -1.144520   -3.243142
     33          7           0       -7.320629   -1.349959   -0.109181
     34          6           0       -8.297010   -2.214650   -0.496712
     35          6           0       -7.834159   -3.579567   -0.437182
     36          6           0       -6.447874   -3.559391   -0.099379
     37          6           0       -6.228151   -2.199683    0.135444
     38          6           0       -8.634255   -4.789454   -0.807804
     39          6           0       -5.328970   -4.346343    0.219694
     40          8           0       -5.224513   -5.529333    0.293656
     41          6           0       -4.207430   -3.228849    0.642009
     42          6           0       -3.475002   -3.660653    1.828168
     43          8           0       -3.736062   -3.165388    2.969773
     44          8           0       -2.621845   -4.591121    1.666059
     45          6           0       -2.016004   -5.260108    2.823009
     46          6           0        2.848665   -0.705615   -1.199350
     47          6           0        4.140890   -0.487666   -0.562199
     48          6           0        5.091779    0.314022   -0.948183
     49          6           0        5.086972    1.064917   -2.332437
     50          6           0        6.341577    0.384094   -0.159338
     51          6           0        7.658516   -0.114356   -0.898041
     52          6           0        8.936640   -0.044464   -0.152439
     53          6           0       10.186718   -0.582459   -0.892217
     54          6           0       10.084256   -2.058228   -1.290794
     55          6           0       11.475661   -0.317304   -0.129204
     56          6           0       12.773373   -0.486876   -0.847302
     57          6           0       14.013075   -0.051062    0.070137
     58          6           0       15.408377   -0.143905   -0.596552
     59          6           0       15.680749   -1.593428   -1.134522
     60          6           0       16.463693    0.382715    0.375041
     61          6           0       17.873002    0.512679   -0.244031
     62          6           0       18.767176    1.187755    0.876946
     63          6           0       20.171457    1.320003    0.365525
     64          6           0       20.270531    2.267638   -0.899635
     65          6           0       21.165852    2.020729    1.404980
     66          1           0       -4.211989    3.543784    1.449216
     67          1           0      -10.198021    3.887790   -0.431902
     68          1           0      -10.234871   -2.640711   -1.006270
     69          1           0       -2.667067   -0.802126    2.283477
     70          1           0       -2.412324    1.905585    1.063824
     71          1           0       -2.019334    1.051066    3.475609
     72          1           0       -3.225309    2.180856    3.708019
     73          1           0       -3.572985    0.727046    3.803635
     74          1           0       -1.856144   -1.716698   -0.212563
     75          1           0       -2.092258    0.063124   -0.573835
     76          1           0       -0.147575    0.801573    0.794647
     77          1           0       -0.104531   -0.741261    1.466020
     78          1           0       -5.145356    6.326537    0.616412
     79          1           0       -5.935076    6.544253    2.029827
     80          1           0       -4.897407    5.318695    1.914125
     81          1           0       -9.651956    5.836585    0.726298
     82          1           0       -8.911761    8.106265   -0.070592
     83          1           0       -7.023222    7.558863   -0.155095
     84          1           0      -12.181209    3.008210   -2.116951
     85          1           0      -13.297237    1.718051   -1.373789
     86          1           0      -12.842457    2.737806   -0.331959
     87          1           0      -12.619780   -1.735545   -1.160366
     88          1           0      -13.410272   -0.098892   -1.470992
     89          1           0      -13.037795   -1.869485   -3.574132
     90          1           0      -12.380493   -0.321367   -4.024085
     91          1           0      -11.447054   -1.927775   -3.382114
     92          1           0       -8.842209   -4.940435   -1.943154
     93          1           0       -8.022490   -5.749866   -0.251140
     94          1           0       -9.453670   -4.563842   -0.128028
     95          1           0       -3.411381   -3.170841   -0.271421
     96          1           0       -1.400083   -4.435732    3.120976
     97          1           0       -2.760488   -5.232270    3.914744
     98          1           0       -1.334914   -6.156388    2.301256
     99          1           0        2.761298   -1.553233   -1.655168
    100          1           0        2.540901    0.180867   -1.851730
    101          1           0        4.290281   -1.022042    0.423773
    102          1           0        4.083798    1.123244   -2.781822
    103          1           0        5.529220    1.983921   -2.322781
    104          1           0        5.529986    0.385504   -3.168045
    105          1           0        6.770756    1.452287    0.239304
    106          1           0        6.069459   -0.188033    0.725877
    107          1           0        7.261503   -1.021497   -1.047718
    108          1           0        7.641179    0.322048   -2.007543
    109          1           0        9.112770    1.092614    0.090131
    110          1           0        8.762941   -0.576785    0.831057
    111          1           0       10.471561    0.025649   -1.697502
    112          1           0        9.173978   -2.484742   -1.825711
    113          1           0       10.941098   -2.603023   -1.814212
    114          1           0       10.029201   -2.593545   -0.396487
    115          1           0       11.330095    0.785606    0.172302
    116          1           0       11.374514   -1.063189    0.805673
    117          1           0       12.917982   -1.558569   -1.206253
    118          1           0       12.993092    0.086477   -1.749603
    119          1           0       13.775244    0.897282    0.573811
    120          1           0       14.020474   -0.881755    0.865324
    121          1           0       15.401829    0.346507   -1.502829
    122          1           0       15.913461   -2.438381   -0.194276
    123          1           0       15.062084   -1.888905   -2.005699
    124          1           0       16.660535   -1.539055   -1.509090
    125          1           0       16.125545    1.287319    0.798952
    126          1           0       16.671087   -0.377523    1.284209
    127          1           0       18.285002   -0.506610   -0.367644
    128          1           0       17.884748    1.114839   -1.015169
    129          1           0       18.405618    2.107907    1.029538
    130          1           0       18.842393    0.556909    1.874722
    131          1           0       20.659613    0.460995   -0.011192
    132          1           0       19.841732    3.333280   -0.607463
    133          1           0       21.338977    2.525307   -1.063380
    134          1           0       19.690327    1.983679   -1.734729
    135          1           0       21.038243    1.453252    2.380687
    136          1           0       22.138907    1.892091    1.100125
    137          1           0       20.842457    2.887031    1.540474
 ---------------------------------------------------------------------

 SCF Done:  E(RCAM-B3LYP) =  -2932.59207401     A.U. after   17 cycles

 Excitation energies and oscillator strengths:

 Excited State   1:      Singlet-A      2.0234 eV  612.77 nm  f=0.2779  <S**2>=0.000
     240 -> 243       -0.20937
     241 -> 242        0.66977
 This state for optimization and/or second-order correction.
 Total Energy, E(TD-HF/TD-KS) =  -2932.51771726
 Copying the excited state density for this state as the 1-particle RhoCI density.

 The electronic state is 1-A.
 Alpha  occ. eigenvalues --  -46.84485 -19.26921 -19.26810 -19.20388 -19.18931
 Alpha  occ. eigenvalues --  -19.18158 -14.41410 -14.39827 -14.39295 -14.39122
 Alpha  occ. eigenvalues --  -10.38725 -10.38052 -10.34785 -10.34545 -10.31668
 Alpha  occ. eigenvalues --  -10.30135 -10.30123 -10.30068 -10.30066 -10.29402
 Alpha  occ. eigenvalues --  -10.29022 -10.28899 -10.28338 -10.28088 -10.28042
 Alpha  occ. eigenvalues --  -10.27910 -10.27906 -10.27808 -10.27603 -10.27491
 Alpha  occ. eigenvalues --  -10.27432 -10.27310 -10.27292 -10.27153 -10.27128
 Alpha  occ. eigenvalues --  -10.27091 -10.27022 -10.26996 -10.26880 -10.26742
 Alpha  occ. eigenvalues --  -10.26526 -10.26452 -10.26391 -10.26354 -10.26222
 Alpha  occ. eigenvalues --  -10.25904 -10.25842 -10.25779 -10.25635 -10.25510
 Alpha  occ. eigenvalues --  -10.25496 -10.25468 -10.25434 -10.25301 -10.25289
 Alpha  occ. eigenvalues --  -10.25085 -10.24809 -10.24761 -10.24710 -10.24292
 Alpha  occ. eigenvalues --  -10.24284 -10.24253 -10.24186 -10.23630 -10.22479
 Alpha  occ. eigenvalues --   -3.13527  -1.88236  -1.87759  -1.87711  -1.21191
 Alpha  occ. eigenvalues --   -1.19405  -1.12377  -1.07091  -1.05273  -1.05059
 Alpha  occ. eigenvalues --   -1.04261  -1.03819  -1.02592  -0.93052  -0.92512
 Alpha  occ. eigenvalues --   -0.90768  -0.90116  -0.89900  -0.89816  -0.89547
 Alpha  occ. eigenvalues --   -0.88509  -0.88158  -0.87300  -0.87176  -0.86669
 Alpha  occ. eigenvalues --   -0.85376  -0.84640  -0.83881  -0.83550  -0.82583
 Alpha  occ. eigenvalues --   -0.82218  -0.81565  -0.80761  -0.80060  -0.78309
 Alpha  occ. eigenvalues --   -0.77995  -0.77417  -0.76853  -0.76275  -0.75688
 Alpha  occ. eigenvalues --   -0.75244  -0.75008  -0.74716  -0.74118  -0.72226
 Alpha  occ. eigenvalues --   -0.71665  -0.70866  -0.69948  -0.69588  -0.68575
 Alpha  occ. eigenvalues --   -0.67777  -0.67089  -0.65659  -0.65058  -0.64643
 Alpha  occ. eigenvalues --   -0.64239  -0.64042  -0.63761  -0.63030  -0.62411
 Alpha  occ. eigenvalues --   -0.61651  -0.61008  -0.60310  -0.59496  -0.59258
 Alpha  occ. eigenvalues --   -0.58719  -0.58619  -0.58204  -0.57205  -0.56481
 Alpha  occ. eigenvalues --   -0.56014  -0.55460  -0.55271  -0.55105  -0.55054
 Alpha  occ. eigenvalues --   -0.54572  -0.54175  -0.53864  -0.53296  -0.53075
 Alpha  occ. eigenvalues --   -0.52867  -0.52691  -0.52514  -0.52422  -0.52037
 Alpha  occ. eigenvalues --   -0.51568  -0.51415  -0.51196  -0.50900  -0.50837
 Alpha  occ. eigenvalues --   -0.50800  -0.50579  -0.50197  -0.49968  -0.49792
 Alpha  occ. eigenvalues --   -0.49422  -0.49233  -0.49139  -0.48864  -0.48766
 Alpha  occ. eigenvalues --   -0.48589  -0.48377  -0.48049  -0.47887  -0.47364
 Alpha  occ. eigenvalues --   -0.47196  -0.47038  -0.46828  -0.46337  -0.46254
 Alpha  occ. eigenvalues --   -0.46173  -0.45636  -0.45255  -0.45205  -0.45026
 Alpha  occ. eigenvalues --   -0.44896  -0.44601  -0.44339  -0.44125  -0.43915
 Alpha  occ. eigenvalues --   -0.43674  -0.43539  -0.43243  -0.43088  -0.42998
 Alpha  occ. eigenvalues --   -0.42826  -0.42565  -0.42273  -0.42141  -0.41889
 Alpha  occ. eigenvalues --   -0.41829  -0.41594  -0.41213  -0.41117  -0.40867
 Alpha  occ. eigenvalues --   -0.40741  -0.40661  -0.40526  -0.40186  -0.40100
 Alpha  occ. eigenvalues --   -0.39896  -0.39660  -0.39382  -0.39252  -0.39141
 Alpha  occ. eigenvalues --   -0.39059  -0.38598  -0.38465  -0.37838  -0.37322
 Alpha  occ. eigenvalues --   -0.37193  -0.37129  -0.37021  -0.36720  -0.36712
 Alpha  occ. eigenvalues --   -0.36422  -0.36196  -0.36084  -0.35673  -0.35251
 Alpha  occ. eigenvalues --   -0.35162  -0.34485  -0.34110  -0.33352  -0.33016
 Alpha  occ. eigenvalues --   -0.32560  -0.32185  -0.31542  -0.30705  -0.30269
 Alpha  occ. eigenvalues --   -0.29749  -0.29256  -0.28611  -0.26836  -0.23053
 Alpha  occ. eigenvalues --   -0.20564
 Alpha virt. eigenvalues --   -0.06257  -0.02211   0.01577   0.03865   0.05697
 Alpha virt. eigenvalues --    0.05801   0.06219   0.06941   0.07107   0.07691
 Alpha virt. eigenvalues --    0.08725   0.10589   0.10693   0.11056   0.11799

 Mulliken charges:
               1
     1  Mg   0.827410
     2  C    0.099601
     3  C   -0.180165
     4  C   -0.189822
     5  C   -0.184147
     6  N   -0.655091
     7  C    0.270038
     8  C   -0.144971
     9  C   -0.164595
    10  C    0.436410
    11  C   -0.331418
    12  C   -0.156610
    13  C   -0.264716
    14  C    0.588670
    15  O   -0.519259
    16  O   -0.431328
    17  N   -0.714247
    18  C    0.305282
    19  C    0.015287
    20  C    0.010937
    21  C    0.336194
    22  C   -0.373498
    23  C   -0.117993
    24  C   -0.243147
    25  N   -0.676637
    26  C    0.330250
    27  C    0.033750
    28  C    0.094445
    29  C    0.233848
    30  C   -0.386562
    31  C   -0.261445
    32  C   -0.311354
    33  N   -0.742203
    34  C    0.355110
    35  C   -0.032554
    36  C    0.071033
    37  C    0.237050
    38  C   -0.365856
    39  C    0.352550
    40  O   -0.442742
    41  C   -0.366092
    42  C    0.621607
    43  O   -0.544599
    44  O   -0.415758
    45  C   -0.096848
    46  C    0.035881
    47  C   -0.157421
    48  C    0.147231
    49  C   -0.367446
    50  C   -0.240711
    51  C   -0.166885
    52  C   -0.166727
    53  C   -0.048652
    54  C   -0.328092
    55  C   -0.161292
    56  C   -0.192701
    57  C   -0.166841
    58  C   -0.060250
    59  C   -0.312062
    60  C   -0.168037
    61  C   -0.182417
    62  C   -0.157214
    63  C   -0.077806
    64  C   -0.319597
    65  C   -0.302793
    66  H    0.056980
    67  H    0.089611
    68  H    0.100146
    69  H    0.142305
    70  H    0.093221
    71  H    0.124826
    72  H    0.086957
    73  H    0.128537
    74  H    0.106101
    75  H    0.122234
    76  H    0.100465
    77  H    0.134984
    78  H    0.136866
    79  H    0.135735
    80  H    0.116629
    81  H    0.093056
    82  H    0.114248
    83  H    0.087561
    84  H    0.136719
    85  H    0.108801
    86  H    0.091678
    87  H    0.095650
    88  H    0.078337
    89  H    0.097220
    90  H    0.113176
    91  H    0.110458
    92  H    0.128388
    93  H    0.120787
    94  H    0.128495
    95  H    0.143747
    96  H    0.143378
    97  H    0.144566
    98  H    0.137882
    99  H    0.142779
   100  H    0.121636
   101  H    0.095622
   102  H    0.108423
   103  H    0.130269
   104  H    0.114900
   105  H    0.072991
   106  H    0.095503
   107  H    0.114352
   108  H    0.080464
   109  H    0.078066
   110  H    0.091426
   111  H    0.094446
   112  H    0.095679
   113  H    0.098445
   114  H    0.107344
   115  H    0.079026
   116  H    0.068668
   117  H    0.095432
   118  H    0.090003
   119  H    0.085753
   120  H    0.084751
   121  H    0.090459
   122  H    0.062832
   123  H    0.106912
   124  H    0.110586
   125  H    0.096328
   126  H    0.072596
   127  H    0.103241
   128  H    0.104505
   129  H    0.100935
   130  H    0.075389
   131  H    0.093058
   132  H    0.068389
   133  H    0.100597
   134  H    0.107060
   135  H    0.077843
   136  H    0.107618
   137  H    0.113945
 Sum of Mulliken charges =   0.00000

 Dipole moment (field-independent basis, Debye):
    X=              3.3745    Y=              4.4259    Z=              0.2635  Tot=              5.5718
 Quadrupole moment (field-independent basis, Debye-Ang):
   XX=           -340.2663   YY=           -392.8522   ZZ=           -397.8174
   XY=            -20.7188   XZ=              0.4910   YZ=              1.4134

 Normal termination of Gaussian 09 at Fri Jun 28 04:24:13 2019.
