 Gaussian 09, Revision D.01,
 Gaussian 09:  ES64L-G09RevD.01 24-Apr-2013

 -------------------------------------
 # td=(NStates=1) CAM-B3LYP/6-31G(d,p)
 -------------------------------------

 --
 TD
 --
 Symbolic Z-matrix:
 Charge =  0 Multiplicity = 1

                         Standard orientation:
 ---------------------------------------------------------------------
 Center     Atomic      Atomic             Coordinates (Angstroms)
 Number     Number       Type             X           Y           Z
 ---------------------------------------------------------------------
      1         12           0       -7.240511    0.620992    0.035506
      2          6           0       -4.926654   -1.927121    0.564729
      3          6           0       -4.814365    2.859300    1.139650
      4          6           0       -9.453227    3.023287   -0.345755
      5          6           0       -9.541487   -1.811416   -0.889886
      6          7           0       -5.200837    0.495807    0.741500
      7          6           0       -4.359778   -0.669392    0.712548
      8          6           0       -2.928647   -0.318441    1.103664
      9          6           0       -3.054470    1.076791    1.657758
     10          6           0       -4.356107    1.528282    1.187358
     11          6           0       -2.907663    1.198519    3.189270
     12          6           0       -1.891536   -0.449165   -0.030392
     13          6           0       -0.517226   -0.343285    0.393815
     14          6           0        0.502816   -0.568649   -0.733271
     15          8           0        0.289511   -1.022285   -1.847110
     16          8           0        1.757081   -0.334583   -0.327921
     17          7           0       -7.121413    2.560208    0.338552
     18          6           0       -6.067278    3.363055    0.757474
     19          6           0       -6.539943    4.748569    0.933459
     20          6           0       -7.776890    4.873424    0.475099
     21          6           0       -8.219644    3.420469    0.141797
     22          6           0       -5.653175    5.962377    1.473866
     23          6           0       -8.680858    5.989163    0.223162
     24          6           0       -8.242523    7.243662    0.152465
     25          7           0       -9.123654    0.600322   -0.454079
     26          6           0       -9.917913    1.741119   -0.662243
     27          6           0      -11.143681    1.459355   -1.129182
     28          6           0      -11.229669    0.105267   -1.211284
     29          6           0       -9.913754   -0.434159   -0.913109
     30          6           0      -12.271534    2.449112   -1.427027
     31          6           0      -12.391351   -0.733666   -1.798838
     32          6           0      -11.996691   -1.345020   -3.230627
     33          7           0       -7.350304   -1.513226   -0.107485
     34          6           0       -8.378785   -2.277931   -0.456960
     35          6           0       -7.878024   -3.656254   -0.454691
     36          6           0       -6.457477   -3.531600   -0.172788
     37          6           0       -6.216823   -2.178448    0.116839
     38          6           0       -8.530600   -4.933358   -0.712233
     39          6           0       -5.310759   -4.330042    0.155874
     40          8           0       -5.102899   -5.550966    0.247233
     41          6           0       -4.121663   -3.248556    0.573917
     42          6           0       -3.608383   -3.557697    1.932296
     43          8           0       -3.730764   -2.970573    2.955655
     44          8           0       -2.648697   -4.556819    1.809046
     45          6           0       -2.245093   -5.005466    3.231398
     46          6           0        2.783356   -0.598093   -1.231465
     47          6           0        4.136661   -0.364534   -0.643005
     48          6           0        5.170702    0.303350   -1.126369
     49          6           0        5.072368    1.050244   -2.440818
     50          6           0        6.534145    0.505372   -0.348665
     51          6           0        7.671806   -0.224032   -0.973758
     52          6           0        8.991442   -0.057250   -0.141025
     53          6           0       10.247638   -0.751492   -0.774012
     54          6           0       10.135069   -2.314455   -1.054214
     55          6           0       11.441266   -0.536639    0.075548
     56          6           0       12.897240   -0.597567   -0.624537
     57          6           0       14.038338   -0.202307    0.292501
     58          6           0       15.305995   -0.283021   -0.411100
     59          6           0       15.812450   -1.620022   -0.800812
     60          6           0       16.280763    0.517495    0.462226
     61          6           0       17.710975    0.608284   -0.148249
     62          6           0       18.749213    1.304755    0.776535
     63          6           0       20.153662    1.368427    0.146983
     64          6           0       20.324220    2.272572   -1.065150
     65          6           0       21.041913    2.013425    1.291221
     66          1           0       -4.101763    3.555231    1.620317
     67          1           0      -10.299581    3.902378   -0.334643
     68          1           0      -10.285971   -2.428690   -1.093366
     69          1           0       -2.467995   -0.938995    1.992302
     70          1           0       -2.189211    1.605038    1.438829
     71          1           0       -1.894636    0.972974    3.327193
     72          1           0       -3.024413    2.236211    3.499944
     73          1           0       -3.748750    0.581256    3.611244
     74          1           0       -2.055539   -1.360659   -0.582395
     75          1           0       -2.114113    0.355590   -0.808967
     76          1           0       -0.137941    0.530357    0.926732
     77          1           0       -0.233024   -1.192812    1.073623
     78          1           0       -5.231819    6.550141    0.739168
     79          1           0       -6.409803    6.671002    1.912587
     80          1           0       -4.953443    5.663507    2.198643
     81          1           0       -9.810835    5.849802    0.231151
     82          1           0       -8.865007    8.022590    0.186378
     83          1           0       -7.141062    7.202119    0.128470
     84          1           0      -11.965520    2.857645   -2.379054
     85          1           0      -13.159496    1.913947   -1.911593
     86          1           0      -12.605962    3.030619   -0.592810
     87          1           0      -12.216394   -1.633909   -1.170022
     88          1           0      -13.390234   -0.254909   -1.948142
     89          1           0      -12.887890   -1.997764   -3.529241
     90          1           0      -12.127033   -0.637636   -4.102145
     91          1           0      -11.068392   -1.865929   -3.086374
     92          1           0       -8.630423   -5.265377   -1.827392
     93          1           0       -7.849460   -5.952896   -0.315829
     94          1           0       -9.570179   -5.098135   -0.156817
     95          1           0       -3.356731   -3.276830   -0.235361
     96          1           0       -1.988258   -3.903588    3.925463
     97          1           0       -3.069243   -5.573113    3.633185
     98          1           0       -1.230480   -5.707433    3.048918
     99          1           0        2.551522   -1.467807   -1.685215
    100          1           0        2.614170   -0.072477   -2.258993
    101          1           0        4.167465   -0.860700    0.336986
    102          1           0        4.294304    1.382303   -3.026532
    103          1           0        5.713047    2.099196   -2.110321
    104          1           0        5.785792    0.539924   -3.209421
    105          1           0        6.778289    1.585842    0.032804
    106          1           0        6.254476    0.057227    0.609362
    107          1           0        7.547198   -1.420325   -1.113267
    108          1           0        7.887999    0.377180   -2.029996
    109          1           0        9.192420    0.901524    0.203753
    110          1           0        8.849853   -0.638110    0.848641
    111          1           0       10.353889   -0.375116   -1.702888
    112          1           0        9.401839   -2.608890   -1.783651
    113          1           0       11.141526   -2.485109   -1.552344
    114          1           0        9.819950   -2.875655   -0.292483
    115          1           0       11.401521    0.590591    0.421492
    116          1           0       11.584025   -1.117976    0.905848
    117          1           0       13.074559   -1.619352   -0.738051
    118          1           0       13.006189   -0.160093   -1.393464
    119          1           0       14.058467    0.864641    0.684623
    120          1           0       14.115883   -0.989540    1.151255
    121          1           0       15.440321    0.259462   -1.319276
    122          1           0       15.907662   -2.393870    0.041416
    123          1           0       15.035186   -2.049400   -1.603549
    124          1           0       16.595389   -1.485884   -1.556214
    125          1           0       15.930433    1.554480    0.692128
    126          1           0       16.296453   -0.108835    1.404577
    127          1           0       18.115438   -0.382112   -0.556577
    128          1           0       17.638614    1.238499   -1.172342
    129          1           0       18.366222    2.368881    0.720486
    130          1           0       18.711958    0.851957    1.732610
    131          1           0       20.611277    0.427870   -0.150797
    132          1           0       20.122898    3.349651   -0.860480
    133          1           0       21.345281    2.122505   -1.580025
    134          1           0       19.630591    2.011947   -2.023374
    135          1           0       21.108548    1.358512    2.181957
    136          1           0       22.177721    2.200600    0.858859
    137          1           0       20.647746    2.885285    1.461838
 ---------------------------------------------------------------------

 SCF Done:  E(RCAM-B3LYP) =  -2932.63569962     A.U. after   18 cycles

 Excitation energies and oscillator strengths:

 Excited State   1:      Singlet-A      2.0714 eV  598.56 nm  f=0.2093  <S**2>=0.000
     240 -> 243       -0.26495
     241 -> 242        0.64899
 This state for optimization and/or second-order correction.
 Total Energy, E(TD-HF/TD-KS) =  -2932.55957786
 Copying the excited state density for this state as the 1-particle RhoCI density.

 The electronic state is 1-A.
 Alpha  occ. eigenvalues --  -46.83562 -19.26488 -19.24535 -19.20857 -19.20811
 Alpha  occ. eigenvalues --  -19.20110 -14.41991 -14.40064 -14.38746 -14.38693
 Alpha  occ. eigenvalues --  -10.39440 -10.38308 -10.35231 -10.33518 -10.31366
 Alpha  occ. eigenvalues --  -10.31177 -10.30992 -10.30779 -10.30104 -10.29096
 Alpha  occ. eigenvalues --  -10.28668 -10.28667 -10.28589 -10.28587 -10.28352
 Alpha  occ. eigenvalues --  -10.28293 -10.28225 -10.28204 -10.28166 -10.27978
 Alpha  occ. eigenvalues --  -10.27930 -10.27852 -10.27799 -10.27728 -10.27347
 Alpha  occ. eigenvalues --  -10.27284 -10.27006 -10.26892 -10.26778 -10.26702
 Alpha  occ. eigenvalues --  -10.26646 -10.26253 -10.26216 -10.26112 -10.26065
 Alpha  occ. eigenvalues --  -10.26020 -10.25967 -10.25954 -10.25938 -10.25910
 Alpha  occ. eigenvalues --  -10.25888 -10.25647 -10.25597 -10.25254 -10.25240
 Alpha  occ. eigenvalues --  -10.25156 -10.25107 -10.25052 -10.24994 -10.24767
 Alpha  occ. eigenvalues --  -10.24666 -10.24351 -10.24099 -10.23752 -10.22208
 Alpha  occ. eigenvalues --   -3.12778  -1.87462  -1.87065  -1.86930  -1.19582
 Alpha  occ. eigenvalues --   -1.16740  -1.09141  -1.09118  -1.07174  -1.05003
 Alpha  occ. eigenvalues --   -1.02929  -1.02524  -1.01509  -0.92729  -0.91996
 Alpha  occ. eigenvalues --   -0.91562  -0.90569  -0.90031  -0.89223  -0.88606
 Alpha  occ. eigenvalues --   -0.88531  -0.88229  -0.87748  -0.86834  -0.86274
 Alpha  occ. eigenvalues --   -0.85185  -0.84150  -0.83747  -0.83342  -0.82498
 Alpha  occ. eigenvalues --   -0.81434  -0.80405  -0.80078  -0.79735  -0.78403
 Alpha  occ. eigenvalues --   -0.78188  -0.76996  -0.76068  -0.75708  -0.75561
 Alpha  occ. eigenvalues --   -0.74879  -0.74694  -0.74077  -0.73794  -0.72365
 Alpha  occ. eigenvalues --   -0.71778  -0.70855  -0.69835  -0.69193  -0.68319
 Alpha  occ. eigenvalues --   -0.67544  -0.65900  -0.65584  -0.65174  -0.64676
 Alpha  occ. eigenvalues --   -0.64348  -0.64007  -0.63260  -0.62668  -0.62061
 Alpha  occ. eigenvalues --   -0.61881  -0.60870  -0.60532  -0.59812  -0.58839
 Alpha  occ. eigenvalues --   -0.58529  -0.58269  -0.57529  -0.56912  -0.56795
 Alpha  occ. eigenvalues --   -0.56297  -0.55823  -0.55560  -0.54915  -0.54692
 Alpha  occ. eigenvalues --   -0.54397  -0.54177  -0.53839  -0.53519  -0.53440
 Alpha  occ. eigenvalues --   -0.53274  -0.52962  -0.52846  -0.52591  -0.52141
 Alpha  occ. eigenvalues --   -0.51897  -0.51571  -0.51306  -0.50900  -0.50746
 Alpha  occ. eigenvalues --   -0.50546  -0.50236  -0.49856  -0.49471  -0.49320
 Alpha  occ. eigenvalues --   -0.49194  -0.48757  -0.48615  -0.48431  -0.48273
 Alpha  occ. eigenvalues --   -0.48166  -0.47892  -0.47526  -0.47321  -0.46969
 Alpha  occ. eigenvalues --   -0.46795  -0.46576  -0.46519  -0.46217  -0.46001
 Alpha  occ. eigenvalues --   -0.45792  -0.45739  -0.45572  -0.45237  -0.45093
 Alpha  occ. eigenvalues --   -0.44846  -0.44520  -0.44502  -0.43868  -0.43734
 Alpha  occ. eigenvalues --   -0.43644  -0.43470  -0.43168  -0.42805  -0.42704
 Alpha  occ. eigenvalues --   -0.42557  -0.42438  -0.42257  -0.42083  -0.41537
 Alpha  occ. eigenvalues --   -0.41496  -0.41246  -0.41104  -0.40876  -0.40830
 Alpha  occ. eigenvalues --   -0.40765  -0.40582  -0.40389  -0.40131  -0.40089
 Alpha  occ. eigenvalues --   -0.39911  -0.39782  -0.39512  -0.39495  -0.39255
 Alpha  occ. eigenvalues --   -0.39187  -0.38975  -0.38424  -0.38391  -0.37933
 Alpha  occ. eigenvalues --   -0.37803  -0.37403  -0.37374  -0.37178  -0.36776
 Alpha  occ. eigenvalues --   -0.36641  -0.36321  -0.36150  -0.35873  -0.35599
 Alpha  occ. eigenvalues --   -0.35281  -0.34924  -0.34263  -0.33862  -0.33552
 Alpha  occ. eigenvalues --   -0.33088  -0.32489  -0.32391  -0.30883  -0.30122
 Alpha  occ. eigenvalues --   -0.29393  -0.28987  -0.28587  -0.28023  -0.23400
 Alpha  occ. eigenvalues --   -0.21359
 Alpha virt. eigenvalues --   -0.06403  -0.03643   0.01143   0.03728   0.05593
 Alpha virt. eigenvalues --    0.05915   0.06419   0.06565   0.07053   0.07520
 Alpha virt. eigenvalues --    0.08458   0.10529   0.11265   0.11767   0.12016

 Mulliken charges:
               1
     1  Mg   0.835363
     2  C    0.048191
     3  C   -0.228567
     4  C   -0.202950
     5  C   -0.127167
     6  N   -0.617242
     7  C    0.273146
     8  C   -0.159899
     9  C   -0.150687
    10  C    0.359778
    11  C   -0.304293
    12  C   -0.164935
    13  C   -0.267172
    14  C    0.598523
    15  O   -0.485888
    16  O   -0.460598
    17  N   -0.720552
    18  C    0.327415
    19  C   -0.030052
    20  C    0.055470
    21  C    0.281430
    22  C   -0.377576
    23  C   -0.066080
    24  C   -0.224517
    25  N   -0.722348
    26  C    0.312999
    27  C    0.030838
    28  C    0.003922
    29  C    0.265665
    30  C   -0.365511
    31  C   -0.237863
    32  C   -0.306840
    33  N   -0.747829
    34  C    0.326013
    35  C    0.045874
    36  C    0.002371
    37  C    0.330140
    38  C   -0.410494
    39  C    0.343704
    40  O   -0.472278
    41  C   -0.339264
    42  C    0.658863
    43  O   -0.454653
    44  O   -0.490139
    45  C   -0.080936
    46  C    0.021010
    47  C   -0.137485
    48  C    0.119590
    49  C   -0.347301
    50  C   -0.225349
    51  C   -0.149912
    52  C   -0.181262
    53  C   -0.047844
    54  C   -0.330961
    55  C   -0.172247
    56  C   -0.160715
    57  C   -0.168260
    58  C   -0.049227
    59  C   -0.306666
    60  C   -0.171369
    61  C   -0.194741
    62  C   -0.153707
    63  C   -0.062890
    64  C   -0.303433
    65  C   -0.291874
    66  H    0.072273
    67  H    0.082630
    68  H    0.076666
    69  H    0.117369
    70  H    0.111602
    71  H    0.112641
    72  H    0.109432
    73  H    0.134420
    74  H    0.132873
    75  H    0.109341
    76  H    0.134371
    77  H    0.143442
    78  H    0.141098
    79  H    0.123824
    80  H    0.118811
    81  H    0.093890
    82  H    0.103276
    83  H    0.098609
    84  H    0.134934
    85  H    0.096606
    86  H    0.131209
    87  H    0.111985
    88  H    0.107908
    89  H    0.091983
    90  H    0.104132
    91  H    0.116005
    92  H    0.128646
    93  H    0.125905
    94  H    0.110521
    95  H    0.169665
    96  H    0.116958
    97  H    0.152072
    98  H    0.106505
    99  H    0.136370
   100  H    0.092726
   101  H    0.086387
   102  H    0.132562
   103  H    0.069242
   104  H    0.109498
   105  H    0.103144
   106  H    0.106278
   107  H    0.095728
   108  H    0.071786
   109  H    0.098560
   110  H    0.073782
   111  H    0.096219
   112  H    0.095624
   113  H    0.100354
   114  H    0.112665
   115  H    0.063057
   116  H    0.099668
   117  H    0.103301
   118  H    0.083961
   119  H    0.081425
   120  H    0.071995
   121  H    0.085860
   122  H    0.096976
   123  H    0.077108
   124  H    0.112617
   125  H    0.090730
   126  H    0.077155
   127  H    0.087040
   128  H    0.063327
   129  H    0.088182
   130  H    0.102783
   131  H    0.091567
   132  H    0.100399
   133  H    0.098809
   134  H    0.074413
   135  H    0.097484
   136  H    0.063441
   137  H    0.117441
 Sum of Mulliken charges =   0.00000

 Dipole moment (field-independent basis, Debye):
    X=              0.7048    Y=              5.5988    Z=              0.3349  Tot=              5.6529
 Quadrupole moment (field-independent basis, Debye-Ang):
   XX=           -339.9552   YY=           -393.5530   ZZ=           -396.3895
   XY=            -29.5289   XZ=              9.8116   YZ=              0.3602

 Normal termination of Gaussian 09 at Sat Jun 29 07:26:23 2019.
