 Gaussian 09, Revision D.01,
 Gaussian 09:  ES64L-G09RevD.01 24-Apr-2013

 -------------------------------------
 # td=(NStates=1) CAM-B3LYP/6-31G(d,p)
 -------------------------------------

 --
 TD
 --
 Symbolic Z-matrix:
 Charge =  0 Multiplicity = 1

                         Standard orientation:
 ---------------------------------------------------------------------
 Center     Atomic      Atomic             Coordinates (Angstroms)
 Number     Number       Type             X           Y           Z
 ---------------------------------------------------------------------
      1         12           0       -7.150123    0.516104    0.066042
      2          6           0       -4.792293   -1.933363    0.444603
      3          6           0       -4.820742    2.940840    1.195502
      4          6           0       -9.508926    3.064834   -0.243477
      5          6           0       -9.483234   -1.799614   -0.879196
      6          7           0       -5.115428    0.406820    0.860179
      7          6           0       -4.353703   -0.692474    0.899920
      8          6           0       -2.931098   -0.305930    1.283089
      9          6           0       -2.965646    1.084834    1.746427
     10          6           0       -4.364198    1.559733    1.194214
     11          6           0       -3.040344    1.205411    3.308470
     12          6           0       -2.014920   -0.594760    0.047176
     13          6           0       -0.496397   -0.220997    0.437234
     14          6           0        0.572041   -0.511007   -0.571949
     15          8           0        0.249608   -0.805388   -1.784898
     16          8           0        1.831847   -0.449270   -0.155678
     17          7           0       -7.123025    2.508235    0.386569
     18          6           0       -6.145530    3.295308    0.799599
     19          6           0       -6.549497    4.765128    0.848462
     20          6           0       -7.806744    4.754931    0.339654
     21          6           0       -8.262001    3.384131    0.155080
     22          6           0       -5.665386    5.800402    1.303378
     23          6           0       -8.784445    5.895588    0.379888
     24          6           0       -8.409583    7.192639    0.090671
     25          7           0       -9.139744    0.629684   -0.469168
     26          6           0       -9.840108    1.764950   -0.538066
     27          6           0      -11.260732    1.425602   -1.135752
     28          6           0      -11.195921   -0.012768   -1.381800
     29          6           0       -9.836085   -0.549878   -0.959222
     30          6           0      -12.451485    2.405102   -1.356614
     31          6           0      -12.318754   -0.855894   -1.797110
     32          6           0      -12.218594   -1.240586   -3.295028
     33          7           0       -7.215051   -1.377490   -0.024430
     34          6           0       -8.209657   -2.276383   -0.490423
     35          6           0       -7.772857   -3.575015   -0.581263
     36          6           0       -6.389230   -3.591731   -0.142704
     37          6           0       -6.172786   -2.226532    0.099348
     38          6           0       -8.547429   -4.823555   -0.831512
     39          6           0       -5.241603   -4.347880    0.297141
     40          8           0       -4.944766   -5.509020    0.254918
     41          6           0       -4.162791   -3.276831    0.569751
     42          6           0       -3.519400   -3.669750    1.871515
     43          8           0       -3.879118   -3.248534    2.999244
     44          8           0       -2.602737   -4.589782    1.688308
     45          6           0       -1.911128   -5.093976    2.859790
     46          6           0        2.800064   -0.526919   -1.216872
     47          6           0        4.134688   -0.357079   -0.580207
     48          6           0        5.138525    0.443558   -1.051714
     49          6           0        4.984270    1.302599   -2.287475
     50          6           0        6.406692    0.556133   -0.370479
     51          6           0        7.683633    0.020909   -1.113502
     52          6           0        8.974342   -0.124203   -0.230593
     53          6           0       10.295034   -0.516471   -1.010487
     54          6           0       10.092132   -2.057549   -1.343567
     55          6           0       11.382951   -0.225622   -0.147106
     56          6           0       12.829898   -0.669870   -0.627448
     57          6           0       13.947295   -0.214070    0.215460
     58          6           0       15.388032   -0.286348   -0.449711
     59          6           0       15.758994   -1.676631   -0.808832
     60          6           0       16.451650    0.388461    0.600831
     61          6           0       17.677627    0.557613   -0.071801
     62          6           0       18.819726    1.257181    0.813527
     63          6           0       20.160580    1.335202    0.214114
     64          6           0       20.295168    2.063736   -1.183384
     65          6           0       21.139266    2.012834    1.331341
     66          1           0       -4.244639    3.743627    1.295074
     67          1           0      -10.219102    3.945530   -0.099287
     68          1           0      -10.391897   -2.473211   -1.081080
     69          1           0       -2.675227   -0.925648    2.155042
     70          1           0       -2.274955    1.812346    1.181903
     71          1           0       -2.008042    1.032340    3.599104
     72          1           0       -3.257016    2.201142    3.726736
     73          1           0       -3.782216    0.745058    3.806745
     74          1           0       -2.181359   -1.643540   -0.112266
     75          1           0       -2.249744   -0.038685   -0.949737
     76          1           0       -0.368806    0.825180    0.643836
     77          1           0       -0.239710   -0.730188    1.565785
     78          1           0       -5.008084    6.087788    0.449014
     79          1           0       -6.205933    6.773543    1.472688
     80          1           0       -4.946411    5.542250    2.221153
     81          1           0       -9.840582    5.738749    0.562775
     82          1           0       -9.067549    7.996945    0.022218
     83          1           0       -7.330138    7.626144   -0.046311
     84          1           0      -12.048216    3.053823   -2.246004
     85          1           0      -13.223743    1.777398   -1.741246
     86          1           0      -12.886970    3.067542   -0.554501
     87          1           0      -12.352244   -1.902631   -1.136690
     88          1           0      -13.343330   -0.536204   -1.372356
     89          1           0      -13.236771   -1.655795   -3.766640
     90          1           0      -11.854999   -0.448152   -3.926671
     91          1           0      -11.391024   -1.929980   -3.532812
     92          1           0       -8.825688   -4.835298   -1.985721
     93          1           0       -7.995537   -5.693418   -0.387590
     94          1           0       -9.744416   -4.850509   -0.388905
     95          1           0       -3.299945   -3.424706   -0.431667
     96          1           0       -1.175575   -4.513980    3.557154
     97          1           0       -2.664408   -5.444301    3.800637
     98          1           0       -1.339630   -5.893509    2.438077
     99          1           0        2.265983   -1.559367   -1.766762
    100          1           0        2.667544    0.379306   -2.008502
    101          1           0        4.454006   -0.946809    0.322758
    102          1           0        3.895549    1.644353   -2.394292
    103          1           0        5.758104    2.149384   -2.141395
    104          1           0        5.392825    0.625742   -3.307291
    105          1           0        6.775499    1.453411    0.046130
    106          1           0        6.351395    0.019377    0.628983
    107          1           0        7.370397   -1.077466   -1.229378
    108          1           0        7.777330    0.581810   -1.972829
    109          1           0        9.002454    0.926651    0.305281
    110          1           0        8.791057   -0.817650    0.591774
    111          1           0       10.312322    0.143190   -1.829896
    112          1           0        9.270079   -2.312944   -2.008275
    113          1           0       11.004230   -2.284279   -1.775493
    114          1           0        9.610831   -2.518801   -0.267322
    115          1           0       11.515845    0.775079    0.120263
    116          1           0       11.351740   -0.680592    0.788146
    117          1           0       13.027559   -1.744492   -0.866218
    118          1           0       12.981453   -0.029220   -1.611518
    119          1           0       13.791833    0.759725    0.480789
    120          1           0       14.028382   -1.054571    1.225249
    121          1           0       15.224506    0.423682   -1.265347
    122          1           0       15.721680   -2.101822    0.045203
    123          1           0       15.188642   -2.054898   -1.620105
    124          1           0       16.812962   -1.762894   -1.421405
    125          1           0       15.847138    1.337891    0.882092
    126          1           0       16.380141   -0.330471    1.550155
    127          1           0       18.091373   -0.322526   -0.408664
    128          1           0       17.505876    1.006434   -0.984679
    129          1           0       18.480680    2.187907    1.181355
    130          1           0       18.839927    0.737889    1.825995
    131          1           0       20.589742    0.376884    0.177124
    132          1           0       19.801902    2.974536   -1.281831
    133          1           0       21.407384    2.224849   -1.458717
    134          1           0       19.749210    1.438493   -1.962645
    135          1           0       21.099999    1.551341    2.467881
    136          1           0       22.221887    1.777181    0.815556
    137          1           0       21.093816    3.182192    1.416294
 ---------------------------------------------------------------------

 SCF Done:  E(RCAM-B3LYP) =  -2932.56093955     A.U. after   17 cycles

 Excitation energies and oscillator strengths:

 Excited State   1:      Singlet-A      2.1972 eV  564.29 nm  f=0.2999  <S**2>=0.000
     240 -> 242       -0.18661
     240 -> 243       -0.16617
     241 -> 242        0.64299
     241 -> 243       -0.13287
 This state for optimization and/or second-order correction.
 Total Energy, E(TD-HF/TD-KS) =  -2932.48019509
 Copying the excited state density for this state as the 1-particle RhoCI density.

 The electronic state is 1-A.
 Alpha  occ. eigenvalues --  -46.83324 -19.27224 -19.27143 -19.19987 -19.19253
 Alpha  occ. eigenvalues --  -19.18639 -14.41455 -14.40515 -14.40354 -14.38772
 Alpha  occ. eigenvalues --  -10.39511 -10.38515 -10.34025 -10.33606 -10.32702
 Alpha  occ. eigenvalues --  -10.32653 -10.31305 -10.31184 -10.30831 -10.29780
 Alpha  occ. eigenvalues --  -10.29301 -10.29225 -10.29112 -10.28829 -10.28638
 Alpha  occ. eigenvalues --  -10.28560 -10.28482 -10.28437 -10.28369 -10.28259
 Alpha  occ. eigenvalues --  -10.28122 -10.28086 -10.27916 -10.27911 -10.27903
 Alpha  occ. eigenvalues --  -10.27774 -10.27731 -10.27702 -10.27643 -10.27580
 Alpha  occ. eigenvalues --  -10.27495 -10.27433 -10.26869 -10.26777 -10.26677
 Alpha  occ. eigenvalues --  -10.26402 -10.26310 -10.26206 -10.26014 -10.25978
 Alpha  occ. eigenvalues --  -10.25955 -10.25879 -10.25872 -10.25818 -10.25789
 Alpha  occ. eigenvalues --  -10.25785 -10.25692 -10.25613 -10.25523 -10.25257
 Alpha  occ. eigenvalues --  -10.24362 -10.23849 -10.23827 -10.23800 -10.23086
 Alpha  occ. eigenvalues --   -3.12665  -1.87340  -1.86921  -1.86863  -1.18582
 Alpha  occ. eigenvalues --   -1.18207  -1.10631  -1.06316  -1.05835  -1.04125
 Alpha  occ. eigenvalues --   -1.03341  -1.02558  -1.00968  -0.91899  -0.91813
 Alpha  occ. eigenvalues --   -0.91128  -0.90395  -0.90109  -0.89946  -0.89456
 Alpha  occ. eigenvalues --   -0.87981  -0.87937  -0.86947  -0.86674  -0.85806
 Alpha  occ. eigenvalues --   -0.84919  -0.84228  -0.83933  -0.83240  -0.82302
 Alpha  occ. eigenvalues --   -0.81594  -0.81400  -0.80712  -0.79625  -0.78537
 Alpha  occ. eigenvalues --   -0.77757  -0.76604  -0.76120  -0.75486  -0.75407
 Alpha  occ. eigenvalues --   -0.75226  -0.74391  -0.73562  -0.73122  -0.72117
 Alpha  occ. eigenvalues --   -0.71560  -0.70400  -0.69669  -0.69357  -0.68293
 Alpha  occ. eigenvalues --   -0.67344  -0.66775  -0.65135  -0.64770  -0.64382
 Alpha  occ. eigenvalues --   -0.63892  -0.63809  -0.63373  -0.62182  -0.62118
 Alpha  occ. eigenvalues --   -0.61798  -0.60612  -0.60289  -0.59655  -0.59179
 Alpha  occ. eigenvalues --   -0.58488  -0.57652  -0.57332  -0.56314  -0.55972
 Alpha  occ. eigenvalues --   -0.55936  -0.55399  -0.54813  -0.54555  -0.54433
 Alpha  occ. eigenvalues --   -0.54411  -0.53926  -0.53624  -0.53420  -0.52807
 Alpha  occ. eigenvalues --   -0.52621  -0.52521  -0.52109  -0.51579  -0.51480
 Alpha  occ. eigenvalues --   -0.51359  -0.50903  -0.50712  -0.50472  -0.50351
 Alpha  occ. eigenvalues --   -0.50343  -0.49784  -0.49714  -0.49573  -0.49496
 Alpha  occ. eigenvalues --   -0.49006  -0.48836  -0.48780  -0.48682  -0.48264
 Alpha  occ. eigenvalues --   -0.48015  -0.47670  -0.47494  -0.47255  -0.47022
 Alpha  occ. eigenvalues --   -0.46805  -0.46383  -0.46375  -0.46185  -0.46061
 Alpha  occ. eigenvalues --   -0.45898  -0.45816  -0.45507  -0.45442  -0.45331
 Alpha  occ. eigenvalues --   -0.44894  -0.44787  -0.44503  -0.44115  -0.43819
 Alpha  occ. eigenvalues --   -0.43790  -0.43375  -0.43230  -0.42892  -0.42780
 Alpha  occ. eigenvalues --   -0.42524  -0.42400  -0.42258  -0.42039  -0.41871
 Alpha  occ. eigenvalues --   -0.41840  -0.41573  -0.41437  -0.41096  -0.40803
 Alpha  occ. eigenvalues --   -0.40710  -0.40522  -0.40472  -0.40318  -0.40217
 Alpha  occ. eigenvalues --   -0.39954  -0.39896  -0.39436  -0.39236  -0.38897
 Alpha  occ. eigenvalues --   -0.38782  -0.38512  -0.38228  -0.38126  -0.37899
 Alpha  occ. eigenvalues --   -0.37634  -0.37447  -0.37433  -0.36985  -0.36500
 Alpha  occ. eigenvalues --   -0.36421  -0.36179  -0.35891  -0.35537  -0.35158
 Alpha  occ. eigenvalues --   -0.34772  -0.34550  -0.33906  -0.32925  -0.32763
 Alpha  occ. eigenvalues --   -0.32299  -0.31966  -0.31922  -0.30447  -0.29099
 Alpha  occ. eigenvalues --   -0.28929  -0.28850  -0.28401  -0.27563  -0.23702
 Alpha  occ. eigenvalues --   -0.21223
 Alpha virt. eigenvalues --   -0.06571  -0.02378   0.01577   0.03537   0.03879
 Alpha virt. eigenvalues --    0.05226   0.05272   0.05538   0.06831   0.07713
 Alpha virt. eigenvalues --    0.08184   0.10223   0.10466   0.10874   0.11429

 Mulliken charges:
               1
     1  Mg   0.830445
     2  C    0.060024
     3  C   -0.174403
     4  C   -0.156012
     5  C   -0.162411
     6  N   -0.608559
     7  C    0.325421
     8  C   -0.162440
     9  C   -0.141609
    10  C    0.283034
    11  C   -0.313184
    12  C   -0.156330
    13  C   -0.263588
    14  C    0.610883
    15  O   -0.520054
    16  O   -0.446334
    17  N   -0.708789
    18  C    0.337135
    19  C    0.085459
    20  C   -0.010307
    21  C    0.295346
    22  C   -0.411139
    23  C   -0.093202
    24  C   -0.244422
    25  N   -0.709217
    26  C    0.325617
    27  C   -0.025635
    28  C    0.024508
    29  C    0.304897
    30  C   -0.361670
    31  C   -0.255454
    32  C   -0.310748
    33  N   -0.737688
    34  C    0.252945
    35  C    0.025728
    36  C   -0.002250
    37  C    0.270435
    38  C   -0.362361
    39  C    0.372915
    40  O   -0.462320
    41  C   -0.313302
    42  C    0.625884
    43  O   -0.520037
    44  O   -0.410254
    45  C   -0.085575
    46  C    0.011534
    47  C   -0.122495
    48  C    0.150913
    49  C   -0.348180
    50  C   -0.267462
    51  C   -0.173733
    52  C   -0.187240
    53  C   -0.059850
    54  C   -0.298623
    55  C   -0.152568
    56  C   -0.189496
    57  C   -0.149919
    58  C   -0.092475
    59  C   -0.277626
    60  C   -0.162248
    61  C   -0.165759
    62  C   -0.172616
    63  C   -0.046320
    64  C   -0.316858
    65  C   -0.305216
    66  H    0.069563
    67  H    0.104144
    68  H    0.110557
    69  H    0.130945
    70  H    0.104502
    71  H    0.114043
    72  H    0.103548
    73  H    0.145657
    74  H    0.126843
    75  H    0.122876
    76  H    0.139832
    77  H    0.102451
    78  H    0.135785
    79  H    0.122033
    80  H    0.120186
    81  H    0.110261
    82  H    0.110620
    83  H    0.096489
    84  H    0.116976
    85  H    0.126279
    86  H    0.121777
    87  H    0.079280
    88  H    0.111935
    89  H    0.092213
    90  H    0.120257
    91  H    0.115611
    92  H    0.113019
    93  H    0.148950
    94  H    0.080061
    95  H    0.125091
    96  H    0.117303
    97  H    0.116622
    98  H    0.133521
    99  H    0.132369
   100  H    0.101023
   101  H    0.092511
   102  H    0.118149
   103  H    0.108306
   104  H    0.098912
   105  H    0.110371
   106  H    0.085412
   107  H    0.092259
   108  H    0.102925
   109  H    0.057542
   110  H    0.096783
   111  H    0.092070
   112  H    0.116407
   113  H    0.117897
   114  H    0.075117
   115  H    0.098465
   116  H    0.099843
   117  H    0.099759
   118  H    0.056569
   119  H    0.092224
   120  H    0.025487
   121  H    0.079192
   122  H    0.114564
   123  H    0.111100
   124  H    0.071117
   125  H    0.078062
   126  H    0.072390
   127  H    0.103898
   128  H    0.097234
   129  H    0.093849
   130  H    0.079637
   131  H    0.104333
   132  H    0.117475
   133  H    0.096014
   134  H    0.095129
   135  H    0.085803
   136  H    0.070943
   137  H    0.094490
 Sum of Mulliken charges =   0.00000

 Dipole moment (field-independent basis, Debye):
    X=              0.7429    Y=              8.3740    Z=             -0.1562  Tot=              8.4083
 Quadrupole moment (field-independent basis, Debye-Ang):
   XX=           -339.6116   YY=           -391.3089   ZZ=           -400.9716
   XY=            -42.5786   XZ=              2.5571   YZ=              0.9580

 Normal termination of Gaussian 09 at Thu Jun 27 02:17:55 2019.
