 Gaussian 09, Revision D.01,
 Gaussian 09:  ES64L-G09RevD.01 24-Apr-2013

 -------------------------------------
 # td=(NStates=1) CAM-B3LYP/6-31G(d,p)
 -------------------------------------

 --
 TD
 --
 Symbolic Z-matrix:
 Charge =  0 Multiplicity = 1

                         Standard orientation:
 ---------------------------------------------------------------------
 Center     Atomic      Atomic             Coordinates (Angstroms)
 Number     Number       Type             X           Y           Z
 ---------------------------------------------------------------------
      1         12           0       -7.139544    0.657555    0.030555
      2          6           0       -4.838334   -1.995502    0.594158
      3          6           0       -4.883780    2.808449    1.155965
      4          6           0       -9.391500    3.095153   -0.350240
      5          6           0       -9.524284   -1.694733   -0.771387
      6          7           0       -5.089334    0.448969    0.666502
      7          6           0       -4.351758   -0.715149    0.740868
      8          6           0       -2.908440   -0.482173    1.252255
      9          6           0       -3.000941    1.051980    1.604843
     10          6           0       -4.352991    1.458250    1.175258
     11          6           0       -2.616493    1.335446    3.101103
     12          6           0       -1.826166   -0.723358    0.154683
     13          6           0       -0.414789   -0.586222    0.633660
     14          6           0        0.520715   -0.782565   -0.528023
     15          8           0        0.303629   -1.152864   -1.618325
     16          8           0        1.845034   -0.496638   -0.097803
     17          7           0       -7.022464    2.598378    0.276289
     18          6           0       -6.032788    3.400686    0.835193
     19          6           0       -6.395113    4.833463    0.801533
     20          6           0       -7.787209    4.910359    0.417691
     21          6           0       -8.154724    3.505364    0.107547
     22          6           0       -5.608431    5.933254    1.312894
     23          6           0       -8.696329    6.039552    0.350855
     24          6           0       -8.294265    7.245470    0.095963
     25          7           0       -9.094015    0.683972   -0.529374
     26          6           0       -9.778116    1.830972   -0.618663
     27          6           0      -11.206711    1.453806   -1.101683
     28          6           0      -11.232430    0.056001   -1.299341
     29          6           0       -9.982035   -0.385083   -0.885597
     30          6           0      -12.234836    2.501986   -1.473540
     31          6           0      -12.395545   -0.742525   -1.667590
     32          6           0      -12.362788   -1.202347   -3.166316
     33          7           0       -7.207495   -1.332993   -0.079632
     34          6           0       -8.207842   -2.183767   -0.476146
     35          6           0       -7.814202   -3.583417   -0.482486
     36          6           0       -6.492247   -3.516849   -0.079372
     37          6           0       -6.137969   -2.186798    0.196720
     38          6           0       -8.588868   -4.853076   -0.894402
     39          6           0       -5.271606   -4.383758    0.121254
     40          8           0       -5.147760   -5.544824    0.091098
     41          6           0       -4.122472   -3.275512    0.558215
     42          6           0       -3.398138   -3.711934    1.826188
     43          8           0       -3.660175   -3.197863    2.955562
     44          8           0       -2.636426   -4.744088    1.634010
     45          6           0       -2.067345   -5.092570    2.921573
     46          6           0        2.794101   -0.751687   -1.201213
     47          6           0        4.115817   -0.591827   -0.475800
     48          6           0        5.116118    0.278348   -0.894432
     49          6           0        4.969412    1.221924   -2.099634
     50          6           0        6.380818    0.336591   -0.168395
     51          6           0        7.605300   -0.090019   -0.978884
     52          6           0        8.786658   -0.019459   -0.100289
     53          6           0       10.077935   -0.503532   -0.888914
     54          6           0       10.133330   -2.100551   -1.101495
     55          6           0       11.384516   -0.293302    0.000982
     56          6           0       12.761072   -0.680730   -0.734594
     57          6           0       13.885421   -0.242104    0.123526
     58          6           0       15.262547   -0.262881   -0.679674
     59          6           0       15.698615   -1.691761   -1.129873
     60          6           0       16.296402    0.469478    0.272299
     61          6           0       17.788937    0.530915   -0.251174
     62          6           0       18.644394    1.383609    0.668317
     63          6           0       20.122565    1.454330    0.216728
     64          6           0       20.248818    2.335281   -0.999036
     65          6           0       20.952552    2.063960    1.352983
     66          1           0       -3.923101    3.342088    1.504142
     67          1           0      -10.130690    3.793794   -0.551555
     68          1           0      -10.161422   -2.527937   -1.205123
     69          1           0       -2.856168   -1.023418    2.215611
     70          1           0       -2.171370    1.651144    1.171449
     71          1           0       -1.468415    1.185908    3.289157
     72          1           0       -2.954674    2.476669    3.320545
     73          1           0       -3.120551    0.557691    3.855268
     74          1           0       -2.055886   -1.685615   -0.270792
     75          1           0       -2.076917   -0.020120   -0.758754
     76          1           0       -0.276593    0.451115    1.076036
     77          1           0       -0.303918   -1.499673    1.372917
     78          1           0       -4.984148    6.464167    0.660378
     79          1           0       -6.286694    6.824169    1.765967
     80          1           0       -4.899890    5.374351    1.844152
     81          1           0       -9.587599    5.682843    0.433637
     82          1           0       -8.794216    8.029458   -0.205593
     83          1           0       -7.212350    7.548612   -0.026946
     84          1           0      -11.781444    3.141108   -2.248316
     85          1           0      -13.280325    2.013146   -1.772269
     86          1           0      -12.530532    3.005985   -0.569528
     87          1           0      -12.420950   -1.590207   -1.128004
     88          1           0      -13.150924   -0.208955   -1.286623
     89          1           0      -13.288977   -1.520010   -3.520916
     90          1           0      -12.070528   -0.303228   -3.730782
     91          1           0      -11.601782   -1.828902   -3.459718
     92          1           0       -9.101937   -4.756985   -1.858530
     93          1           0       -7.914247   -5.569153   -1.040398
     94          1           0       -9.341806   -4.887270   -0.222220
     95          1           0       -3.303485   -3.155747   -0.055948
     96          1           0       -1.346608   -4.312198    3.147576
     97          1           0       -2.832483   -5.065219    3.797037
     98          1           0       -1.418303   -6.044615    2.961581
     99          1           0        2.645550   -1.686949   -1.731259
    100          1           0        2.314380   -0.019871   -2.081792
    101          1           0        4.062087   -1.056505    0.455300
    102          1           0        3.876546    1.699234   -2.235928
    103          1           0        5.653163    2.127474   -1.795995
    104          1           0        5.533435    0.794670   -2.974922
    105          1           0        6.433637    1.339237    0.336861
    106          1           0        6.289549   -0.277232    0.747170
    107          1           0        7.318472   -1.227942   -1.399007
    108          1           0        7.731269    0.558324   -1.878676
    109          1           0        9.028250    1.091390    0.135967
    110          1           0        8.855221   -0.474208    0.903275
    111          1           0       10.345915    0.028453   -1.799076
    112          1           0        9.326823   -2.620010   -1.714304
    113          1           0       11.141951   -2.405360   -1.592950
    114          1           0       10.221965   -2.549750    0.048519
    115          1           0       11.323827    0.781501    0.591081
    116          1           0       11.192375   -0.948425    0.874116
    117          1           0       12.685295   -1.681369   -0.996836
    118          1           0       12.768182   -0.078245   -1.715678
    119          1           0       13.858234    0.822881    0.635629
    120          1           0       14.096041   -0.834902    1.021168
    121          1           0       15.143350    0.359528   -1.498655
    122          1           0       15.838559   -2.230390   -0.090174
    123          1           0       14.786084   -2.338137   -1.649228
    124          1           0       16.547775   -1.572532   -1.822077
    125          1           0       16.055105    1.446976    0.543115
    126          1           0       16.397999    0.029108    1.224633
    127          1           0       18.159032   -0.459131   -0.269339
    128          1           0       17.671930    0.890304   -1.489472
    129          1           0       18.195271    2.416614    0.774597
    130          1           0       18.708249    0.693029    1.661190
    131          1           0       20.391987    0.452760    0.031305
    132          1           0       19.832758    3.282382   -0.613357
    133          1           0       21.281068    2.404749   -1.308392
    134          1           0       19.454921    1.958250   -1.668998
    135          1           0       20.873149    1.642698    2.338065
    136          1           0       21.975522    2.174326    1.004004
    137          1           0       20.519921    3.078725    1.506853
 ---------------------------------------------------------------------

 SCF Done:  E(RCAM-B3LYP) =  -2932.69574439     A.U. after   18 cycles

 Excitation energies and oscillator strengths:

 Excited State   1:      Singlet-A      2.0378 eV  608.43 nm  f=0.2218  <S**2>=0.000
     240 -> 243        0.25737
     241 -> 242        0.65129
 This state for optimization and/or second-order correction.
 Total Energy, E(TD-HF/TD-KS) =  -2932.62085820
 Copying the excited state density for this state as the 1-particle RhoCI density.

 The electronic state is 1-A.
 Alpha  occ. eigenvalues --  -46.82834 -19.28914 -19.24675 -19.22507 -19.21619
 Alpha  occ. eigenvalues --  -19.20047 -14.42063 -14.39288 -14.38765 -14.38713
 Alpha  occ. eigenvalues --  -10.39433 -10.39201 -10.35946 -10.32485 -10.31728
 Alpha  occ. eigenvalues --  -10.31579 -10.30185 -10.30139 -10.29622 -10.29340
 Alpha  occ. eigenvalues --  -10.28846 -10.28780 -10.28479 -10.28174 -10.28112
 Alpha  occ. eigenvalues --  -10.27973 -10.27690 -10.27625 -10.27618 -10.27478
 Alpha  occ. eigenvalues --  -10.27463 -10.27415 -10.27371 -10.27312 -10.27269
 Alpha  occ. eigenvalues --  -10.27242 -10.27114 -10.26967 -10.26783 -10.26742
 Alpha  occ. eigenvalues --  -10.26687 -10.26433 -10.26417 -10.26363 -10.26297
 Alpha  occ. eigenvalues --  -10.26285 -10.26211 -10.26037 -10.25770 -10.25729
 Alpha  occ. eigenvalues --  -10.25722 -10.25542 -10.25512 -10.25505 -10.25500
 Alpha  occ. eigenvalues --  -10.25496 -10.25203 -10.24747 -10.24527 -10.24276
 Alpha  occ. eigenvalues --  -10.24252 -10.24083 -10.24034 -10.23790 -10.23789
 Alpha  occ. eigenvalues --   -3.12135  -1.86815  -1.86401  -1.86320  -1.20818
 Alpha  occ. eigenvalues --   -1.18222  -1.14415  -1.09072  -1.07030  -1.04153
 Alpha  occ. eigenvalues --   -1.02428  -1.01724  -1.00495  -0.92852  -0.90912
 Alpha  occ. eigenvalues --   -0.90396  -0.90197  -0.90134  -0.89823  -0.88952
 Alpha  occ. eigenvalues --   -0.88097  -0.87478  -0.87018  -0.86145  -0.85792
 Alpha  occ. eigenvalues --   -0.85044  -0.84513  -0.83777  -0.82943  -0.82492
 Alpha  occ. eigenvalues --   -0.81493  -0.80940  -0.80249  -0.78840  -0.78299
 Alpha  occ. eigenvalues --   -0.77611  -0.77435  -0.76348  -0.75460  -0.75225
 Alpha  occ. eigenvalues --   -0.74583  -0.74375  -0.72627  -0.72400  -0.72128
 Alpha  occ. eigenvalues --   -0.71708  -0.70960  -0.69902  -0.69653  -0.68196
 Alpha  occ. eigenvalues --   -0.67290  -0.65824  -0.65082  -0.64792  -0.64592
 Alpha  occ. eigenvalues --   -0.64476  -0.63392  -0.62816  -0.62444  -0.62249
 Alpha  occ. eigenvalues --   -0.61830  -0.61113  -0.60454  -0.59883  -0.58885
 Alpha  occ. eigenvalues --   -0.58484  -0.58180  -0.57573  -0.57055  -0.56572
 Alpha  occ. eigenvalues --   -0.56115  -0.55985  -0.55519  -0.54903  -0.54681
 Alpha  occ. eigenvalues --   -0.54065  -0.54052  -0.53873  -0.53640  -0.53387
 Alpha  occ. eigenvalues --   -0.53269  -0.53146  -0.52272  -0.52125  -0.51984
 Alpha  occ. eigenvalues --   -0.51751  -0.51322  -0.51106  -0.50791  -0.50428
 Alpha  occ. eigenvalues --   -0.50289  -0.49860  -0.49736  -0.49473  -0.49394
 Alpha  occ. eigenvalues --   -0.49212  -0.48995  -0.48767  -0.48496  -0.48248
 Alpha  occ. eigenvalues --   -0.48099  -0.47908  -0.47560  -0.47294  -0.46920
 Alpha  occ. eigenvalues --   -0.46889  -0.46589  -0.46526  -0.46315  -0.46269
 Alpha  occ. eigenvalues --   -0.45797  -0.45711  -0.45472  -0.45234  -0.44911
 Alpha  occ. eigenvalues --   -0.44601  -0.44402  -0.44373  -0.44016  -0.43812
 Alpha  occ. eigenvalues --   -0.43719  -0.43356  -0.43245  -0.43081  -0.42966
 Alpha  occ. eigenvalues --   -0.42705  -0.42398  -0.42382  -0.42093  -0.42012
 Alpha  occ. eigenvalues --   -0.41954  -0.41733  -0.41577  -0.41409  -0.41330
 Alpha  occ. eigenvalues --   -0.41188  -0.41124  -0.40808  -0.40358  -0.40188
 Alpha  occ. eigenvalues --   -0.40095  -0.39831  -0.39758  -0.39405  -0.39247
 Alpha  occ. eigenvalues --   -0.39221  -0.38948  -0.38388  -0.38193  -0.38071
 Alpha  occ. eigenvalues --   -0.37803  -0.37766  -0.37646  -0.37418  -0.37254
 Alpha  occ. eigenvalues --   -0.36907  -0.36430  -0.36175  -0.36090  -0.35825
 Alpha  occ. eigenvalues --   -0.35372  -0.35237  -0.35000  -0.34187  -0.33469
 Alpha  occ. eigenvalues --   -0.32996  -0.32463  -0.31929  -0.30829  -0.29982
 Alpha  occ. eigenvalues --   -0.29244  -0.28354  -0.27528  -0.26992  -0.22853
 Alpha  occ. eigenvalues --   -0.20446
 Alpha virt. eigenvalues --   -0.05834  -0.02898   0.01761   0.04045   0.05430
 Alpha virt. eigenvalues --    0.06069   0.06136   0.06398   0.06567   0.07618
 Alpha virt. eigenvalues --    0.08570   0.10577   0.11660   0.11822   0.11957

 Mulliken charges:
               1
     1  Mg   0.810244
     2  C    0.160385
     3  C   -0.256012
     4  C   -0.190621
     5  C   -0.194216
     6  N   -0.605331
     7  C    0.231561
     8  C   -0.162144
     9  C   -0.164463
    10  C    0.353083
    11  C   -0.303070
    12  C   -0.179300
    13  C   -0.259583
    14  C    0.621712
    15  O   -0.433462
    16  O   -0.520817
    17  N   -0.719474
    18  C    0.371129
    19  C    0.034583
    20  C   -0.020158
    21  C    0.303179
    22  C   -0.380202
    23  C    0.009786
    24  C   -0.252693
    25  N   -0.715356
    26  C    0.360483
    27  C   -0.046315
    28  C    0.049224
    29  C    0.274133
    30  C   -0.375293
    31  C   -0.216119
    32  C   -0.330273
    33  N   -0.710029
    34  C    0.255849
    35  C   -0.017495
    36  C   -0.030355
    37  C    0.256687
    38  C   -0.341513
    39  C    0.394335
    40  O   -0.407846
    41  C   -0.366784
    42  C    0.618280
    43  O   -0.518643
    44  O   -0.409229
    45  C   -0.107539
    46  C    0.011746
    47  C   -0.136748
    48  C    0.115046
    49  C   -0.355725
    50  C   -0.231261
    51  C   -0.154678
    52  C   -0.162350
    53  C   -0.070461
    54  C   -0.297629
    55  C   -0.187413
    56  C   -0.169367
    57  C   -0.168820
    58  C   -0.066161
    59  C   -0.297053
    60  C   -0.188658
    61  C   -0.171949
    62  C   -0.170972
    63  C   -0.063286
    64  C   -0.293372
    65  C   -0.301860
    66  H    0.063763
    67  H    0.077112
    68  H    0.083136
    69  H    0.146208
    70  H    0.112664
    71  H    0.102059
    72  H    0.093273
    73  H    0.113779
    74  H    0.116895
    75  H    0.108502
    76  H    0.137762
    77  H    0.138238
    78  H    0.130866
    79  H    0.113412
    80  H    0.116724
    81  H    0.081090
    82  H    0.108377
    83  H    0.099909
    84  H    0.132813
    85  H    0.098217
    86  H    0.127899
    87  H    0.115100
    88  H    0.108182
    89  H    0.112075
    90  H    0.107381
    91  H    0.122264
    92  H    0.113617
    93  H    0.145067
    94  H    0.139730
    95  H    0.153038
    96  H    0.126806
    97  H    0.158421
    98  H    0.120501
    99  H    0.135079
   100  H    0.094178
   101  H    0.105594
   102  H    0.117219
   103  H    0.095345
   104  H    0.126516
   105  H    0.096366
   106  H    0.099592
   107  H    0.081532
   108  H    0.102901
   109  H    0.088104
   110  H    0.101396
   111  H    0.091224
   112  H    0.096834
   113  H    0.092785
   114  H    0.075319
   115  H    0.056473
   116  H    0.086180
   117  H    0.114479
   118  H    0.086402
   119  H    0.081672
   120  H    0.091610
   121  H    0.093301
   122  H    0.092810
   123  H    0.079019
   124  H    0.115728
   125  H    0.096786
   126  H    0.089136
   127  H    0.106426
   128  H    0.041528
   129  H    0.087029
   130  H    0.075066
   131  H    0.087208
   132  H    0.092923
   133  H    0.104605
   134  H    0.102239
   135  H    0.100037
   136  H    0.095744
   137  H    0.089400
 Sum of Mulliken charges =   0.00000

 Dipole moment (field-independent basis, Debye):
    X=              1.3588    Y=              4.1811    Z=              0.0879  Tot=              4.3973
 Quadrupole moment (field-independent basis, Debye-Ang):
   XX=           -352.8092   YY=           -387.5074   ZZ=           -399.1411
   XY=            -26.8120   XZ=             18.0773   YZ=             -3.2067

 Normal termination of Gaussian 09 at Thu Jun 27 21:34:34 2019.
