 Gaussian 09, Revision D.01,
 Gaussian 09:  ES64L-G09RevD.01 24-Apr-2013

 -------------------------------------
 # td=(NStates=1) CAM-B3LYP/6-31G(d,p)
 -------------------------------------

 --
 TD
 --
 Symbolic Z-matrix:
 Charge =  0 Multiplicity = 1

                         Standard orientation:
 ---------------------------------------------------------------------
 Center     Atomic      Atomic             Coordinates (Angstroms)
 Number     Number       Type             X           Y           Z
 ---------------------------------------------------------------------
      1         12           0       -7.146619    0.588479    0.167634
      2          6           0       -4.803229   -1.974287    0.557551
      3          6           0       -4.789822    2.851815    1.309965
      4          6           0       -9.375940    3.105104   -0.320572
      5          6           0       -9.532510   -1.751666   -0.795402
      6          7           0       -5.074159    0.440955    0.702941
      7          6           0       -4.290454   -0.761826    0.815636
      8          6           0       -2.882209   -0.317280    1.124050
      9          6           0       -2.962681    1.123021    1.676630
     10          6           0       -4.312846    1.482154    1.257809
     11          6           0       -2.929084    1.110149    3.158437
     12          6           0       -1.824693   -0.555026   -0.020718
     13          6           0       -0.448376   -0.384225    0.445762
     14          6           0        0.607319   -0.525606   -0.688378
     15          8           0        0.137605   -0.911128   -1.736953
     16          8           0        1.817305   -0.368053   -0.366448
     17          7           0       -7.075801    2.595490    0.283051
     18          6           0       -6.046100    3.391977    0.773769
     19          6           0       -6.388999    4.837956    0.940658
     20          6           0       -7.695772    4.888877    0.453364
     21          6           0       -8.107303    3.460809    0.075478
     22          6           0       -5.599893    5.859126    1.271686
     23          6           0       -8.587746    5.996251    0.333426
     24          6           0       -8.152866    7.268334    0.110323
     25          7           0       -9.178418    0.599026   -0.538304
     26          6           0       -9.936997    1.768254   -0.599429
     27          6           0      -11.333991    1.458108   -0.991501
     28          6           0      -11.301474    0.053023   -1.151968
     29          6           0       -9.932962   -0.444157   -0.894492
     30          6           0      -12.447404    2.383262   -1.282547
     31          6           0      -12.441648   -0.775611   -1.699290
     32          6           0      -12.298447   -1.137014   -3.159996
     33          7           0       -7.189150   -1.396973    0.000800
     34          6           0       -8.277098   -2.190850   -0.440753
     35          6           0       -7.865604   -3.628939   -0.475177
     36          6           0       -6.531710   -3.556494   -0.068623
     37          6           0       -6.210090   -2.185122    0.198045
     38          6           0       -8.664063   -4.848739   -0.714821
     39          6           0       -5.400393   -4.395758    0.131435
     40          8           0       -5.300810   -5.598555    0.057477
     41          6           0       -4.181780   -3.339176    0.574740
     42          6           0       -3.488955   -3.724672    1.867023
     43          8           0       -3.806934   -3.043516    2.898230
     44          8           0       -2.569038   -4.679071    1.694055
     45          6           0       -2.094636   -5.097641    3.001220
     46          6           0        2.863543   -0.544700   -1.278044
     47          6           0        4.152261   -0.342807   -0.632880
     48          6           0        5.193435    0.477363   -1.028494
     49          6           0        5.116406    1.313474   -2.281239
     50          6           0        6.460435    0.469630   -0.314630
     51          6           0        7.571342   -0.177325   -1.142776
     52          6           0        8.833998   -0.179585   -0.384598
     53          6           0       10.179234   -0.618383   -1.072298
     54          6           0       10.046121   -2.046473   -1.571263
     55          6           0       11.393701   -0.517238   -0.017910
     56          6           0       12.716682   -0.511911   -0.753675
     57          6           0       13.875426   -0.084984    0.157207
     58          6           0       15.344763   -0.084389   -0.463037
     59          6           0       15.696949   -1.496482   -1.000977
     60          6           0       16.447328    0.310563    0.599733
     61          6           0       17.808662    0.555043    0.001315
     62          6           0       18.853382    1.176037    0.806302
     63          6           0       20.339404    1.288299    0.347939
     64          6           0       20.160927    2.220826   -0.858238
     65          6           0       21.166444    1.746702    1.524443
     66          1           0       -3.967248    3.459446    1.438916
     67          1           0      -10.153148    4.001735   -0.662038
     68          1           0      -10.364044   -2.461046   -1.070576
     69          1           0       -2.631935   -1.077683    2.053952
     70          1           0       -2.092166    1.438645    1.156429
     71          1           0       -1.959689    0.810075    3.672284
     72          1           0       -2.965088    2.188249    3.334192
     73          1           0       -3.670496    0.398805    3.642399
     74          1           0       -2.005668   -1.441065   -0.438163
     75          1           0       -2.094850    0.180396   -0.823161
     76          1           0       -0.082726    0.463517    1.101645
     77          1           0       -0.307024   -1.379605    1.332409
     78          1           0       -4.994515    6.117172    0.429621
     79          1           0       -6.030202    6.703162    1.722910
     80          1           0       -4.875696    5.634856    2.090850
     81          1           0       -9.616050    5.828601    0.199765
     82          1           0       -8.773251    8.024253   -0.059586
     83          1           0       -7.208132    7.607388   -0.049494
     84          1           0      -12.328109    2.957425   -2.350143
     85          1           0      -13.531452    1.829154   -1.059892
     86          1           0      -12.377045    3.297060   -0.560550
     87          1           0      -12.443108   -1.715459   -1.073537
     88          1           0      -13.464086   -0.132268   -1.548919
     89          1           0      -13.333996   -1.868157   -3.376042
     90          1           0      -12.313852   -0.144536   -3.935826
     91          1           0      -11.282941   -1.780490   -3.279803
     92          1           0       -9.240887   -4.940631   -1.839074
     93          1           0       -8.093186   -5.839525   -0.739787
     94          1           0       -9.443826   -4.978594    0.225595
     95          1           0       -3.382012   -3.569016    0.082144
     96          1           0       -1.622363   -4.269632    3.713400
     97          1           0       -2.750356   -5.548031    3.510050
     98          1           0       -1.552283   -5.975616    2.637130
     99          1           0        2.761017   -1.422645   -1.788338
    100          1           0        2.925990   -0.026207   -2.297528
    101          1           0        4.296646   -1.144990    0.193830
    102          1           0        4.039458    1.286539   -2.502301
    103          1           0        5.395917    2.360821   -1.980370
    104          1           0        5.953605    0.836698   -2.949244
    105          1           0        6.793364    1.314518   -0.054077
    106          1           0        6.439262   -0.206779    0.582238
    107          1           0        7.144062   -1.159092   -1.413017
    108          1           0        7.644334    0.283730   -2.201596
    109          1           0        8.877144    0.771135   -0.044054
    110          1           0        8.573666   -0.827580    0.550471
    111          1           0       10.468981    0.213159   -1.739167
    112          1           0        9.339173   -2.239552   -2.394865
    113          1           0       11.004117   -2.559885   -1.859173
    114          1           0        9.698247   -2.623731   -0.779833
    115          1           0       11.394666    0.489171    0.398361
    116          1           0       11.238468   -1.218660    0.786857
    117          1           0       12.921784   -1.305215   -1.222197
    118          1           0       12.751278    0.151596   -1.615858
    119          1           0       13.837129    0.925260    0.583089
    120          1           0       13.726135   -0.828798    1.117635
    121          1           0       15.564599    0.582796   -1.180351
    122          1           0       15.934365   -2.132454   -0.169241
    123          1           0       14.912339   -1.749038   -1.588003
    124          1           0       16.755516   -1.678363   -1.553836
    125          1           0       16.135797    1.336172    0.832021
    126          1           0       16.598267   -0.195671    1.457813
    127          1           0       18.226534   -0.481040   -0.084356
    128          1           0       17.863854    1.026222   -1.068720
    129          1           0       18.402441    2.079333    0.880831
    130          1           0       18.731369    0.578399    1.790639
    131          1           0       20.541437    0.266644    0.150750
    132          1           0       19.759763    3.220110   -0.475560
    133          1           0       21.106340    2.450312   -1.312892
    134          1           0       19.943133    1.733935   -1.863762
    135          1           0       21.271817    1.226299    2.381661
    136          1           0       22.213165    1.841601    1.130032
    137          1           0       20.783412    2.691279    1.841776
 ---------------------------------------------------------------------

 SCF Done:  E(RCAM-B3LYP) =  -2932.53385069     A.U. after   17 cycles

 Excitation energies and oscillator strengths:

 Excited State   1:      Singlet-A      2.0848 eV  594.72 nm  f=0.2009  <S**2>=0.000
     240 -> 243       -0.24704
     241 -> 242        0.65107
 This state for optimization and/or second-order correction.
 Total Energy, E(TD-HF/TD-KS) =  -2932.45723716
 Copying the excited state density for this state as the 1-particle RhoCI density.

 The electronic state is 1-A.
 Alpha  occ. eigenvalues --  -46.84522 -19.28562 -19.28540 -19.20064 -19.20023
 Alpha  occ. eigenvalues --  -19.19615 -14.40915 -14.40137 -14.39937 -14.39097
 Alpha  occ. eigenvalues --  -10.39170 -10.38947 -10.34683 -10.31985 -10.31561
 Alpha  occ. eigenvalues --  -10.31274 -10.31070 -10.29784 -10.29770 -10.29564
 Alpha  occ. eigenvalues --  -10.29272 -10.29131 -10.29097 -10.29014 -10.28812
 Alpha  occ. eigenvalues --  -10.28805 -10.28801 -10.28278 -10.28242 -10.27783
 Alpha  occ. eigenvalues --  -10.27453 -10.27434 -10.27389 -10.27340 -10.27101
 Alpha  occ. eigenvalues --  -10.27088 -10.27034 -10.26842 -10.26775 -10.26602
 Alpha  occ. eigenvalues --  -10.26342 -10.26185 -10.26183 -10.26125 -10.26005
 Alpha  occ. eigenvalues --  -10.25917 -10.25906 -10.25766 -10.25604 -10.25567
 Alpha  occ. eigenvalues --  -10.25472 -10.25276 -10.25244 -10.25090 -10.24851
 Alpha  occ. eigenvalues --  -10.24729 -10.24726 -10.24675 -10.24370 -10.24090
 Alpha  occ. eigenvalues --  -10.23760 -10.23698 -10.23662 -10.23582 -10.23048
 Alpha  occ. eigenvalues --   -3.13495  -1.88206  -1.87733  -1.87675  -1.22381
 Alpha  occ. eigenvalues --   -1.18714  -1.10860  -1.09960  -1.06782  -1.04908
 Alpha  occ. eigenvalues --   -1.02978  -1.01861  -1.01122  -0.93058  -0.91394
 Alpha  occ. eigenvalues --   -0.91080  -0.90992  -0.90288  -0.89617  -0.88743
 Alpha  occ. eigenvalues --   -0.88287  -0.87581  -0.87349  -0.87223  -0.87067
 Alpha  occ. eigenvalues --   -0.86028  -0.85195  -0.83908  -0.83750  -0.82986
 Alpha  occ. eigenvalues --   -0.81917  -0.81355  -0.81103  -0.79366  -0.78431
 Alpha  occ. eigenvalues --   -0.77282  -0.77176  -0.77029  -0.76938  -0.75529
 Alpha  occ. eigenvalues --   -0.75122  -0.74926  -0.74278  -0.73896  -0.71862
 Alpha  occ. eigenvalues --   -0.71225  -0.70650  -0.69798  -0.69031  -0.67827
 Alpha  occ. eigenvalues --   -0.67460  -0.66941  -0.66529  -0.66202  -0.65046
 Alpha  occ. eigenvalues --   -0.64652  -0.64442  -0.63709  -0.63470  -0.62733
 Alpha  occ. eigenvalues --   -0.61994  -0.61206  -0.60588  -0.60001  -0.58760
 Alpha  occ. eigenvalues --   -0.58421  -0.58213  -0.58096  -0.57118  -0.56283
 Alpha  occ. eigenvalues --   -0.56054  -0.55816  -0.55523  -0.55187  -0.54825
 Alpha  occ. eigenvalues --   -0.54644  -0.54498  -0.54387  -0.54027  -0.53815
 Alpha  occ. eigenvalues --   -0.52988  -0.52812  -0.52567  -0.52456  -0.51977
 Alpha  occ. eigenvalues --   -0.51827  -0.51528  -0.51083  -0.50852  -0.50672
 Alpha  occ. eigenvalues --   -0.50508  -0.49982  -0.49900  -0.49445  -0.49317
 Alpha  occ. eigenvalues --   -0.49233  -0.48850  -0.48837  -0.48710  -0.48367
 Alpha  occ. eigenvalues --   -0.48311  -0.47781  -0.47573  -0.47160  -0.46704
 Alpha  occ. eigenvalues --   -0.46671  -0.46621  -0.46463  -0.46355  -0.46226
 Alpha  occ. eigenvalues --   -0.45976  -0.45663  -0.45370  -0.45227  -0.45083
 Alpha  occ. eigenvalues --   -0.44945  -0.44796  -0.44573  -0.44399  -0.44043
 Alpha  occ. eigenvalues --   -0.44022  -0.43830  -0.43653  -0.43338  -0.43259
 Alpha  occ. eigenvalues --   -0.43216  -0.43136  -0.42887  -0.42711  -0.42641
 Alpha  occ. eigenvalues --   -0.42435  -0.42147  -0.42038  -0.41676  -0.41134
 Alpha  occ. eigenvalues --   -0.41106  -0.40701  -0.40501  -0.40068  -0.39857
 Alpha  occ. eigenvalues --   -0.39789  -0.39711  -0.39272  -0.39088  -0.38576
 Alpha  occ. eigenvalues --   -0.38448  -0.38248  -0.37737  -0.37668  -0.37585
 Alpha  occ. eigenvalues --   -0.37324  -0.36979  -0.36906  -0.36725  -0.36573
 Alpha  occ. eigenvalues --   -0.36299  -0.36266  -0.35902  -0.35710  -0.35600
 Alpha  occ. eigenvalues --   -0.35271  -0.34966  -0.34037  -0.33221  -0.33048
 Alpha  occ. eigenvalues --   -0.32664  -0.32068  -0.31383  -0.30133  -0.29656
 Alpha  occ. eigenvalues --   -0.29608  -0.29312  -0.27331  -0.26986  -0.22811
 Alpha  occ. eigenvalues --   -0.20872
 Alpha virt. eigenvalues --   -0.05762  -0.02898   0.02035   0.03775   0.04940
 Alpha virt. eigenvalues --    0.05482   0.05918   0.06229   0.06941   0.07134
 Alpha virt. eigenvalues --    0.08381   0.10274   0.11139   0.11676   0.11973

 Mulliken charges:
               1
     1  Mg   0.829674
     2  C    0.116665
     3  C   -0.200792
     4  C   -0.203126
     5  C   -0.150174
     6  N   -0.625999
     7  C    0.290946
     8  C   -0.194064
     9  C   -0.133401
    10  C    0.316907
    11  C   -0.300598
    12  C   -0.142339
    13  C   -0.259718
    14  C    0.598857
    15  O   -0.482954
    16  O   -0.400978
    17  N   -0.694772
    18  C    0.274873
    19  C    0.102972
    20  C    0.023368
    21  C    0.332720
    22  C   -0.431538
    23  C   -0.098543
    24  C   -0.231013
    25  N   -0.680506
    26  C    0.254029
    27  C    0.066219
    28  C   -0.012842
    29  C    0.312363
    30  C   -0.373783
    31  C   -0.224426
    32  C   -0.252020
    33  N   -0.727649
    34  C    0.219217
    35  C    0.090244
    36  C   -0.004942
    37  C    0.320664
    38  C   -0.388486
    39  C    0.353699
    40  O   -0.460807
    41  C   -0.323704
    42  C    0.619905
    43  O   -0.509394
    44  O   -0.445157
    45  C   -0.092288
    46  C   -0.008041
    47  C   -0.145310
    48  C    0.097558
    49  C   -0.343966
    50  C   -0.198984
    51  C   -0.194514
    52  C   -0.162474
    53  C   -0.066245
    54  C   -0.316118
    55  C   -0.185552
    56  C   -0.171682
    57  C   -0.174587
    58  C   -0.058814
    59  C   -0.305765
    60  C   -0.174261
    61  C   -0.191597
    62  C   -0.156719
    63  C   -0.052680
    64  C   -0.324758
    65  C   -0.302148
    66  H    0.074023
    67  H    0.083060
    68  H    0.102670
    69  H    0.100286
    70  H    0.113541
    71  H    0.098164
    72  H    0.107672
    73  H    0.138868
    74  H    0.135383
    75  H    0.112616
    76  H    0.119986
    77  H    0.076496
    78  H    0.139796
    79  H    0.133112
    80  H    0.110736
    81  H    0.095824
    82  H    0.098978
    83  H    0.106414
    84  H    0.110484
    85  H    0.103517
    86  H    0.105872
    87  H    0.102434
    88  H    0.079945
    89  H    0.069924
    90  H    0.092677
    91  H    0.096000
    92  H    0.096180
    93  H    0.153790
    94  H    0.115897
    95  H    0.139919
    96  H    0.134738
    97  H    0.151133
    98  H    0.122705
    99  H    0.139593
   100  H    0.106496
   101  H    0.083183
   102  H    0.117284
   103  H    0.114101
   104  H    0.123893
   105  H    0.106190
   106  H    0.099908
   107  H    0.096936
   108  H    0.072745
   109  H    0.097748
   110  H    0.072971
   111  H    0.085973
   112  H    0.104955
   113  H    0.096978
   114  H    0.115254
   115  H    0.094506
   116  H    0.096231
   117  H    0.109040
   118  H    0.086280
   119  H    0.092432
   120  H    0.064947
   121  H    0.098528
   122  H    0.105759
   123  H    0.102188
   124  H    0.077551
   125  H    0.075328
   126  H    0.097565
   127  H    0.068353
   128  H    0.072335
   129  H    0.086470
   130  H    0.054217
   131  H    0.091175
   132  H    0.111743
   133  H    0.093037
   134  H    0.115836
   135  H    0.118565
   136  H    0.089014
   137  H    0.101199
 Sum of Mulliken charges =   0.00000

 Dipole moment (field-independent basis, Debye):
    X=              4.6980    Y=              4.5563    Z=              0.6194  Tot=              6.5738
 Quadrupole moment (field-independent basis, Debye-Ang):
   XX=           -347.8001   YY=           -382.1808   ZZ=           -400.2271
   XY=            -18.8838   XZ=              1.5029   YZ=             -7.8541

 Normal termination of Gaussian 09 at Thu Jun 27 17:08:20 2019.
