 Gaussian 09, Revision D.01,
 Gaussian 09:  ES64L-G09RevD.01 24-Apr-2013

 -------------------------------------
 # td=(NStates=1) CAM-B3LYP/6-31G(d,p)
 -------------------------------------

 --
 TD
 --
 Symbolic Z-matrix:
 Charge =  0 Multiplicity = 1

                         Standard orientation:
 ---------------------------------------------------------------------
 Center     Atomic      Atomic             Coordinates (Angstroms)
 Number     Number       Type             X           Y           Z
 ---------------------------------------------------------------------
      1         12           0       -7.195745    0.521938    0.123293
      2          6           0       -4.872672   -1.939803    0.570918
      3          6           0       -4.967097    2.960197    1.222184
      4          6           0       -9.443992    3.047810   -0.419228
      5          6           0       -9.457540   -1.770410   -0.872511
      6          7           0       -5.058531    0.462574    0.650403
      7          6           0       -4.334442   -0.671252    0.718843
      8          6           0       -2.917197   -0.358492    1.273412
      9          6           0       -3.067652    1.218278    1.664956
     10          6           0       -4.417591    1.608581    1.186353
     11          6           0       -3.069802    1.349858    3.145764
     12          6           0       -1.871181   -0.601907    0.141916
     13          6           0       -0.371049   -0.465118    0.606352
     14          6           0        0.520759   -0.658014   -0.522285
     15          8           0        0.291896   -1.035468   -1.662351
     16          8           0        1.823239   -0.451259   -0.138367
     17          7           0       -7.070172    2.656887    0.337078
     18          6           0       -6.078916    3.342908    0.772394
     19          6           0       -6.587183    4.774451    0.877458
     20          6           0       -7.923041    4.767049    0.320598
     21          6           0       -8.177882    3.389691    0.035181
     22          6           0       -5.742374    5.897911    1.472240
     23          6           0       -8.754778    6.029690    0.328453
     24          6           0       -8.461191    7.224769    0.036650
     25          7           0       -9.094317    0.671238   -0.615865
     26          6           0       -9.917555    1.730279   -0.724387
     27          6           0      -11.252195    1.418800   -1.203267
     28          6           0      -11.311164    0.051254   -1.285251
     29          6           0       -9.904074   -0.494932   -0.964100
     30          6           0      -12.311940    2.398804   -1.393682
     31          6           0      -12.352173   -0.917946   -1.815647
     32          6           0      -12.272813   -1.289314   -3.294449
     33          7           0       -7.170400   -1.345110   -0.175156
     34          6           0       -8.221515   -2.294109   -0.600969
     35          6           0       -7.819061   -3.588628   -0.463336
     36          6           0       -6.484530   -3.528572   -0.138916
     37          6           0       -6.182350   -2.192704    0.155448
     38          6           0       -8.633953   -4.722534   -0.940640
     39          6           0       -5.284369   -4.350149    0.114208
     40          8           0       -5.182361   -5.551990    0.150820
     41          6           0       -4.180087   -3.348324    0.650796
     42          6           0       -3.562534   -3.731157    2.034666
     43          8           0       -4.020446   -3.164806    3.069048
     44          8           0       -2.690851   -4.719523    1.907285
     45          6           0       -2.282464   -5.157617    3.134107
     46          6           0        2.805274   -0.526968   -1.240431
     47          6           0        4.156004   -0.375813   -0.585969
     48          6           0        5.157565    0.305699   -0.993857
     49          6           0        5.253464    1.097402   -2.277242
     50          6           0        6.479945    0.424363   -0.211257
     51          6           0        7.699442   -0.176905   -0.935717
     52          6           0        8.942438   -0.042671   -0.138128
     53          6           0       10.240122   -0.464394   -0.963732
     54          6           0       10.209667   -1.959300   -1.292465
     55          6           0       11.465143   -0.243167   -0.027340
     56          6           0       12.841889   -0.523136   -0.796438
     57          6           0       14.004850   -0.158257    0.025018
     58          6           0       15.466944   -0.258070   -0.601593
     59          6           0       15.818657   -1.683044   -1.108822
     60          6           0       16.485944    0.328862    0.371363
     61          6           0       17.922774    0.479117   -0.169636
     62          6           0       18.784473    1.244564    0.765391
     63          6           0       20.260356    1.357209    0.297707
     64          6           0       20.534588    2.193106   -0.924653
     65          6           0       21.089960    1.988584    1.492535
     66          1           0       -4.314844    3.679369    1.593118
     67          1           0      -10.114272    3.970630   -0.735338
     68          1           0      -10.112213   -2.465846   -1.021761
     69          1           0       -2.863807   -1.139107    2.136947
     70          1           0       -2.347082    1.962324    1.346955
     71          1           0       -2.149588    0.969072    3.693287
     72          1           0       -3.228612    2.521508    3.460234
     73          1           0       -3.963610    0.796151    3.527320
     74          1           0       -1.817419   -1.615985   -0.070199
     75          1           0       -2.279894    0.037820   -0.608363
     76          1           0       -0.200830    0.630565    1.298642
     77          1           0       -0.098421   -1.212313    1.292171
     78          1           0       -5.135577    6.493147    0.688554
     79          1           0       -6.354895    6.574215    2.161517
     80          1           0       -4.883823    5.584888    2.132895
     81          1           0       -9.889016    5.765173    0.640548
     82          1           0       -9.074507    8.121811   -0.034039
     83          1           0       -7.361275    7.539753   -0.271879
     84          1           0      -12.201633    3.176584   -2.152588
     85          1           0      -13.164843    1.735465   -1.571018
     86          1           0      -12.451131    2.901876   -0.432405
     87          1           0      -12.215204   -1.516603   -1.060207
     88          1           0      -13.390880   -0.473728   -1.419272
     89          1           0      -12.942372   -2.065454   -3.516172
     90          1           0      -12.515473   -0.509113   -4.039403
     91          1           0      -11.205554   -1.676508   -3.409274
     92          1           0       -8.916977   -4.490357   -1.852954
     93          1           0       -7.850886   -5.520012   -0.951277
     94          1           0       -9.504045   -4.633965   -0.364119
     95          1           0       -3.272666   -3.128022    0.011656
     96          1           0       -1.774244   -4.481623    3.733648
     97          1           0       -3.024155   -5.582189    3.791902
     98          1           0       -1.413026   -5.742050    2.815248
     99          1           0        2.653987   -1.443132   -1.758371
    100          1           0        2.460346    0.303653   -2.070941
    101          1           0        4.175935   -1.178117    0.125858
    102          1           0        4.202070    1.299842   -2.655624
    103          1           0        5.793307    2.066746   -2.048996
    104          1           0        5.662989    0.451305   -3.016596
    105          1           0        6.736433    1.448382   -0.125665
    106          1           0        6.395350    0.089143    0.962626
    107          1           0        7.358236   -1.235968   -1.106487
    108          1           0        7.787654    0.382732   -1.922157
    109          1           0        9.031182    1.008594    0.031817
    110          1           0        8.984781   -0.522735    0.848800
    111          1           0       10.155640    0.228690   -1.903968
    112          1           0        9.290558   -2.123401   -1.973487
    113          1           0       11.082271   -2.252641   -1.925470
    114          1           0       10.293618   -2.487926   -0.217077
    115          1           0       11.296741    0.650373    0.491501
    116          1           0       11.323082   -0.901456    0.940658
    117          1           0       12.958548   -1.548622   -1.151985
    118          1           0       12.842183   -0.075359   -1.795952
    119          1           0       13.842292    1.051364    0.423730
    120          1           0       14.142496   -0.644963    0.971839
    121          1           0       15.461903    0.282813   -1.475042
    122          1           0       15.922759   -2.472127   -0.369540
    123          1           0       14.960278   -2.183995   -1.742160
    124          1           0       16.723563   -1.613664   -1.654807
    125          1           0       15.900335    1.289519    0.622881
    126          1           0       16.350614   -0.331929    1.216603
    127          1           0       18.314428   -0.489484   -0.275872
    128          1           0       17.716732    0.853467   -1.058727
    129          1           0       18.317661    2.311948    0.977623
    130          1           0       18.914310    0.784411    1.694037
    131          1           0       20.757519    0.344434    0.061782
    132          1           0       20.139361    3.216781   -0.957887
    133          1           0       21.699972    2.109448   -1.156689
    134          1           0       20.134694    1.776442   -1.811588
    135          1           0       20.998439    1.410987    2.412639
    136          1           0       22.075364    2.103634    1.260478
    137          1           0       20.594799    3.016148    1.797854
 ---------------------------------------------------------------------

 SCF Done:  E(RCAM-B3LYP) =  -2932.68495971     A.U. after   18 cycles

 Excitation energies and oscillator strengths:

 Excited State   1:      Singlet-A      2.2241 eV  557.46 nm  f=0.1765  <S**2>=0.000
     240 -> 242       -0.19896
     240 -> 243        0.25171
     241 -> 242        0.60370
     241 -> 243        0.16059
 This state for optimization and/or second-order correction.
 Total Energy, E(TD-HF/TD-KS) =  -2932.60322560
 Copying the excited state density for this state as the 1-particle RhoCI density.

 The electronic state is 1-A.
 Alpha  occ. eigenvalues --  -46.83629 -19.29041 -19.25058 -19.21452 -19.20924
 Alpha  occ. eigenvalues --  -19.20027 -14.41933 -14.39578 -14.38559 -14.38319
 Alpha  occ. eigenvalues --  -10.40418 -10.38998 -10.35025 -10.32587 -10.31936
 Alpha  occ. eigenvalues --  -10.30528 -10.30057 -10.29887 -10.29427 -10.29377
 Alpha  occ. eigenvalues --  -10.28974 -10.28796 -10.28701 -10.28519 -10.28116
 Alpha  occ. eigenvalues --  -10.28055 -10.27970 -10.27636 -10.27612 -10.27566
 Alpha  occ. eigenvalues --  -10.27275 -10.27273 -10.27208 -10.27171 -10.26746
 Alpha  occ. eigenvalues --  -10.26726 -10.26684 -10.26548 -10.26516 -10.26484
 Alpha  occ. eigenvalues --  -10.26349 -10.26336 -10.26327 -10.26223 -10.26130
 Alpha  occ. eigenvalues --  -10.26049 -10.25996 -10.25957 -10.25948 -10.25882
 Alpha  occ. eigenvalues --  -10.25642 -10.25572 -10.25571 -10.25041 -10.25014
 Alpha  occ. eigenvalues --  -10.24954 -10.24939 -10.24831 -10.24637 -10.24591
 Alpha  occ. eigenvalues --  -10.24476 -10.24109 -10.24093 -10.24009 -10.23482
 Alpha  occ. eigenvalues --   -3.12800  -1.87487  -1.87035  -1.86998  -1.21464
 Alpha  occ. eigenvalues --   -1.16897  -1.11181  -1.08521  -1.07783  -1.05130
 Alpha  occ. eigenvalues --   -1.03209  -1.02187  -1.01097  -0.91884  -0.91482
 Alpha  occ. eigenvalues --   -0.90560  -0.89932  -0.89810  -0.89314  -0.89114
 Alpha  occ. eigenvalues --   -0.88525  -0.88410  -0.88005  -0.87768  -0.86783
 Alpha  occ. eigenvalues --   -0.85383  -0.84523  -0.84085  -0.83337  -0.83168
 Alpha  occ. eigenvalues --   -0.82688  -0.81876  -0.80913  -0.80036  -0.78797
 Alpha  occ. eigenvalues --   -0.78029  -0.76765  -0.76329  -0.75599  -0.75526
 Alpha  occ. eigenvalues --   -0.75187  -0.75063  -0.74078  -0.73126  -0.72674
 Alpha  occ. eigenvalues --   -0.72282  -0.71080  -0.70448  -0.69660  -0.67979
 Alpha  occ. eigenvalues --   -0.66882  -0.66315  -0.66073  -0.65085  -0.64972
 Alpha  occ. eigenvalues --   -0.64803  -0.63487  -0.63102  -0.62259  -0.62132
 Alpha  occ. eigenvalues --   -0.61894  -0.60249  -0.59975  -0.59895  -0.59522
 Alpha  occ. eigenvalues --   -0.58475  -0.57765  -0.57701  -0.57212  -0.56921
 Alpha  occ. eigenvalues --   -0.56145  -0.55589  -0.55224  -0.54986  -0.54889
 Alpha  occ. eigenvalues --   -0.54755  -0.54698  -0.54261  -0.53677  -0.53077
 Alpha  occ. eigenvalues --   -0.52667  -0.52265  -0.52129  -0.52007  -0.51877
 Alpha  occ. eigenvalues --   -0.51784  -0.51271  -0.51149  -0.50805  -0.50680
 Alpha  occ. eigenvalues --   -0.50571  -0.50303  -0.50087  -0.49727  -0.49686
 Alpha  occ. eigenvalues --   -0.49431  -0.49275  -0.49198  -0.48603  -0.48512
 Alpha  occ. eigenvalues --   -0.48280  -0.48201  -0.47890  -0.47743  -0.47400
 Alpha  occ. eigenvalues --   -0.46849  -0.46718  -0.46534  -0.46432  -0.46275
 Alpha  occ. eigenvalues --   -0.45861  -0.45638  -0.45609  -0.45342  -0.45209
 Alpha  occ. eigenvalues --   -0.44805  -0.44649  -0.44474  -0.44312  -0.44171
 Alpha  occ. eigenvalues --   -0.43988  -0.43859  -0.43717  -0.43430  -0.43112
 Alpha  occ. eigenvalues --   -0.43044  -0.42770  -0.42737  -0.42328  -0.42271
 Alpha  occ. eigenvalues --   -0.42169  -0.42105  -0.41910  -0.41494  -0.41376
 Alpha  occ. eigenvalues --   -0.41225  -0.40919  -0.40554  -0.40276  -0.39979
 Alpha  occ. eigenvalues --   -0.39825  -0.39686  -0.39306  -0.38993  -0.38658
 Alpha  occ. eigenvalues --   -0.38598  -0.38396  -0.38158  -0.37990  -0.37612
 Alpha  occ. eigenvalues --   -0.37365  -0.37319  -0.37280  -0.37254  -0.36968
 Alpha  occ. eigenvalues --   -0.36665  -0.36652  -0.36414  -0.35760  -0.35469
 Alpha  occ. eigenvalues --   -0.35315  -0.34786  -0.34717  -0.33953  -0.33643
 Alpha  occ. eigenvalues --   -0.33310  -0.33150  -0.32164  -0.30746  -0.30365
 Alpha  occ. eigenvalues --   -0.29804  -0.29347  -0.28280  -0.27527  -0.23042
 Alpha  occ. eigenvalues --   -0.21216
 Alpha virt. eigenvalues --   -0.05722  -0.02856   0.01823   0.04280   0.05051
 Alpha virt. eigenvalues --    0.05360   0.05571   0.07304   0.07455   0.07663
 Alpha virt. eigenvalues --    0.08218   0.10669   0.11222   0.12187   0.12194

 Mulliken charges:
               1
     1  Mg   0.833750
     2  C    0.082529
     3  C   -0.186818
     4  C   -0.213526
     5  C   -0.164387
     6  N   -0.625068
     7  C    0.272575
     8  C   -0.185943
     9  C   -0.151431
    10  C    0.305358
    11  C   -0.294251
    12  C   -0.142897
    13  C   -0.281688
    14  C    0.637905
    15  O   -0.485012
    16  O   -0.505468
    17  N   -0.737890
    18  C    0.417405
    19  C   -0.012052
    20  C   -0.022784
    21  C    0.359448
    22  C   -0.382968
    23  C   -0.043904
    24  C   -0.252617
    25  N   -0.688880
    26  C    0.322062
    27  C    0.042990
    28  C   -0.022692
    29  C    0.259805
    30  C   -0.375375
    31  C   -0.209081
    32  C   -0.303922
    33  N   -0.766830
    34  C    0.249541
    35  C   -0.004544
    36  C   -0.015174
    37  C    0.311763
    38  C   -0.352200
    39  C    0.376491
    40  O   -0.455150
    41  C   -0.318211
    42  C    0.614214
    43  O   -0.491165
    44  O   -0.390930
    45  C   -0.102712
    46  C    0.007885
    47  C   -0.124017
    48  C    0.121195
    49  C   -0.360446
    50  C   -0.226720
    51  C   -0.177632
    52  C   -0.171645
    53  C   -0.068950
    54  C   -0.280404
    55  C   -0.171457
    56  C   -0.177797
    57  C   -0.157801
    58  C   -0.079871
    59  C   -0.320373
    60  C   -0.180158
    61  C   -0.166163
    62  C   -0.155336
    63  C   -0.065306
    64  C   -0.298204
    65  C   -0.304307
    66  H    0.073430
    67  H    0.096052
    68  H    0.051781
    69  H    0.122216
    70  H    0.115116
    71  H    0.107794
    72  H    0.077414
    73  H    0.127448
    74  H    0.123032
    75  H    0.130111
    76  H    0.105664
    77  H    0.155759
    78  H    0.117883
    79  H    0.126022
    80  H    0.108399
    81  H    0.079115
    82  H    0.115244
    83  H    0.090681
    84  H    0.125637
    85  H    0.112055
    86  H    0.124352
    87  H    0.130248
    88  H    0.072992
    89  H    0.119191
    90  H    0.119788
    91  H    0.110025
    92  H    0.139259
    93  H    0.146376
    94  H    0.127584
    95  H    0.145802
    96  H    0.127708
    97  H    0.142850
    98  H    0.115687
    99  H    0.140797
   100  H    0.095578
   101  H    0.099306
   102  H    0.103580
   103  H    0.109905
   104  H    0.140082
   105  H    0.102048
   106  H    0.074741
   107  H    0.099617
   108  H    0.090910
   109  H    0.093688
   110  H    0.091143
   111  H    0.070506
   112  H    0.091885
   113  H    0.100269
   114  H    0.088729
   115  H    0.098109
   116  H    0.071037
   117  H    0.101416
   118  H    0.098846
   119  H    0.038554
   120  H    0.098143
   121  H    0.091191
   122  H    0.099224
   123  H    0.078966
   124  H    0.108993
   125  H    0.081061
   126  H    0.087612
   127  H    0.101897
   128  H    0.105733
   129  H    0.075252
   130  H    0.103269
   131  H    0.076570
   132  H    0.101879
   133  H    0.078417
   134  H    0.102719
   135  H    0.094846
   136  H    0.106326
   137  H    0.081680
 Sum of Mulliken charges =   0.00000

 Dipole moment (field-independent basis, Debye):
    X=              1.4226    Y=              4.1694    Z=              0.5729  Tot=              4.4425
 Quadrupole moment (field-independent basis, Debye-Ang):
   XX=           -343.4237   YY=           -396.3736   ZZ=           -395.1978
   XY=            -29.0446   XZ=              5.5040   YZ=             -2.9581

 Normal termination of Gaussian 09 at Sat Jun 29 04:07:51 2019.
