 Gaussian 09, Revision D.01,
 Gaussian 09:  ES64L-G09RevD.01 24-Apr-2013

 -------------------------------------
 # td=(NStates=1) CAM-B3LYP/6-31G(d,p)
 -------------------------------------

 --
 TD
 --
 Symbolic Z-matrix:
 Charge =  0 Multiplicity = 1

                         Standard orientation:
 ---------------------------------------------------------------------
 Center     Atomic      Atomic             Coordinates (Angstroms)
 Number     Number       Type             X           Y           Z
 ---------------------------------------------------------------------
      1         12           0       -7.141110    0.608317    0.135365
      2          6           0       -4.819421   -1.862165    0.547728
      3          6           0       -4.847577    2.925562    1.213196
      4          6           0       -9.392980    3.076958   -0.351094
      5          6           0       -9.458812   -1.805013   -0.813918
      6          7           0       -5.060703    0.476668    0.725453
      7          6           0       -4.309863   -0.705798    0.816979
      8          6           0       -2.858914   -0.296395    1.332287
      9          6           0       -2.961268    1.133749    1.733614
     10          6           0       -4.338111    1.553524    1.224659
     11          6           0       -2.902757    1.378495    3.190565
     12          6           0       -1.884583   -0.453931    0.127455
     13          6           0       -0.396321   -0.337332    0.611285
     14          6           0        0.470298   -0.675680   -0.595278
     15          8           0        0.073027   -0.963384   -1.729602
     16          8           0        1.801315   -0.546996   -0.251444
     17          7           0       -7.100377    2.645328    0.211673
     18          6           0       -6.032155    3.366735    0.756470
     19          6           0       -6.491116    4.759805    0.805716
     20          6           0       -7.751332    4.889151    0.457270
     21          6           0       -8.123330    3.377391    0.005532
     22          6           0       -5.600192    5.954594    1.318480
     23          6           0       -8.713202    5.955472    0.360204
     24          6           0       -8.280343    7.240255   -0.043223
     25          7           0       -9.071703    0.679203   -0.601542
     26          6           0       -9.897669    1.775348   -0.676200
     27          6           0      -11.194882    1.423702   -1.044903
     28          6           0      -11.209212   -0.021181   -1.153758
     29          6           0       -9.897618   -0.517936   -0.947567
     30          6           0      -12.334317    2.239054   -1.265873
     31          6           0      -12.397955   -0.795210   -1.519710
     32          6           0      -12.447102   -1.213228   -3.127038
     33          7           0       -7.202940   -1.439626   -0.206921
     34          6           0       -8.213666   -2.341177   -0.328837
     35          6           0       -7.750871   -3.647986   -0.419868
     36          6           0       -6.482512   -3.494274    0.002856
     37          6           0       -6.143394   -2.169872    0.189079
     38          6           0       -8.480560   -4.971725   -0.893005
     39          6           0       -5.226199   -4.336210    0.074739
     40          8           0       -5.014844   -5.526619    0.045892
     41          6           0       -4.157422   -3.243917    0.578648
     42          6           0       -3.523622   -3.548660    1.944845
     43          8           0       -3.814569   -2.997631    3.005711
     44          8           0       -2.675057   -4.494484    1.884697
     45          6           0       -2.250902   -5.271757    3.059048
     46          6           0        2.705376   -0.690543   -1.279089
     47          6           0        4.114622   -0.477998   -0.610267
     48          6           0        5.157862    0.286322   -1.096351
     49          6           0        4.909997    1.092948   -2.377708
     50          6           0        6.509462    0.446754   -0.473369
     51          6           0        7.597279   -0.189200   -1.287903
     52          6           0        8.882149   -0.095676   -0.388912
     53          6           0       10.239833   -0.535083   -1.053705
     54          6           0       10.164545   -1.988030   -1.391876
     55          6           0       11.494217   -0.096045   -0.275314
     56          6           0       12.839867   -0.466608   -0.889540
     57          6           0       13.927951   -0.075136    0.145469
     58          6           0       15.315787   -0.282061   -0.430649
     59          6           0       15.650381   -1.726635   -0.627376
     60          6           0       16.363781    0.287470    0.581872
     61          6           0       17.733941    0.523285    0.039926
     62          6           0       18.755201    1.190230    0.948890
     63          6           0       20.229161    1.340075    0.388437
     64          6           0       20.277170    2.011549   -1.056079
     65          6           0       21.257484    2.123496    1.476702
     66          1           0       -4.260557    3.892606    1.620226
     67          1           0      -10.215198    3.627853   -0.470539
     68          1           0      -10.088914   -2.856004   -1.048009
     69          1           0       -2.362051   -0.918166    2.054362
     70          1           0       -2.366127    1.784240    1.118618
     71          1           0       -1.974243    1.181114    3.841962
     72          1           0       -3.255561    2.280194    3.450177
     73          1           0       -3.682705    0.731308    3.585333
     74          1           0       -2.063627   -1.573191   -0.164832
     75          1           0       -1.938759    0.326719   -0.582046
     76          1           0       -0.132086    0.711723    0.912123
     77          1           0       -0.279765   -1.165567    1.190614
     78          1           0       -4.836319    6.381369    0.560247
     79          1           0       -6.229878    6.976808    1.595103
     80          1           0       -4.951166    5.690504    1.913978
     81          1           0       -9.774159    5.878729    0.273276
     82          1           0       -9.028455    7.933359   -0.074519
     83          1           0       -7.237075    7.670017   -0.386070
     84          1           0      -12.179931    2.969996   -2.117821
     85          1           0      -13.235873    1.577051   -1.482080
     86          1           0      -12.784109    2.824437   -0.434991
     87          1           0      -12.302502   -1.914026   -1.248355
     88          1           0      -13.364500   -0.290474   -1.103117
     89          1           0      -13.472297   -1.430197   -3.445002
     90          1           0      -12.117457   -0.292343   -3.843657
     91          1           0      -11.728381   -2.081316   -3.265719
     92          1           0       -8.869412   -4.691327   -1.814637
     93          1           0       -7.771829   -5.843346   -0.939653
     94          1           0       -9.397437   -5.087700   -0.233641
     95          1           0       -3.408874   -3.429392   -0.189266
     96          1           0       -1.731135   -4.672322    3.838845
     97          1           0       -3.002956   -5.780194    3.746117
     98          1           0       -1.523231   -6.075749    2.848937
     99          1           0        2.714316   -1.827888   -1.770939
    100          1           0        2.414373    0.015852   -2.149226
    101          1           0        4.195214   -1.006236    0.372276
    102          1           0        3.946437    0.924599   -2.790661
    103          1           0        5.221762    2.060059   -2.109386
    104          1           0        5.494066    0.662856   -3.324238
    105          1           0        6.492920    1.616005   -0.343531
    106          1           0        6.327293    0.116013    0.598157
    107          1           0        7.287706   -1.310062   -1.425964
    108          1           0        7.704774    0.180841   -2.363789
    109          1           0        9.041811    1.004641   -0.259033
    110          1           0        8.840650   -0.671433    0.530594
    111          1           0       10.379563    0.034633   -2.111936
    112          1           0        9.182114   -1.941684   -1.869840
    113          1           0       11.020051   -2.552539   -2.038419
    114          1           0       10.000841   -2.530024   -0.395647
    115          1           0       11.538652    0.912445   -0.176856
    116          1           0       11.373446   -0.339543    0.680045
    117          1           0       12.650536   -1.575536   -1.118659
    118          1           0       12.945726   -0.103376   -1.959028
    119          1           0       13.905267    0.990457    0.145454
    120          1           0       13.869431   -0.746264    0.951039
    121          1           0       15.587048    0.480758   -1.310028
    122          1           0       15.616325   -2.247410    0.266312
    123          1           0       14.888176   -2.153143   -1.447302
    124          1           0       16.578704   -1.959646   -1.144792
    125          1           0       16.190680    1.135388    1.055821
    126          1           0       16.273284   -0.597103    1.357480
    127          1           0       18.221962   -0.396766   -0.259714
    128          1           0       17.417897    1.146237   -0.906894
    129          1           0       18.374565    2.149528    1.520581
    130          1           0       19.075887    0.637002    1.926230
    131          1           0       20.628301    0.261100    0.206693
    132          1           0       20.020876    3.066341   -1.015679
    133          1           0       21.125367    1.924078   -1.587989
    134          1           0       19.647131    1.611949   -1.738235
    135          1           0       21.211736    1.573999    2.545219
    136          1           0       22.239970    2.175901    0.909323
    137          1           0       20.749011    3.226574    1.598276
 ---------------------------------------------------------------------

 SCF Done:  E(RCAM-B3LYP) =  -2932.58815776     A.U. after   17 cycles

 Excitation energies and oscillator strengths:

 Excited State   1:      Singlet-A      2.3488 eV  527.85 nm  f=0.1368  <S**2>=0.000
     240 -> 242       -0.22463
     240 -> 243        0.24647
     241 -> 242        0.57323
     241 -> 243        0.21842
 This state for optimization and/or second-order correction.
 Total Energy, E(TD-HF/TD-KS) =  -2932.50183979
 Copying the excited state density for this state as the 1-particle RhoCI density.

 The electronic state is 1-A.
 Alpha  occ. eigenvalues --  -46.84572 -19.27305 -19.26669 -19.21676 -19.20682
 Alpha  occ. eigenvalues --  -19.19070 -14.42700 -14.39533 -14.38495 -14.38169
 Alpha  occ. eigenvalues --  -10.39714 -10.38684 -10.35170 -10.33634 -10.33387
 Alpha  occ. eigenvalues --  -10.32924 -10.31247 -10.29922 -10.29761 -10.29424
 Alpha  occ. eigenvalues --  -10.28449 -10.28432 -10.28417 -10.28114 -10.28083
 Alpha  occ. eigenvalues --  -10.27915 -10.27870 -10.27857 -10.27756 -10.27735
 Alpha  occ. eigenvalues --  -10.27686 -10.27556 -10.27501 -10.27359 -10.27347
 Alpha  occ. eigenvalues --  -10.27272 -10.27266 -10.27251 -10.27221 -10.27200
 Alpha  occ. eigenvalues --  -10.26801 -10.26792 -10.26645 -10.26551 -10.26495
 Alpha  occ. eigenvalues --  -10.26429 -10.26310 -10.26287 -10.26157 -10.26104
 Alpha  occ. eigenvalues --  -10.26097 -10.25941 -10.25534 -10.25503 -10.25380
 Alpha  occ. eigenvalues --  -10.25204 -10.25186 -10.25156 -10.24705 -10.24389
 Alpha  occ. eigenvalues --  -10.24250 -10.23661 -10.23583 -10.22291 -10.22168
 Alpha  occ. eigenvalues --   -3.13450  -1.88167  -1.87677  -1.87619  -1.19807
 Alpha  occ. eigenvalues --   -1.18421  -1.11240  -1.09337  -1.07326  -1.05044
 Alpha  occ. eigenvalues --   -1.04682  -1.02820  -0.99980  -0.92439  -0.91341
 Alpha  occ. eigenvalues --   -0.91008  -0.90678  -0.89689  -0.89074  -0.88842
 Alpha  occ. eigenvalues --   -0.88036  -0.87308  -0.86922  -0.86732  -0.86399
 Alpha  occ. eigenvalues --   -0.84770  -0.83991  -0.83367  -0.82823  -0.82164
 Alpha  occ. eigenvalues --   -0.81680  -0.81432  -0.80579  -0.79919  -0.78074
 Alpha  occ. eigenvalues --   -0.78047  -0.77150  -0.76300  -0.75938  -0.75911
 Alpha  occ. eigenvalues --   -0.75397  -0.75026  -0.73713  -0.73422  -0.72818
 Alpha  occ. eigenvalues --   -0.72028  -0.70160  -0.69325  -0.68814  -0.68145
 Alpha  occ. eigenvalues --   -0.67324  -0.66718  -0.65511  -0.65479  -0.64984
 Alpha  occ. eigenvalues --   -0.64919  -0.62825  -0.62808  -0.62272  -0.61650
 Alpha  occ. eigenvalues --   -0.60882  -0.60813  -0.59830  -0.59426  -0.59041
 Alpha  occ. eigenvalues --   -0.58454  -0.58131  -0.57708  -0.57268  -0.56853
 Alpha  occ. eigenvalues --   -0.56439  -0.56328  -0.55381  -0.55062  -0.54580
 Alpha  occ. eigenvalues --   -0.54550  -0.54198  -0.53790  -0.53592  -0.53176
 Alpha  occ. eigenvalues --   -0.52960  -0.52687  -0.52335  -0.52198  -0.51923
 Alpha  occ. eigenvalues --   -0.51819  -0.51056  -0.50845  -0.50628  -0.50487
 Alpha  occ. eigenvalues --   -0.50095  -0.49570  -0.49421  -0.49250  -0.48998
 Alpha  occ. eigenvalues --   -0.48873  -0.48680  -0.48642  -0.48462  -0.48146
 Alpha  occ. eigenvalues --   -0.47969  -0.47769  -0.47722  -0.47251  -0.46928
 Alpha  occ. eigenvalues --   -0.46814  -0.46710  -0.46385  -0.46124  -0.45847
 Alpha  occ. eigenvalues --   -0.45708  -0.45461  -0.45273  -0.45031  -0.44808
 Alpha  occ. eigenvalues --   -0.44619  -0.44260  -0.44254  -0.43989  -0.43903
 Alpha  occ. eigenvalues --   -0.43713  -0.43691  -0.43500  -0.43345  -0.43155
 Alpha  occ. eigenvalues --   -0.43072  -0.42816  -0.42618  -0.42369  -0.42142
 Alpha  occ. eigenvalues --   -0.41976  -0.41788  -0.41627  -0.41513  -0.41127
 Alpha  occ. eigenvalues --   -0.40958  -0.40824  -0.40586  -0.40381  -0.40087
 Alpha  occ. eigenvalues --   -0.39660  -0.39638  -0.39438  -0.39147  -0.38990
 Alpha  occ. eigenvalues --   -0.38672  -0.38565  -0.38293  -0.37956  -0.37599
 Alpha  occ. eigenvalues --   -0.37372  -0.36945  -0.36881  -0.36604  -0.36575
 Alpha  occ. eigenvalues --   -0.36305  -0.35897  -0.35567  -0.35458  -0.35426
 Alpha  occ. eigenvalues --   -0.34934  -0.34681  -0.34383  -0.33863  -0.32948
 Alpha  occ. eigenvalues --   -0.32828  -0.32579  -0.32334  -0.31547  -0.29488
 Alpha  occ. eigenvalues --   -0.28855  -0.28770  -0.28062  -0.26146  -0.23544
 Alpha  occ. eigenvalues --   -0.21726
 Alpha virt. eigenvalues --   -0.05282  -0.03380   0.01668   0.03272   0.05391
 Alpha virt. eigenvalues --    0.05505   0.06459   0.06943   0.07321   0.07746
 Alpha virt. eigenvalues --    0.08346   0.10367   0.11202   0.11783   0.11999

 Mulliken charges:
               1
     1  Mg   0.815838
     2  C    0.105753
     3  C   -0.225123
     4  C   -0.135800
     5  C   -0.158382
     6  N   -0.635670
     7  C    0.293212
     8  C   -0.139191
     9  C   -0.119420
    10  C    0.299060
    11  C   -0.314568
    12  C   -0.174804
    13  C   -0.265026
    14  C    0.594324
    15  O   -0.468047
    16  O   -0.457037
    17  N   -0.737281
    18  C    0.370942
    19  C   -0.007126
    20  C    0.049015
    21  C    0.342227
    22  C   -0.345531
    23  C   -0.128728
    24  C   -0.225574
    25  N   -0.710313
    26  C    0.301734
    27  C    0.046087
    28  C    0.076871
    29  C    0.253445
    30  C   -0.402574
    31  C   -0.274072
    32  C   -0.307472
    33  N   -0.674016
    34  C    0.184168
    35  C    0.048161
    36  C   -0.058109
    37  C    0.293901
    38  C   -0.360832
    39  C    0.366365
    40  O   -0.447813
    41  C   -0.346467
    42  C    0.614982
    43  O   -0.502348
    44  O   -0.411624
    45  C   -0.100142
    46  C    0.023232
    47  C   -0.144715
    48  C    0.084713
    49  C   -0.336734
    50  C   -0.211320
    51  C   -0.178996
    52  C   -0.178094
    53  C   -0.076784
    54  C   -0.287891
    55  C   -0.158931
    56  C   -0.199773
    57  C   -0.137461
    58  C   -0.088936
    59  C   -0.304980
    60  C   -0.151814
    61  C   -0.158771
    62  C   -0.171014
    63  C   -0.061827
    64  C   -0.323945
    65  C   -0.303804
    66  H    0.085446
    67  H    0.054122
    68  H    0.077904
    69  H    0.120108
    70  H    0.110818
    71  H    0.106525
    72  H    0.119460
    73  H    0.131402
    74  H    0.110737
    75  H    0.118543
    76  H    0.141927
    77  H    0.148194
    78  H    0.099223
    79  H    0.109643
    80  H    0.114466
    81  H    0.119876
    82  H    0.103937
    83  H    0.115523
    84  H    0.117381
    85  H    0.102293
    86  H    0.114336
    87  H    0.107606
    88  H    0.101412
    89  H    0.115207
    90  H    0.091585
    91  H    0.111189
    92  H    0.133606
    93  H    0.150206
    94  H    0.121100
    95  H    0.155447
    96  H    0.129073
    97  H    0.137190
    98  H    0.135115
    99  H    0.095635
   100  H    0.113369
   101  H    0.087597
   102  H    0.109863
   103  H    0.117617
   104  H    0.091115
   105  H    0.088810
   106  H    0.105690
   107  H    0.102802
   108  H    0.112328
   109  H    0.101199
   110  H    0.104253
   111  H    0.048158
   112  H    0.103481
   113  H    0.091538
   114  H    0.081966
   115  H    0.089654
   116  H    0.087867
   117  H    0.084135
   118  H    0.086922
   119  H    0.108472
   120  H    0.104768
   121  H    0.057070
   122  H    0.111934
   123  H    0.083767
   124  H    0.108766
   125  H    0.090447
   126  H    0.052046
   127  H    0.097267
   128  H    0.079437
   129  H    0.070206
   130  H    0.082180
   131  H    0.075302
   132  H    0.096190
   133  H    0.102732
   134  H    0.110619
   135  H    0.096061
   136  H    0.113526
   137  H    0.089458
 Sum of Mulliken charges =   0.00000

 Dipole moment (field-independent basis, Debye):
    X=              1.2657    Y=              4.4744    Z=              1.4827  Tot=              4.8806
 Quadrupole moment (field-independent basis, Debye-Ang):
   XX=           -359.8302   YY=           -381.9459   ZZ=           -398.9645
   XY=            -25.2679   XZ=              4.2954   YZ=             -5.0065

 Normal termination of Gaussian 09 at Sat Jun 29 21:48:12 2019.
