 Gaussian 09, Revision D.01,
 Gaussian 09:  ES64L-G09RevD.01 24-Apr-2013

 -------------------------------------
 # td=(NStates=1) CAM-B3LYP/6-31G(d,p)
 -------------------------------------

 --
 TD
 --
 Symbolic Z-matrix:
 Charge =  0 Multiplicity = 1

                         Standard orientation:
 ---------------------------------------------------------------------
 Center     Atomic      Atomic             Coordinates (Angstroms)
 Number     Number       Type             X           Y           Z
 ---------------------------------------------------------------------
      1         12           0       -7.109993    0.589920    0.018268
      2          6           0       -4.813705   -1.955683    0.445617
      3          6           0       -4.819683    2.830220    1.228926
      4          6           0       -9.440756    3.103555   -0.368046
      5          6           0       -9.503633   -1.784861   -0.829782
      6          7           0       -5.118502    0.472310    0.652384
      7          6           0       -4.378243   -0.656252    0.759602
      8          6           0       -2.882039   -0.420564    1.200639
      9          6           0       -2.958151    1.082209    1.620208
     10          6           0       -4.442503    1.474749    1.198433
     11          6           0       -2.770720    1.148807    3.194950
     12          6           0       -1.931908   -0.519336    0.063452
     13          6           0       -0.409091   -0.340176    0.528631
     14          6           0        0.573280   -0.662413   -0.709509
     15          8           0        0.208571   -0.990632   -1.739178
     16          8           0        1.799906   -0.280843   -0.256728
     17          7           0       -7.078224    2.665107    0.317560
     18          6           0       -6.086408    3.451354    0.807778
     19          6           0       -6.491876    4.732794    0.974402
     20          6           0       -7.789158    4.789876    0.374528
     21          6           0       -8.106887    3.472929    0.025904
     22          6           0       -5.626738    5.912270    1.316395
     23          6           0       -8.694742    5.937649    0.248775
     24          6           0       -8.145491    7.189904   -0.010347
     25          7           0       -9.126844    0.749354   -0.474550
     26          6           0       -9.903460    1.799771   -0.630814
     27          6           0      -11.206523    1.476601   -1.023326
     28          6           0      -11.279857    0.043352   -1.120618
     29          6           0       -9.863675   -0.379144   -0.781809
     30          6           0      -12.335384    2.369444   -1.358037
     31          6           0      -12.413357   -0.775260   -1.552106
     32          6           0      -12.351955   -1.313133   -3.052876
     33          7           0       -7.160254   -1.438207   -0.288826
     34          6           0       -8.189246   -2.329807   -0.496165
     35          6           0       -7.778741   -3.724171   -0.639155
     36          6           0       -6.486802   -3.633003   -0.222655
     37          6           0       -6.050087   -2.220872   -0.092360
     38          6           0       -8.663951   -4.916696   -0.906174
     39          6           0       -5.233716   -4.392107    0.186475
     40          8           0       -5.035387   -5.621051    0.180448
     41          6           0       -4.141000   -3.308081    0.529072
     42          6           0       -3.601952   -3.564461    1.941428
     43          8           0       -3.883113   -2.978318    2.918369
     44          8           0       -2.658135   -4.561433    1.865069
     45          6           0       -2.079589   -4.952317    3.117481
     46          6           0        2.738007   -0.665228   -1.238222
     47          6           0        4.184387   -0.524436   -0.571099
     48          6           0        5.088226    0.329502   -0.931192
     49          6           0        5.191889    1.215917   -2.121063
     50          6           0        6.378762    0.304552   -0.142654
     51          6           0        7.680167   -0.179827   -0.963422
     52          6           0        8.910253   -0.129107   -0.184607
     53          6           0       10.136295   -0.553380   -0.859739
     54          6           0        9.857045   -1.900597   -1.361220
     55          6           0       11.359671   -0.239400    0.052181
     56          6           0       12.778814   -0.513703   -0.620517
     57          6           0       13.919945   -0.101176    0.301319
     58          6           0       15.339057   -0.070271   -0.431931
     59          6           0       15.710249   -1.523511   -0.964099
     60          6           0       16.319718    0.541614    0.362932
     61          6           0       17.715736    0.519754   -0.199038
     62          6           0       18.795736    1.365171    0.742354
     63          6           0       20.221606    1.207558    0.258162
     64          6           0       20.489001    1.801327   -1.215721
     65          6           0       21.119912    1.842582    1.392904
     66          1           0       -4.104217    3.522732    1.568003
     67          1           0      -10.230579    3.929053   -0.404986
     68          1           0      -10.321362   -2.457328   -1.373349
     69          1           0       -2.631357   -1.022798    2.086053
     70          1           0       -2.172509    1.623008    1.309857
     71          1           0       -1.650268    0.920865    3.391479
     72          1           0       -2.853946    2.117297    3.413824
     73          1           0       -3.486505    0.701471    3.679039
     74          1           0       -1.951068   -1.503905   -0.283040
     75          1           0       -2.019958    0.203182   -0.789854
     76          1           0       -0.099797    0.563516    1.062817
     77          1           0       -0.094702   -0.940977    1.211356
     78          1           0       -4.901356    6.141890    0.454244
     79          1           0       -6.071996    6.936306    1.585303
     80          1           0       -5.129814    5.449271    2.192648
     81          1           0       -9.618743    5.760805    0.361747
     82          1           0       -9.052007    7.870814   -0.072297
     83          1           0       -7.185335    7.540994   -0.190823
     84          1           0      -12.171202    2.891800   -2.180982
     85          1           0      -13.223301    1.628172   -1.631641
     86          1           0      -12.446663    2.970676   -0.416136
     87          1           0      -12.557549   -1.595095   -1.013532
     88          1           0      -13.162035   -0.030453   -1.456485
     89          1           0      -13.090844   -1.863422   -3.428371
     90          1           0      -12.349614   -0.377116   -3.813719
     91          1           0      -11.286550   -1.615753   -3.375866
     92          1           0       -9.013578   -5.104623   -1.895680
     93          1           0       -8.418304   -5.881810   -0.386549
     94          1           0       -9.659125   -4.629769   -0.292956
     95          1           0       -3.493051   -3.553998   -0.336943
     96          1           0       -1.535852   -4.021112    3.589535
     97          1           0       -2.975735   -5.193495    3.881334
     98          1           0       -1.433444   -5.880487    3.040268
     99          1           0        2.469734   -1.828356   -1.544896
    100          1           0        2.471167   -0.120006   -2.078471
    101          1           0        4.048720   -0.977268    0.397746
    102          1           0        4.297920    1.536758   -2.531994
    103          1           0        5.709582    2.203788   -1.615312
    104          1           0        5.693773    0.981565   -3.008522
    105          1           0        6.618668    1.385468    0.112739
    106          1           0        6.500094   -0.363870    0.711389
    107          1           0        7.328963   -1.189864   -1.400534
    108          1           0        7.921416    0.608410   -1.693768
    109          1           0        9.009101    0.861270    0.092699
    110          1           0        8.925642   -0.893413    0.873826
    111          1           0       10.308034    0.206799   -1.828835
    112          1           0        8.855041   -2.104488   -1.807481
    113          1           0       10.611593   -2.479044   -1.808468
    114          1           0        9.653340   -2.494666   -0.376300
    115          1           0       11.231658    0.764813    0.194844
    116          1           0       11.455309   -0.928987    0.930946
    117          1           0       12.982026   -1.609044   -0.819162
    118          1           0       12.683109   -0.016710   -1.586431
    119          1           0       13.673553    0.856934    0.677167
    120          1           0       13.967990   -0.965903    1.106415
    121          1           0       15.181670    0.518123   -1.462600
    122          1           0       15.939094   -2.450457   -0.198211
    123          1           0       14.921059   -1.930939   -1.633196
    124          1           0       16.608223   -1.509777   -1.524830
    125          1           0       16.027307    1.707202    0.568148
    126          1           0       16.212760   -0.132869    1.419517
    127          1           0       18.112389   -0.432575   -0.405082
    128          1           0       17.571857    1.045671   -1.135566
    129          1           0       18.304151    2.433957    0.837688
    130          1           0       18.623252    1.128090    1.773790
    131          1           0       20.296977    0.114625   -0.054556
    132          1           0       20.242361    2.783183   -1.186062
    133          1           0       21.511944    1.582139   -1.509598
    134          1           0       19.639848    1.542140   -1.897810
    135          1           0       21.257489    1.355186    2.419521
    136          1           0       22.169371    1.918312    0.995613
    137          1           0       20.787748    2.866386    1.456843
 ---------------------------------------------------------------------

 SCF Done:  E(RCAM-B3LYP) =  -2932.60846345     A.U. after   16 cycles

 Excitation energies and oscillator strengths:

 Excited State   1:      Singlet-A      1.9681 eV  629.96 nm  f=0.2711  <S**2>=0.000
     240 -> 243       -0.25532
     241 -> 242        0.64985
 This state for optimization and/or second-order correction.
 Total Energy, E(TD-HF/TD-KS) =  -2932.53613579
 Copying the excited state density for this state as the 1-particle RhoCI density.

 The electronic state is 1-A.
 Alpha  occ. eigenvalues --  -46.85002 -19.26438 -19.26031 -19.22897 -19.22217
 Alpha  occ. eigenvalues --  -19.20841 -14.42266 -14.39875 -14.39332 -14.38078
 Alpha  occ. eigenvalues --  -10.39764 -10.39270 -10.36015 -10.33039 -10.31979
 Alpha  occ. eigenvalues --  -10.31398 -10.30680 -10.30207 -10.29707 -10.29212
 Alpha  occ. eigenvalues --  -10.29113 -10.29100 -10.29073 -10.28389 -10.28311
 Alpha  occ. eigenvalues --  -10.28068 -10.27990 -10.27603 -10.27542 -10.27100
 Alpha  occ. eigenvalues --  -10.26895 -10.26832 -10.26756 -10.26702 -10.26567
 Alpha  occ. eigenvalues --  -10.26482 -10.26437 -10.26417 -10.26364 -10.26332
 Alpha  occ. eigenvalues --  -10.26291 -10.26246 -10.26220 -10.26189 -10.26149
 Alpha  occ. eigenvalues --  -10.26111 -10.26076 -10.25964 -10.25852 -10.25656
 Alpha  occ. eigenvalues --  -10.25628 -10.25622 -10.25610 -10.25576 -10.25567
 Alpha  occ. eigenvalues --  -10.25495 -10.25488 -10.25333 -10.25169 -10.25152
 Alpha  occ. eigenvalues --  -10.25025 -10.24736 -10.24149 -10.24078 -10.23576
 Alpha  occ. eigenvalues --   -3.13875  -1.88598  -1.88112  -1.88041  -1.20916
 Alpha  occ. eigenvalues --   -1.18931  -1.13500  -1.10877  -1.09688  -1.05018
 Alpha  occ. eigenvalues --   -1.04082  -1.03580  -1.02886  -0.92611  -0.92497
 Alpha  occ. eigenvalues --   -0.90796  -0.90351  -0.89914  -0.89045  -0.88325
 Alpha  occ. eigenvalues --   -0.87767  -0.87511  -0.87450  -0.86239  -0.85399
 Alpha  occ. eigenvalues --   -0.84982  -0.83872  -0.83158  -0.82472  -0.82089
 Alpha  occ. eigenvalues --   -0.81023  -0.79940  -0.79857  -0.79452  -0.78446
 Alpha  occ. eigenvalues --   -0.77226  -0.76538  -0.76393  -0.76150  -0.75742
 Alpha  occ. eigenvalues --   -0.75528  -0.74972  -0.74589  -0.73381  -0.72751
 Alpha  occ. eigenvalues --   -0.71871  -0.70926  -0.70165  -0.69661  -0.68138
 Alpha  occ. eigenvalues --   -0.67157  -0.66743  -0.65701  -0.64516  -0.64121
 Alpha  occ. eigenvalues --   -0.63715  -0.63215  -0.63211  -0.61761  -0.61576
 Alpha  occ. eigenvalues --   -0.61397  -0.60979  -0.60280  -0.60040  -0.59584
 Alpha  occ. eigenvalues --   -0.59098  -0.58099  -0.57954  -0.57560  -0.57437
 Alpha  occ. eigenvalues --   -0.56992  -0.56459  -0.55825  -0.55215  -0.55004
 Alpha  occ. eigenvalues --   -0.54924  -0.54470  -0.54362  -0.54063  -0.53172
 Alpha  occ. eigenvalues --   -0.52785  -0.52431  -0.52393  -0.52279  -0.51881
 Alpha  occ. eigenvalues --   -0.51784  -0.51586  -0.51012  -0.50890  -0.50741
 Alpha  occ. eigenvalues --   -0.50633  -0.50264  -0.50093  -0.49939  -0.49792
 Alpha  occ. eigenvalues --   -0.49531  -0.49087  -0.48827  -0.48693  -0.48388
 Alpha  occ. eigenvalues --   -0.48203  -0.48026  -0.47816  -0.47370  -0.47322
 Alpha  occ. eigenvalues --   -0.46929  -0.46845  -0.46526  -0.46321  -0.46241
 Alpha  occ. eigenvalues --   -0.46075  -0.45769  -0.45600  -0.45434  -0.45029
 Alpha  occ. eigenvalues --   -0.44884  -0.44747  -0.44618  -0.44263  -0.44235
 Alpha  occ. eigenvalues --   -0.43746  -0.43564  -0.43473  -0.43398  -0.43116
 Alpha  occ. eigenvalues --   -0.42963  -0.42757  -0.42323  -0.42305  -0.42256
 Alpha  occ. eigenvalues --   -0.42003  -0.41945  -0.41800  -0.41660  -0.41560
 Alpha  occ. eigenvalues --   -0.41182  -0.41048  -0.40967  -0.40746  -0.40558
 Alpha  occ. eigenvalues --   -0.40174  -0.39843  -0.39392  -0.39244  -0.38908
 Alpha  occ. eigenvalues --   -0.38462  -0.38359  -0.38064  -0.37966  -0.37688
 Alpha  occ. eigenvalues --   -0.37566  -0.37426  -0.37015  -0.36661  -0.36383
 Alpha  occ. eigenvalues --   -0.35988  -0.35818  -0.35646  -0.35333  -0.35262
 Alpha  occ. eigenvalues --   -0.34886  -0.34832  -0.34664  -0.34512  -0.34041
 Alpha  occ. eigenvalues --   -0.33491  -0.32945  -0.31835  -0.31227  -0.30685
 Alpha  occ. eigenvalues --   -0.29928  -0.29869  -0.27733  -0.26197  -0.22496
 Alpha  occ. eigenvalues --   -0.21172
 Alpha virt. eigenvalues --   -0.06857  -0.03004   0.01142   0.04166   0.05823
 Alpha virt. eigenvalues --    0.06047   0.06178   0.06645   0.07483   0.07597
 Alpha virt. eigenvalues --    0.08383   0.10849   0.11298   0.11702   0.11936

 Mulliken charges:
               1
     1  Mg   0.824060
     2  C    0.089936
     3  C   -0.212282
     4  C   -0.181842
     5  C   -0.188100
     6  N   -0.629628
     7  C    0.290005
     8  C   -0.148746
     9  C   -0.143547
    10  C    0.340837
    11  C   -0.310925
    12  C   -0.159022
    13  C   -0.291023
    14  C    0.591841
    15  O   -0.405980
    16  O   -0.464025
    17  N   -0.703351
    18  C    0.311253
    19  C   -0.003587
    20  C   -0.029644
    21  C    0.323574
    22  C   -0.360767
    23  C   -0.063322
    24  C   -0.228824
    25  N   -0.697976
    26  C    0.342640
    27  C   -0.009190
    28  C   -0.001658
    29  C    0.281061
    30  C   -0.347173
    31  C   -0.221786
    32  C   -0.324910
    33  N   -0.690545
    34  C    0.243559
    35  C    0.045313
    36  C    0.003675
    37  C    0.231553
    38  C   -0.380820
    39  C    0.357154
    40  O   -0.463625
    41  C   -0.323165
    42  C    0.641943
    43  O   -0.438111
    44  O   -0.460544
    45  C   -0.081150
    46  C   -0.011630
    47  C   -0.149135
    48  C    0.158731
    49  C   -0.355589
    50  C   -0.231252
    51  C   -0.183414
    52  C   -0.128207
    53  C   -0.048027
    54  C   -0.308632
    55  C   -0.157771
    56  C   -0.196131
    57  C   -0.161865
    58  C   -0.039835
    59  C   -0.323775
    60  C   -0.131396
    61  C   -0.192342
    62  C   -0.171677
    63  C   -0.059855
    64  C   -0.325380
    65  C   -0.319809
    66  H    0.072512
    67  H    0.090974
    68  H    0.103884
    69  H    0.131227
    70  H    0.105609
    71  H    0.087924
    72  H    0.111568
    73  H    0.129704
    74  H    0.117126
    75  H    0.120731
    76  H    0.120010
    77  H    0.131251
    78  H    0.114955
    79  H    0.113661
    80  H    0.112698
    81  H    0.086749
    82  H    0.083930
    83  H    0.117326
    84  H    0.141073
    85  H    0.093554
    86  H    0.117799
    87  H    0.122145
    88  H    0.102108
    89  H    0.123666
    90  H    0.075990
    91  H    0.110998
    92  H    0.140958
    93  H    0.147663
    94  H    0.104471
    95  H    0.178137
    96  H    0.111444
    97  H    0.114897
    98  H    0.131506
    99  H    0.089232
   100  H    0.122654
   101  H    0.105674
   102  H    0.120572
   103  H    0.086935
   104  H    0.139568
   105  H    0.080010
   106  H    0.105933
   107  H    0.098086
   108  H    0.097507
   109  H    0.092055
   110  H    0.037819
   111  H    0.039126
   112  H    0.110984
   113  H    0.105060
   114  H    0.073570
   115  H    0.100731
   116  H    0.090987
   117  H    0.091045
   118  H    0.088050
   119  H    0.094354
   120  H    0.082288
   121  H    0.063304
   122  H    0.072054
   123  H    0.105695
   124  H    0.111992
   125  H    0.068771
   126  H    0.052809
   127  H    0.105183
   128  H    0.094828
   129  H    0.063774
   130  H    0.103848
   131  H    0.087954
   132  H    0.112024
   133  H    0.110674
   134  H    0.099803
   135  H    0.106367
   136  H    0.089394
   137  H    0.114894
 Sum of Mulliken charges =   0.00000

 Dipole moment (field-independent basis, Debye):
    X=              1.5948    Y=              3.2678    Z=             -0.6357  Tot=              3.6913
 Quadrupole moment (field-independent basis, Debye-Ang):
   XX=           -341.8775   YY=           -396.7861   ZZ=           -397.0202
   XY=             -6.2659   XZ=              9.6719   YZ=             -4.0850

 Normal termination of Gaussian 09 at Fri Jun 28 23:10:58 2019.
