 Gaussian 09, Revision D.01,
 Gaussian 09:  ES64L-G09RevD.01 24-Apr-2013

 -------------------------------------
 # td=(NStates=1) CAM-B3LYP/6-31G(d,p)
 -------------------------------------

 --
 TD
 --
 Symbolic Z-matrix:
 Charge =  0 Multiplicity = 1

                         Standard orientation:
 ---------------------------------------------------------------------
 Center     Atomic      Atomic             Coordinates (Angstroms)
 Number     Number       Type             X           Y           Z
 ---------------------------------------------------------------------
      1         12           0       -7.062322    0.595473    0.040650
      2          6           0       -4.791069   -1.963931    0.492711
      3          6           0       -4.746118    2.777735    1.117594
      4          6           0       -9.396126    3.130249   -0.270038
      5          6           0       -9.498262   -1.793683   -0.946136
      6          7           0       -5.069324    0.385642    0.678777
      7          6           0       -4.285246   -0.753368    0.844435
      8          6           0       -2.822363   -0.423606    1.266680
      9          6           0       -3.015440    1.102593    1.719275
     10          6           0       -4.433588    1.461708    1.115170
     11          6           0       -3.123849    1.227382    3.276989
     12          6           0       -1.877966   -0.626716    0.074439
     13          6           0       -0.481788   -0.425990    0.521571
     14          6           0        0.502804   -0.739355   -0.619931
     15          8           0        0.204784   -1.124538   -1.733970
     16          8           0        1.720473   -0.395722   -0.299957
     17          7           0       -7.108266    2.605427    0.409529
     18          6           0       -6.003974    3.326333    0.847956
     19          6           0       -6.424598    4.775493    0.794676
     20          6           0       -7.698798    4.890481    0.432857
     21          6           0       -8.131348    3.494543    0.197505
     22          6           0       -5.502962    5.818645    1.351524
     23          6           0       -8.549645    6.056753    0.206981
     24          6           0       -8.077388    7.256351    0.096447
     25          7           0       -9.108479    0.650592   -0.610103
     26          6           0       -9.826488    1.818810   -0.576020
     27          6           0      -11.179578    1.449605   -0.986237
     28          6           0      -11.263376    0.088674   -1.201105
     29          6           0       -9.902573   -0.433922   -0.912303
     30          6           0      -12.427328    2.484214   -1.251735
     31          6           0      -12.468100   -0.751877   -1.721343
     32          6           0      -12.313248   -1.009449   -3.325354
     33          7           0       -7.139929   -1.396332   -0.323030
     34          6           0       -8.277142   -2.238961   -0.591156
     35          6           0       -7.791886   -3.647616   -0.590118
     36          6           0       -6.484692   -3.516580   -0.298761
     37          6           0       -6.161962   -2.181944   -0.032531
     38          6           0       -8.705248   -4.800324   -0.791822
     39          6           0       -5.275859   -4.458222    0.105750
     40          8           0       -5.073343   -5.579440    0.036728
     41          6           0       -4.156350   -3.361680    0.591402
     42          6           0       -3.598488   -3.793624    1.932438
     43          8           0       -3.939145   -3.269319    3.022049
     44          8           0       -2.688143   -4.718328    1.821958
     45          6           0       -2.097310   -5.024973    3.074123
     46          6           0        2.884164   -0.680218   -1.233301
     47          6           0        4.215916   -0.409406   -0.495785
     48          6           0        5.183973    0.440083   -0.891883
     49          6           0        4.991914    1.194626   -2.181512
     50          6           0        6.412236    0.505843   -0.085478
     51          6           0        7.519211   -0.029431   -0.947736
     52          6           0        8.896989    0.045149   -0.057703
     53          6           0       10.173875   -0.446280   -0.925589
     54          6           0       10.032261   -1.818564   -1.452354
     55          6           0       11.368566   -0.215913   -0.037922
     56          6           0       12.743785   -0.419631   -0.749535
     57          6           0       13.935541   -0.120602    0.153526
     58          6           0       15.347410   -0.247120   -0.485504
     59          6           0       15.691449   -1.564225   -1.020326
     60          6           0       16.411851    0.271216    0.422672
     61          6           0       17.842366    0.435151   -0.116352
     62          6           0       18.777358    1.066117    0.838296
     63          6           0       20.244071    1.346070    0.243898
     64          6           0       20.165865    2.134480   -1.035519
     65          6           0       21.233461    1.767617    1.289781
     66          1           0       -4.063012    3.396298    1.867706
     67          1           0      -10.180927    3.726527   -0.189713
     68          1           0      -10.402891   -2.408227   -1.028247
     69          1           0       -2.627830   -1.113471    2.013683
     70          1           0       -2.375269    1.913327    1.451824
     71          1           0       -2.139892    1.086583    3.780549
     72          1           0       -3.369578    2.192116    3.688777
     73          1           0       -3.846270    0.446102    3.864347
     74          1           0       -1.944127   -1.584949   -0.183921
     75          1           0       -2.175667   -0.228882   -0.844543
     76          1           0       -0.199035    0.610368    0.936160
     77          1           0       -0.242336   -1.204792    1.164775
     78          1           0       -4.868166    5.989476    0.415482
     79          1           0       -6.065665    6.826760    1.662356
     80          1           0       -5.041448    5.623244    2.175874
     81          1           0       -9.563178    6.134494    0.147918
     82          1           0       -8.622347    8.091273    0.079471
     83          1           0       -7.025023    7.521364    0.292304
     84          1           0      -12.051561    3.431962   -1.735607
     85          1           0      -13.222299    1.948951   -1.589795
     86          1           0      -12.550013    2.904888   -0.188885
     87          1           0      -12.409216   -1.901941   -1.311142
     88          1           0      -13.282092   -0.070395   -1.571066
     89          1           0      -12.950659   -1.922564   -3.476613
     90          1           0      -12.601318   -0.012363   -3.868563
     91          1           0      -11.352313   -1.509164   -3.581152
     92          1           0       -8.894861   -4.861086   -1.703420
     93          1           0       -8.314637   -5.795081   -0.443479
     94          1           0       -9.730017   -4.535804   -0.112186
     95          1           0       -3.328192   -3.498015   -0.059870
     96          1           0       -1.616464   -4.372023    3.642091
     97          1           0       -3.003631   -5.365670    3.775933
     98          1           0       -1.365430   -5.806072    2.851301
     99          1           0        2.789171   -1.810616   -1.359161
    100          1           0        2.813268   -0.057669   -2.208866
    101          1           0        4.261247   -1.004767    0.248239
    102          1           0        3.895685    1.319593   -2.271410
    103          1           0        5.348581    2.347086   -2.026969
    104          1           0        5.434189    0.630204   -3.155484
    105          1           0        6.574189    1.524877    0.332967
    106          1           0        6.152515   -0.064160    0.606809
    107          1           0        7.395219   -1.126989   -1.154154
    108          1           0        7.775255    0.596435   -1.814363
    109          1           0        9.257297    0.841431    0.383213
    110          1           0        8.616599   -0.829340    0.733448
    111          1           0       10.264716    0.181488   -1.820588
    112          1           0        9.235145   -2.080374   -2.280961
    113          1           0       10.863956   -2.335406   -1.934105
    114          1           0        9.849770   -2.500986   -0.596533
    115          1           0       11.352301    0.904852    0.009530
    116          1           0       11.536456   -0.784246    1.004155
    117          1           0       12.821291   -1.387410   -1.342059
    118          1           0       12.631797    0.420297   -1.573217
    119          1           0       13.853142    0.887008    0.456468
    120          1           0       13.927689   -0.562819    1.129407
    121          1           0       15.288119    0.372780   -1.443819
    122          1           0       15.580128   -2.399484   -0.303942
    123          1           0       15.041936   -1.847063   -1.894148
    124          1           0       16.704659   -1.576172   -1.466411
    125          1           0       16.170208    1.236363    0.797533
    126          1           0       16.276767   -0.091299    1.313974
    127          1           0       18.177570   -0.537216   -0.388295
    128          1           0       17.887812    1.172289   -1.101211
    129          1           0       18.243539    2.122029    0.968309
    130          1           0       18.928141    0.655553    1.888987
    131          1           0       20.652386    0.394826    0.029403
    132          1           0       19.981324    3.161557   -0.642738
    133          1           0       21.119173    2.387351   -1.533519
    134          1           0       19.660378    1.740821   -1.722320
    135          1           0       21.187259    1.022804    2.147852
    136          1           0       22.211719    1.740077    1.060493
    137          1           0       20.888156    2.706589    1.587020
 ---------------------------------------------------------------------

 SCF Done:  E(RCAM-B3LYP) =  -2932.60376534     A.U. after   16 cycles

 Excitation energies and oscillator strengths:

 Excited State   1:      Singlet-A      2.0944 eV  591.99 nm  f=0.2550  <S**2>=0.000
     240 -> 243        0.22866
     241 -> 242        0.66428
 This state for optimization and/or second-order correction.
 Total Energy, E(TD-HF/TD-KS) =  -2932.52679885
 Copying the excited state density for this state as the 1-particle RhoCI density.

 The electronic state is 1-A.
 Alpha  occ. eigenvalues --  -46.84295 -19.28105 -19.25509 -19.22631 -19.19877
 Alpha  occ. eigenvalues --  -19.19236 -14.41110 -14.39604 -14.39481 -14.38378
 Alpha  occ. eigenvalues --  -10.39049 -10.37924 -10.36454 -10.33482 -10.31196
 Alpha  occ. eigenvalues --  -10.30540 -10.30388 -10.30339 -10.29085 -10.28974
 Alpha  occ. eigenvalues --  -10.28631 -10.28248 -10.28054 -10.28037 -10.28033
 Alpha  occ. eigenvalues --  -10.27934 -10.27826 -10.27750 -10.27676 -10.27590
 Alpha  occ. eigenvalues --  -10.27365 -10.26943 -10.26939 -10.26879 -10.26726
 Alpha  occ. eigenvalues --  -10.26628 -10.26460 -10.26393 -10.26374 -10.26370
 Alpha  occ. eigenvalues --  -10.26336 -10.26264 -10.26160 -10.26055 -10.25941
 Alpha  occ. eigenvalues --  -10.25932 -10.25714 -10.25670 -10.25663 -10.25572
 Alpha  occ. eigenvalues --  -10.25557 -10.25281 -10.25257 -10.25138 -10.25011
 Alpha  occ. eigenvalues --  -10.25006 -10.24964 -10.24557 -10.24409 -10.24378
 Alpha  occ. eigenvalues --  -10.24065 -10.23932 -10.23134 -10.22976 -10.22785
 Alpha  occ. eigenvalues --   -3.13226  -1.87949  -1.87428  -1.87423  -1.20563
 Alpha  occ. eigenvalues --   -1.17574  -1.16839  -1.07441  -1.07242  -1.04535
 Alpha  occ. eigenvalues --   -1.03394  -1.02437  -1.00712  -0.92800  -0.91343
 Alpha  occ. eigenvalues --   -0.91261  -0.90301  -0.89946  -0.89928  -0.88844
 Alpha  occ. eigenvalues --   -0.88438  -0.87631  -0.87061  -0.85865  -0.85656
 Alpha  occ. eigenvalues --   -0.85191  -0.84535  -0.84023  -0.83770  -0.81933
 Alpha  occ. eigenvalues --   -0.81604  -0.81278  -0.80263  -0.79972  -0.78525
 Alpha  occ. eigenvalues --   -0.77884  -0.77841  -0.77022  -0.76701  -0.76207
 Alpha  occ. eigenvalues --   -0.75878  -0.75345  -0.74601  -0.73403  -0.72195
 Alpha  occ. eigenvalues --   -0.71202  -0.70696  -0.69101  -0.68461  -0.67774
 Alpha  occ. eigenvalues --   -0.67274  -0.66675  -0.65744  -0.65125  -0.65103
 Alpha  occ. eigenvalues --   -0.64292  -0.63227  -0.62820  -0.62661  -0.62327
 Alpha  occ. eigenvalues --   -0.61963  -0.60815  -0.60674  -0.59541  -0.59334
 Alpha  occ. eigenvalues --   -0.58619  -0.58223  -0.57430  -0.57260  -0.56947
 Alpha  occ. eigenvalues --   -0.56562  -0.56051  -0.55397  -0.55053  -0.54963
 Alpha  occ. eigenvalues --   -0.54658  -0.54475  -0.54427  -0.53967  -0.53591
 Alpha  occ. eigenvalues --   -0.53432  -0.52794  -0.52470  -0.52289  -0.52011
 Alpha  occ. eigenvalues --   -0.51725  -0.51663  -0.51201  -0.50917  -0.50763
 Alpha  occ. eigenvalues --   -0.50666  -0.50591  -0.50345  -0.50048  -0.49923
 Alpha  occ. eigenvalues --   -0.49817  -0.49534  -0.49252  -0.49147  -0.48634
 Alpha  occ. eigenvalues --   -0.48312  -0.48099  -0.47872  -0.47598  -0.47499
 Alpha  occ. eigenvalues --   -0.47027  -0.46866  -0.46494  -0.46340  -0.46225
 Alpha  occ. eigenvalues --   -0.46060  -0.45682  -0.45581  -0.45516  -0.45235
 Alpha  occ. eigenvalues --   -0.44971  -0.44887  -0.44509  -0.44367  -0.43843
 Alpha  occ. eigenvalues --   -0.43705  -0.43546  -0.43493  -0.43348  -0.43077
 Alpha  occ. eigenvalues --   -0.42971  -0.42839  -0.42541  -0.42487  -0.42278
 Alpha  occ. eigenvalues --   -0.42189  -0.41813  -0.41671  -0.41334  -0.41286
 Alpha  occ. eigenvalues --   -0.41094  -0.40931  -0.40846  -0.40362  -0.39655
 Alpha  occ. eigenvalues --   -0.39596  -0.39520  -0.39215  -0.39185  -0.39004
 Alpha  occ. eigenvalues --   -0.38919  -0.38729  -0.38425  -0.38311  -0.37929
 Alpha  occ. eigenvalues --   -0.37394  -0.37201  -0.36922  -0.36672  -0.36482
 Alpha  occ. eigenvalues --   -0.36455  -0.36160  -0.36069  -0.35994  -0.35565
 Alpha  occ. eigenvalues --   -0.35415  -0.34784  -0.34713  -0.33394  -0.33007
 Alpha  occ. eigenvalues --   -0.32504  -0.32273  -0.31940  -0.30903  -0.30260
 Alpha  occ. eigenvalues --   -0.29889  -0.29684  -0.27970  -0.26646  -0.23590
 Alpha  occ. eigenvalues --   -0.20341
 Alpha virt. eigenvalues --   -0.05382  -0.02349   0.03201   0.04886   0.05098
 Alpha virt. eigenvalues --    0.06131   0.06361   0.06987   0.08106   0.08265
 Alpha virt. eigenvalues --    0.08707   0.10426   0.11407   0.11491   0.12012

 Mulliken charges:
               1
     1  Mg   0.811138
     2  C    0.065332
     3  C   -0.222481
     4  C   -0.127414
     5  C   -0.144937
     6  N   -0.660887
     7  C    0.259989
     8  C   -0.129769
     9  C   -0.144848
    10  C    0.395133
    11  C   -0.322909
    12  C   -0.161803
    13  C   -0.254453
    14  C    0.576874
    15  O   -0.491163
    16  O   -0.476655
    17  N   -0.705474
    18  C    0.314354
    19  C   -0.045191
    20  C    0.066346
    21  C    0.277569
    22  C   -0.346726
    23  C   -0.041715
    24  C   -0.242267
    25  N   -0.695815
    26  C    0.295474
    27  C   -0.040427
    28  C    0.020020
    29  C    0.247165
    30  C   -0.352357
    31  C   -0.234103
    32  C   -0.301642
    33  N   -0.722594
    34  C    0.236021
    35  C    0.027264
    36  C   -0.084452
    37  C    0.362348
    38  C   -0.345400
    39  C    0.404881
    40  O   -0.375025
    41  C   -0.344460
    42  C    0.612054
    43  O   -0.517438
    44  O   -0.410278
    45  C   -0.091636
    46  C    0.004075
    47  C   -0.102302
    48  C    0.104846
    49  C   -0.357361
    50  C   -0.176975
    51  C   -0.198686
    52  C   -0.163753
    53  C   -0.061547
    54  C   -0.315226
    55  C   -0.174783
    56  C   -0.185202
    57  C   -0.182607
    58  C   -0.045368
    59  C   -0.306065
    60  C   -0.169666
    61  C   -0.169042
    62  C   -0.168299
    63  C   -0.067534
    64  C   -0.300169
    65  C   -0.310624
    66  H    0.079674
    67  H    0.071577
    68  H    0.090640
    69  H    0.122115
    70  H    0.112055
    71  H    0.101674
    72  H    0.110366
    73  H    0.110811
    74  H    0.120580
    75  H    0.131169
    76  H    0.129277
    77  H    0.137277
    78  H    0.123754
    79  H    0.095376
    80  H    0.123571
    81  H    0.091616
    82  H    0.095474
    83  H    0.090467
    84  H    0.120969
    85  H    0.112530
    86  H    0.111259
    87  H    0.088571
    88  H    0.107918
    89  H    0.096554
    90  H    0.108646
    91  H    0.114839
    92  H    0.146250
    93  H    0.133869
    94  H    0.096309
    95  H    0.158554
    96  H    0.143750
    97  H    0.122364
    98  H    0.116508
    99  H    0.124667
   100  H    0.122243
   101  H    0.077893
   102  H    0.121981
   103  H    0.091295
   104  H    0.118014
   105  H    0.103686
   106  H    0.104721
   107  H    0.114836
   108  H    0.107649
   109  H    0.096360
   110  H    0.066680
   111  H    0.087251
   112  H    0.084219
   113  H    0.104195
   114  H    0.095565
   115  H    0.096394
   116  H    0.083286
   117  H    0.092710
   118  H    0.069168
   119  H    0.098861
   120  H    0.087058
   121  H    0.070487
   122  H    0.091300
   123  H    0.090686
   124  H    0.101339
   125  H    0.080736
   126  H    0.095736
   127  H    0.099732
   128  H    0.077266
   129  H    0.064088
   130  H    0.084300
   131  H    0.087034
   132  H    0.093922
   133  H    0.089705
   134  H    0.115629
   135  H    0.087090
   136  H    0.111940
   137  H    0.102564
 Sum of Mulliken charges =   0.00000

 Dipole moment (field-independent basis, Debye):
    X=              4.1057    Y=              2.9814    Z=              1.3843  Tot=              5.2594
 Quadrupole moment (field-independent basis, Debye-Ang):
   XX=           -350.5254   YY=           -385.2256   ZZ=           -399.0428
   XY=            -14.3311   XZ=              4.1055   YZ=              1.5830

 Normal termination of Gaussian 09 at Sun Jun 30 07:54:22 2019.
