 Gaussian 09, Revision D.01,
 Gaussian 09:  ES64L-G09RevD.01 24-Apr-2013

 -------------------------------------
 # td=(NStates=1) CAM-B3LYP/6-31G(d,p)
 -------------------------------------

 --
 TD
 --
 Symbolic Z-matrix:
 Charge =  0 Multiplicity = 1

                         Standard orientation:
 ---------------------------------------------------------------------
 Center     Atomic      Atomic             Coordinates (Angstroms)
 Number     Number       Type             X           Y           Z
 ---------------------------------------------------------------------
      1         12           0       -7.139596    0.609679    0.089558
      2          6           0       -4.903699   -1.892142    0.432037
      3          6           0       -4.863523    2.939310    1.184069
      4          6           0       -9.402334    3.116507   -0.371664
      5          6           0       -9.513704   -1.684972   -0.931934
      6          7           0       -5.180164    0.425057    0.709171
      7          6           0       -4.407988   -0.703013    0.864162
      8          6           0       -2.990583   -0.496930    1.334924
      9          6           0       -3.083769    1.109377    1.693148
     10          6           0       -4.489581    1.526153    1.171981
     11          6           0       -2.800114    1.362228    3.190233
     12          6           0       -1.906917   -0.750473    0.208100
     13          6           0       -0.477427   -0.544813    0.721036
     14          6           0        0.432298   -0.654348   -0.419589
     15          8           0        0.222132   -0.809081   -1.621838
     16          8           0        1.715964   -0.634513    0.052092
     17          7           0       -7.161610    2.570400    0.382887
     18          6           0       -6.140615    3.326475    0.890160
     19          6           0       -6.392086    4.695897    0.840424
     20          6           0       -7.673803    4.851840    0.380273
     21          6           0       -8.203490    3.502753    0.111848
     22          6           0       -5.573420    5.923939    1.311097
     23          6           0       -8.674734    5.917725    0.334956
     24          6           0       -8.296627    7.332767    0.120401
     25          7           0       -9.103558    0.633091   -0.553250
     26          6           0       -9.883676    1.762847   -0.546028
     27          6           0      -11.249640    1.495701   -0.964690
     28          6           0      -11.295657    0.116875   -1.139511
     29          6           0       -9.870780   -0.298770   -0.954116
     30          6           0      -12.307392    2.464147   -1.380928
     31          6           0      -12.331483   -0.760973   -1.836577
     32          6           0      -12.126366   -1.092684   -3.332829
     33          7           0       -7.233285   -1.367679   -0.210668
     34          6           0       -8.206054   -2.203386   -0.641423
     35          6           0       -7.838265   -3.617746   -0.602367
     36          6           0       -6.458064   -3.457367   -0.181174
     37          6           0       -6.121412   -2.140010   -0.026618
     38          6           0       -8.561638   -4.839508   -0.900942
     39          6           0       -5.317906   -4.374799    0.017102
     40          8           0       -5.164517   -5.586670    0.046972
     41          6           0       -4.190765   -3.319633    0.451508
     42          6           0       -3.529376   -3.694692    1.833697
     43          8           0       -3.737330   -3.238976    2.886332
     44          8           0       -2.655429   -4.835352    1.636406
     45          6           0       -2.267259   -5.410392    2.856286
     46          6           0        2.721685   -0.762611   -0.980755
     47          6           0        4.112057   -0.451363   -0.411289
     48          6           0        5.046630    0.429685   -0.832821
     49          6           0        5.005810    1.308338   -2.043256
     50          6           0        6.392811    0.405242   -0.135504
     51          6           0        7.656480   -0.131086   -1.078562
     52          6           0        8.895241   -0.148534   -0.176378
     53          6           0       10.193868   -0.659688   -0.855740
     54          6           0       10.188015   -2.209802   -1.168196
     55          6           0       11.389097   -0.230878    0.025149
     56          6           0       12.765026   -0.496163   -0.721380
     57          6           0       13.997937   -0.193285    0.279065
     58          6           0       15.362151   -0.203491   -0.414196
     59          6           0       15.827169   -1.658825   -0.822299
     60          6           0       16.422185    0.463982    0.536925
     61          6           0       17.855363    0.499145   -0.128103
     62          6           0       18.869297    1.459130    0.676358
     63          6           0       20.220257    1.414416    0.001877
     64          6           0       20.329857    2.148820   -1.337964
     65          6           0       21.204764    2.029196    1.034161
     66          1           0       -4.089629    3.707811    1.419963
     67          1           0      -10.116788    3.922035   -0.576090
     68          1           0      -10.279858   -2.443703   -1.147036
     69          1           0       -2.808188   -1.031209    2.237245
     70          1           0       -2.342522    1.903904    1.101980
     71          1           0       -1.837104    1.154797    3.441813
     72          1           0       -2.796133    2.525045    3.515650
     73          1           0       -3.516810    0.778030    3.797421
     74          1           0       -2.024980   -1.782691   -0.336114
     75          1           0       -1.998880    0.092680   -0.494655
     76          1           0       -0.350656    0.482444    1.176952
     77          1           0       -0.207620   -1.208558    1.436784
     78          1           0       -5.209814    6.624835    0.415967
     79          1           0       -6.392783    6.689640    1.684330
     80          1           0       -4.664355    5.609107    1.933465
     81          1           0       -9.610665    5.439209    0.649006
     82          1           0       -8.935753    8.294702    0.196221
     83          1           0       -7.361967    7.433821   -0.335061
     84          1           0      -11.857587    2.954530   -2.465278
     85          1           0      -13.441312    2.009257   -1.281515
     86          1           0      -12.374189    3.271004   -0.665849
     87          1           0      -12.671066   -1.610465   -1.234887
     88          1           0      -13.357788   -0.165755   -2.083578
     89          1           0      -12.759078   -1.674419   -3.753377
     90          1           0      -12.024602   -0.075826   -3.658884
     91          1           0      -10.967627   -1.434374   -3.364273
     92          1           0       -9.022548   -4.698561   -1.979281
     93          1           0       -7.905583   -5.682978   -0.929672
     94          1           0       -9.340841   -4.943524   -0.221171
     95          1           0       -3.425130   -3.483726   -0.334369
     96          1           0       -1.409739   -4.810583    3.317337
     97          1           0       -2.933173   -5.765342    3.749147
     98          1           0       -1.861718   -6.656475    2.641755
     99          1           0        2.782020   -1.672918   -1.618305
    100          1           0        2.712938   -0.039233   -1.681898
    101          1           0        4.347693   -1.024432    0.549067
    102          1           0        4.187847    1.695716   -2.425387
    103          1           0        5.751998    2.311987   -1.730629
    104          1           0        5.286087    0.749442   -2.882069
    105          1           0        6.638053    1.529411    0.301794
    106          1           0        6.403510   -0.333903    0.694948
    107          1           0        7.454650   -1.207415   -1.464307
    108          1           0        7.729428    0.503111   -1.915710
    109          1           0        8.980915    0.987345    0.199316
    110          1           0        8.523184   -0.627862    0.706656
    111          1           0       10.241622   -0.265602   -2.012712
    112          1           0        9.166939   -2.481930   -1.939045
    113          1           0       11.094694   -2.457571   -1.648978
    114          1           0       10.031655   -2.953480   -0.180305
    115          1           0       11.259356    0.869334    0.327802
    116          1           0       11.475299   -0.764972    0.900148
    117          1           0       12.799637   -1.667022   -0.950334
    118          1           0       12.913293    0.143232   -1.625603
    119          1           0       13.878104    0.896319    0.523698
    120          1           0       13.820834   -0.919050    1.143179
    121          1           0       15.045246    0.432464   -1.177826
    122          1           0       15.950781   -2.135789    0.006853
    123          1           0       15.135484   -2.356466   -1.310510
    124          1           0       16.789828   -1.508939   -1.231274
    125          1           0       16.262328    1.425806    0.892230
    126          1           0       16.406198   -0.180388    1.399997
    127          1           0       18.219345   -0.504583   -0.168290
    128          1           0       17.644948    1.007716   -1.105204
    129          1           0       18.359573    2.324238    0.666706
    130          1           0       19.009224    1.169949    1.732658
    131          1           0       20.248505    0.263969   -0.011903
    132          1           0       20.148876    3.171025   -1.101753
    133          1           0       21.321843    2.204336   -1.855400
    134          1           0       19.501794    1.787644   -2.113811
    135          1           0       21.268875    1.525744    2.077335
    136          1           0       22.127248    2.080198    0.538737
    137          1           0       21.128446    3.171715    1.279943
 ---------------------------------------------------------------------

 SCF Done:  E(RCAM-B3LYP) =  -2932.61158817     A.U. after   18 cycles

 Excitation energies and oscillator strengths:

 Excited State   1:      Singlet-A      2.0800 eV  596.09 nm  f=0.2028  <S**2>=0.000
     240 -> 243        0.27750
     241 -> 242        0.64164
 This state for optimization and/or second-order correction.
 Total Energy, E(TD-HF/TD-KS) =  -2932.53515097
 Copying the excited state density for this state as the 1-particle RhoCI density.

 The electronic state is 1-A.
 Alpha  occ. eigenvalues --  -46.83701 -19.26304 -19.25598 -19.23064 -19.21178
 Alpha  occ. eigenvalues --  -19.20771 -14.42829 -14.39771 -14.39465 -14.39038
 Alpha  occ. eigenvalues --  -10.40180 -10.39308 -10.35376 -10.32878 -10.32603
 Alpha  occ. eigenvalues --  -10.30722 -10.30704 -10.30108 -10.29769 -10.29729
 Alpha  occ. eigenvalues --  -10.29716 -10.29302 -10.29262 -10.29142 -10.28962
 Alpha  occ. eigenvalues --  -10.28910 -10.28906 -10.28686 -10.28580 -10.28414
 Alpha  occ. eigenvalues --  -10.28157 -10.28090 -10.27957 -10.27763 -10.27659
 Alpha  occ. eigenvalues --  -10.27548 -10.27455 -10.27400 -10.27337 -10.27332
 Alpha  occ. eigenvalues --  -10.27259 -10.27015 -10.26847 -10.26734 -10.26730
 Alpha  occ. eigenvalues --  -10.26600 -10.26572 -10.26515 -10.26433 -10.26120
 Alpha  occ. eigenvalues --  -10.25929 -10.25911 -10.25909 -10.25749 -10.25595
 Alpha  occ. eigenvalues --  -10.25325 -10.25304 -10.25271 -10.25135 -10.25095
 Alpha  occ. eigenvalues --  -10.24914 -10.24671 -10.24087 -10.23815 -10.22737
 Alpha  occ. eigenvalues --   -3.13007  -1.87693  -1.87270  -1.87194  -1.18478
 Alpha  occ. eigenvalues --   -1.17666  -1.10749  -1.10249  -1.08261  -1.05758
 Alpha  occ. eigenvalues --   -1.04562  -1.03608  -1.02718  -0.92825  -0.90657
 Alpha  occ. eigenvalues --   -0.89969  -0.89777  -0.89422  -0.88771  -0.88702
 Alpha  occ. eigenvalues --   -0.88493  -0.87793  -0.87598  -0.86856  -0.86196
 Alpha  occ. eigenvalues --   -0.84461  -0.83766  -0.83005  -0.82145  -0.81966
 Alpha  occ. eigenvalues --   -0.81195  -0.80769  -0.79958  -0.79084  -0.78896
 Alpha  occ. eigenvalues --   -0.77347  -0.76555  -0.76343  -0.75792  -0.75390
 Alpha  occ. eigenvalues --   -0.75174  -0.74189  -0.74101  -0.72868  -0.72204
 Alpha  occ. eigenvalues --   -0.71913  -0.70550  -0.69580  -0.68683  -0.68413
 Alpha  occ. eigenvalues --   -0.67106  -0.65997  -0.65553  -0.64987  -0.64384
 Alpha  occ. eigenvalues --   -0.63818  -0.63695  -0.63407  -0.62592  -0.61915
 Alpha  occ. eigenvalues --   -0.61688  -0.60295  -0.60035  -0.59460  -0.58774
 Alpha  occ. eigenvalues --   -0.58545  -0.57948  -0.57852  -0.57170  -0.56671
 Alpha  occ. eigenvalues --   -0.56531  -0.55350  -0.55169  -0.54522  -0.54396
 Alpha  occ. eigenvalues --   -0.54269  -0.53960  -0.53496  -0.53207  -0.53172
 Alpha  occ. eigenvalues --   -0.52550  -0.52505  -0.52214  -0.51886  -0.51399
 Alpha  occ. eigenvalues --   -0.51314  -0.50938  -0.50785  -0.50427  -0.50129
 Alpha  occ. eigenvalues --   -0.50035  -0.49869  -0.49647  -0.49612  -0.49480
 Alpha  occ. eigenvalues --   -0.49206  -0.49048  -0.48847  -0.48751  -0.48407
 Alpha  occ. eigenvalues --   -0.48282  -0.47901  -0.47776  -0.47436  -0.47325
 Alpha  occ. eigenvalues --   -0.47263  -0.46953  -0.46792  -0.46457  -0.46344
 Alpha  occ. eigenvalues --   -0.45981  -0.45776  -0.45391  -0.45185  -0.44985
 Alpha  occ. eigenvalues --   -0.44886  -0.44525  -0.44253  -0.44195  -0.43880
 Alpha  occ. eigenvalues --   -0.43389  -0.43332  -0.43249  -0.43077  -0.43068
 Alpha  occ. eigenvalues --   -0.42761  -0.42602  -0.42504  -0.42149  -0.42051
 Alpha  occ. eigenvalues --   -0.41832  -0.41756  -0.41679  -0.41638  -0.41449
 Alpha  occ. eigenvalues --   -0.41352  -0.41206  -0.40936  -0.40822  -0.40555
 Alpha  occ. eigenvalues --   -0.40467  -0.39897  -0.39727  -0.39500  -0.39301
 Alpha  occ. eigenvalues --   -0.38562  -0.38485  -0.38384  -0.38274  -0.37862
 Alpha  occ. eigenvalues --   -0.37785  -0.37321  -0.36901  -0.36780  -0.36694
 Alpha  occ. eigenvalues --   -0.36421  -0.36118  -0.36064  -0.35543  -0.35396
 Alpha  occ. eigenvalues --   -0.35217  -0.34721  -0.34658  -0.34270  -0.34057
 Alpha  occ. eigenvalues --   -0.33623  -0.32980  -0.32653  -0.30767  -0.29800
 Alpha  occ. eigenvalues --   -0.29057  -0.29022  -0.28696  -0.27539  -0.23415
 Alpha  occ. eigenvalues --   -0.21385
 Alpha virt. eigenvalues --   -0.06371  -0.03958   0.00664   0.02621   0.05298
 Alpha virt. eigenvalues --    0.05638   0.05990   0.06451   0.06556   0.06642
 Alpha virt. eigenvalues --    0.08300   0.09922   0.10216   0.11210   0.11255

 Mulliken charges:
               1
     1  Mg   0.811710
     2  C    0.055813
     3  C   -0.207155
     4  C   -0.202167
     5  C   -0.165644
     6  N   -0.648785
     7  C    0.287334
     8  C   -0.150745
     9  C   -0.169655
    10  C    0.343190
    11  C   -0.301593
    12  C   -0.166039
    13  C   -0.267723
    14  C    0.624252
    15  O   -0.486061
    16  O   -0.488017
    17  N   -0.725065
    18  C    0.362587
    19  C    0.030856
    20  C    0.019547
    21  C    0.286652
    22  C   -0.369129
    23  C   -0.100767
    24  C   -0.269576
    25  N   -0.622749
    26  C    0.259445
    27  C    0.035048
    28  C    0.008771
    29  C    0.280572
    30  C   -0.362068
    31  C   -0.254865
    32  C   -0.280759
    33  N   -0.716004
    34  C    0.245278
    35  C    0.068013
    36  C   -0.067543
    37  C    0.339016
    38  C   -0.382165
    39  C    0.375752
    40  O   -0.456939
    41  C   -0.328090
    42  C    0.617988
    43  O   -0.412807
    44  O   -0.463500
    45  C   -0.064425
    46  C    0.035709
    47  C   -0.175600
    48  C    0.137587
    49  C   -0.353149
    50  C   -0.229087
    51  C   -0.185183
    52  C   -0.158288
    53  C   -0.042751
    54  C   -0.285810
    55  C   -0.162061
    56  C   -0.195210
    57  C   -0.184531
    58  C   -0.055684
    59  C   -0.324542
    60  C   -0.183885
    61  C   -0.210224
    62  C   -0.168585
    63  C   -0.033922
    64  C   -0.317218
    65  C   -0.320487
    66  H    0.094643
    67  H    0.089497
    68  H    0.098253
    69  H    0.139033
    70  H    0.083008
    71  H    0.125892
    72  H    0.083326
    73  H    0.124644
    74  H    0.118592
    75  H    0.127799
    76  H    0.141999
    77  H    0.154006
    78  H    0.109928
    79  H    0.128821
    80  H    0.108914
    81  H    0.116494
    82  H    0.116824
    83  H    0.120621
    84  H    0.107404
    85  H    0.111465
    86  H    0.122634
    87  H    0.103870
    88  H    0.076587
    89  H    0.117332
    90  H    0.119021
    91  H    0.077756
    92  H    0.112930
    93  H    0.157362
    94  H    0.141432
    95  H    0.159416
    96  H    0.104948
    97  H    0.122518
    98  H    0.070785
    99  H    0.129164
   100  H    0.118426
   101  H    0.079126
   102  H    0.126894
   103  H    0.076053
   104  H    0.135927
   105  H    0.073358
   106  H    0.100545
   107  H    0.088725
   108  H    0.107710
   109  H    0.067931
   110  H    0.101086
   111  H    0.071171
   112  H    0.061523
   113  H    0.120826
   114  H    0.072855
   115  H    0.085516
   116  H    0.107601
   117  H    0.077727
   118  H    0.090454
   119  H    0.084559
   120  H    0.074991
   121  H    0.083455
   122  H    0.116416
   123  H    0.099994
   124  H    0.110264
   125  H    0.093307
   126  H    0.091692
   127  H    0.100174
   128  H    0.095619
   129  H    0.094657
   130  H    0.089156
   131  H    0.083295
   132  H    0.113204
   133  H    0.103862
   134  H    0.091203
   135  H    0.095606
   136  H    0.104003
   137  H    0.085297
 Sum of Mulliken charges =   0.00000

 Dipole moment (field-independent basis, Debye):
    X=              0.3927    Y=              5.5260    Z=              0.6125  Tot=              5.5737
 Quadrupole moment (field-independent basis, Debye-Ang):
   XX=           -338.1408   YY=           -393.8356   ZZ=           -398.9037
   XY=            -15.8210   XZ=             10.5069   YZ=             -1.6903

 Normal termination of Gaussian 09 at Thu Jun 27 03:59:44 2019.
