 Gaussian 09, Revision D.01,
 Gaussian 09:  ES64L-G09RevD.01 24-Apr-2013

 -------------------------------------
 # td=(NStates=1) CAM-B3LYP/6-31G(d,p)
 -------------------------------------

 --
 TD
 --
 Symbolic Z-matrix:
 Charge =  0 Multiplicity = 1

                         Standard orientation:
 ---------------------------------------------------------------------
 Center     Atomic      Atomic             Coordinates (Angstroms)
 Number     Number       Type             X           Y           Z
 ---------------------------------------------------------------------
      1         12           0       -7.132597    0.583851   -0.014575
      2          6           0       -4.924803   -1.999530    0.501679
      3          6           0       -4.903340    2.762082    1.290533
      4          6           0       -9.471359    3.127570   -0.363995
      5          6           0       -9.511057   -1.701319   -1.003403
      6          7           0       -5.083923    0.374276    0.758586
      7          6           0       -4.364156   -0.761133    0.887743
      8          6           0       -2.906221   -0.463487    1.240234
      9          6           0       -2.936561    1.030564    1.690323
     10          6           0       -4.449689    1.431243    1.165818
     11          6           0       -2.844938    1.268321    3.195404
     12          6           0       -2.013059   -0.619625    0.035366
     13          6           0       -0.590219   -0.459699    0.501484
     14          6           0        0.418992   -0.586268   -0.593272
     15          8           0        0.082017   -0.955352   -1.684266
     16          8           0        1.737428   -0.450550   -0.175693
     17          7           0       -7.033558    2.673577    0.313624
     18          6           0       -6.154957    3.376116    0.840216
     19          6           0       -6.430040    4.793864    0.822837
     20          6           0       -7.660986    4.846794    0.341608
     21          6           0       -8.143430    3.498211    0.208437
     22          6           0       -5.602602    5.935246    1.410448
     23          6           0       -8.549279    6.039065    0.329743
     24          6           0       -8.191758    7.414052    0.279903
     25          7           0       -9.092009    0.664918   -0.595511
     26          6           0       -9.850717    1.852350   -0.544875
     27          6           0      -11.167569    1.458364   -1.162434
     28          6           0      -11.212241    0.218180   -1.221402
     29          6           0       -9.874732   -0.404455   -1.019013
     30          6           0      -12.256786    2.491873   -1.327918
     31          6           0      -12.348758   -0.620130   -1.785200
     32          6           0      -12.197986   -0.946646   -3.315215
     33          7           0       -7.220919   -1.344782   -0.163373
     34          6           0       -8.257732   -2.198337   -0.559069
     35          6           0       -7.838384   -3.541850   -0.618407
     36          6           0       -6.564464   -3.558285   -0.199014
     37          6           0       -6.207736   -2.164616   -0.001870
     38          6           0       -8.711591   -4.716589   -0.897217
     39          6           0       -5.415957   -4.337509    0.111367
     40          8           0       -5.248930   -5.571881    0.119491
     41          6           0       -4.218047   -3.408813    0.567662
     42          6           0       -3.597627   -3.749831    1.998744
     43          8           0       -3.913730   -3.197843    3.023630
     44          8           0       -2.857663   -4.876300    1.896406
     45          6           0       -2.191139   -5.254201    3.061745
     46          6           0        2.786194   -0.893186   -0.997679
     47          6           0        4.145986   -0.594149   -0.398443
     48          6           0        5.073321    0.195990   -0.849188
     49          6           0        5.067292    1.101008   -2.115577
     50          6           0        6.468156    0.314867   -0.150859
     51          6           0        7.687786   -0.374596   -0.956523
     52          6           0        8.981973   -0.233821   -0.181540
     53          6           0       10.283681   -0.562275   -0.925681
     54          6           0       10.215796   -1.981816   -1.600067
     55          6           0       11.478930   -0.309401   -0.004969
     56          6           0       12.765968   -0.578585   -0.705934
     57          6           0       13.967372    0.118901    0.018809
     58          6           0       15.414959   -0.153992   -0.566480
     59          6           0       15.649043   -1.629828   -0.859949
     60          6           0       16.396527    0.552533    0.391774
     61          6           0       17.855533    0.691364   -0.067284
     62          6           0       18.869290    1.353952    0.770330
     63          6           0       20.337425    1.329164    0.241289
     64          6           0       20.473389    1.996476   -1.086736
     65          6           0       21.222507    1.985527    1.310633
     66          1           0       -4.195052    3.347515    1.673686
     67          1           0      -10.122958    3.955885   -0.492025
     68          1           0      -10.168052   -2.471284   -1.548756
     69          1           0       -2.650509   -1.191306    2.058385
     70          1           0       -2.359490    1.793102    1.062048
     71          1           0       -1.880243    0.927509    3.625892
     72          1           0       -3.026614    2.403400    3.549521
     73          1           0       -3.683204    0.616002    3.697742
     74          1           0       -2.228005   -1.795247   -0.664806
     75          1           0       -2.194614   -0.020306   -1.009736
     76          1           0       -0.732960    0.547111    0.853417
     77          1           0       -0.403714   -1.000951    1.430932
     78          1           0       -4.995436    6.285148    0.505247
     79          1           0       -6.082569    6.722694    1.898266
     80          1           0       -4.872151    5.528163    2.152751
     81          1           0       -9.509023    5.653027    0.236678
     82          1           0       -8.941494    8.003227   -0.124789
     83          1           0       -7.218886    7.832227    0.142036
     84          1           0      -12.020333    3.134624   -2.060462
     85          1           0      -13.315260    1.865070   -1.568335
     86          1           0      -12.458475    3.080941   -0.520275
     87          1           0      -12.492334   -1.504350   -1.030759
     88          1           0      -13.272301   -0.116593   -1.541754
     89          1           0      -12.999225   -1.731407   -3.682021
     90          1           0      -12.305310   -0.051746   -3.747242
     91          1           0      -11.291175   -1.293524   -3.371938
     92          1           0       -9.268728   -4.450681   -1.760107
     93          1           0       -7.903881   -5.600987   -1.011568
     94          1           0       -9.405720   -4.950843   -0.178517
     95          1           0       -3.389512   -3.557397   -0.123136
     96          1           0       -1.510301   -4.483955    3.533836
     97          1           0       -3.033977   -5.410399    3.661979
     98          1           0       -1.656476   -6.142476    2.864108
     99          1           0        2.832495   -1.910291   -1.253357
    100          1           0        2.794506   -0.306628   -1.987289
    101          1           0        4.493303   -1.165573    0.559892
    102          1           0        4.130662    1.265047   -2.416515
    103          1           0        5.543808    2.154622   -1.900022
    104          1           0        5.665743    0.663436   -2.874808
    105          1           0        6.664071    1.423679   -0.089954
    106          1           0        6.418497    0.006520    0.972730
    107          1           0        7.254429   -1.473819   -1.126548
    108          1           0        7.656716    0.055316   -1.959931
    109          1           0        9.096834    0.904542    0.038661
    110          1           0        9.044715   -0.851045    0.747638
    111          1           0       10.415636   -0.012311   -1.757553
    112          1           0        9.241794   -2.005096   -1.992126
    113          1           0       11.141302   -2.104785   -2.443686
    114          1           0       10.219211   -2.799923   -0.696363
    115          1           0       11.448258    0.691035    0.397273
    116          1           0       11.367062   -1.113266    0.753941
    117          1           0       13.158087   -1.671050   -0.870348
    118          1           0       12.689162   -0.056822   -1.606274
    119          1           0       13.863377    1.129715    0.169903
    120          1           0       13.971513   -0.328968    1.078665
    121          1           0       15.448298    0.566516   -1.411341
    122          1           0       15.945064   -2.077232    0.088198
    123          1           0       14.854166   -2.385086   -1.253081
    124          1           0       16.552237   -1.510434   -1.335708
    125          1           0       15.784305    1.314434    0.713476
    126          1           0       16.367829    0.009430    1.404005
    127          1           0       18.229434   -0.277437   -0.494277
    128          1           0       17.671389    1.533611   -0.951024
    129          1           0       18.373438    2.382471    1.058153
    130          1           0       18.778905    0.738128    1.739243
    131          1           0       20.766468    0.396842    0.066961
    132          1           0       20.070626    3.183111   -1.187257
    133          1           0       21.483169    2.137253   -1.549988
    134          1           0       20.105542    1.572602   -2.081423
    135          1           0       21.034410    1.588372    2.461783
    136          1           0       22.305577    1.864484    0.943022
    137          1           0       20.915797    3.101474    1.270595
 ---------------------------------------------------------------------

 SCF Done:  E(RCAM-B3LYP) =  -2932.62861514     A.U. after   17 cycles

 Excitation energies and oscillator strengths:

 Excited State   1:      Singlet-A      1.9321 eV  641.69 nm  f=0.3500  <S**2>=0.000
     240 -> 243       -0.21861
     241 -> 242        0.67204
     240 <- 243       -0.10247
 This state for optimization and/or second-order correction.
 Total Energy, E(TD-HF/TD-KS) =  -2932.55761008
 Copying the excited state density for this state as the 1-particle RhoCI density.

 The electronic state is 1-A.
 Alpha  occ. eigenvalues --  -46.85097 -19.26552 -19.26302 -19.21820 -19.21815
 Alpha  occ. eigenvalues --  -19.19550 -14.42068 -14.39817 -14.39783 -14.39738
 Alpha  occ. eigenvalues --  -10.40009 -10.39998 -10.34765 -10.32087 -10.30961
 Alpha  occ. eigenvalues --  -10.30763 -10.30455 -10.29973 -10.29862 -10.29332
 Alpha  occ. eigenvalues --  -10.29272 -10.29269 -10.29200 -10.29092 -10.28831
 Alpha  occ. eigenvalues --  -10.28799 -10.28792 -10.27987 -10.27958 -10.27519
 Alpha  occ. eigenvalues --  -10.27486 -10.27429 -10.27414 -10.27370 -10.27364
 Alpha  occ. eigenvalues --  -10.27350 -10.27094 -10.26864 -10.26636 -10.26573
 Alpha  occ. eigenvalues --  -10.26474 -10.26458 -10.26365 -10.26361 -10.26327
 Alpha  occ. eigenvalues --  -10.26259 -10.26126 -10.26085 -10.25994 -10.25882
 Alpha  occ. eigenvalues --  -10.25729 -10.25672 -10.25604 -10.25588 -10.25374
 Alpha  occ. eigenvalues --  -10.25178 -10.25021 -10.24795 -10.24744 -10.24587
 Alpha  occ. eigenvalues --  -10.24481 -10.24460 -10.24303 -10.24251 -10.24161
 Alpha  occ. eigenvalues --   -3.14158  -1.88859  -1.88390  -1.88340  -1.19190
 Alpha  occ. eigenvalues --   -1.18007  -1.10560  -1.10556  -1.08921  -1.07287
 Alpha  occ. eigenvalues --   -1.05725  -1.04775  -1.02084  -0.91940  -0.91256
 Alpha  occ. eigenvalues --   -0.90990  -0.90344  -0.89771  -0.89739  -0.89201
 Alpha  occ. eigenvalues --   -0.88970  -0.88531  -0.88311  -0.86799  -0.85728
 Alpha  occ. eigenvalues --   -0.84939  -0.84087  -0.83512  -0.82912  -0.82499
 Alpha  occ. eigenvalues --   -0.81900  -0.81675  -0.80907  -0.79779  -0.78779
 Alpha  occ. eigenvalues --   -0.78190  -0.77746  -0.76564  -0.76475  -0.76104
 Alpha  occ. eigenvalues --   -0.75375  -0.74668  -0.74211  -0.73342  -0.72970
 Alpha  occ. eigenvalues --   -0.71336  -0.70262  -0.69776  -0.69299  -0.68668
 Alpha  occ. eigenvalues --   -0.68393  -0.66306  -0.65630  -0.65163  -0.64238
 Alpha  occ. eigenvalues --   -0.64171  -0.63471  -0.63069  -0.62902  -0.62799
 Alpha  occ. eigenvalues --   -0.62067  -0.60920  -0.60329  -0.59985  -0.59308
 Alpha  occ. eigenvalues --   -0.59094  -0.58134  -0.57839  -0.57251  -0.56738
 Alpha  occ. eigenvalues --   -0.56502  -0.56404  -0.55204  -0.54942  -0.54791
 Alpha  occ. eigenvalues --   -0.54548  -0.54167  -0.54025  -0.53866  -0.53524
 Alpha  occ. eigenvalues --   -0.52915  -0.52793  -0.52495  -0.52401  -0.51950
 Alpha  occ. eigenvalues --   -0.51502  -0.51226  -0.51199  -0.50934  -0.50642
 Alpha  occ. eigenvalues --   -0.50460  -0.50400  -0.50081  -0.49910  -0.49818
 Alpha  occ. eigenvalues --   -0.49384  -0.49195  -0.48938  -0.48678  -0.48604
 Alpha  occ. eigenvalues --   -0.48444  -0.48121  -0.48042  -0.47518  -0.47458
 Alpha  occ. eigenvalues --   -0.47323  -0.47183  -0.46967  -0.46492  -0.46436
 Alpha  occ. eigenvalues --   -0.46380  -0.46090  -0.46061  -0.45529  -0.45376
 Alpha  occ. eigenvalues --   -0.45214  -0.44840  -0.44719  -0.44422  -0.44181
 Alpha  occ. eigenvalues --   -0.43846  -0.43680  -0.43332  -0.43316  -0.43077
 Alpha  occ. eigenvalues --   -0.42893  -0.42792  -0.42584  -0.42539  -0.42327
 Alpha  occ. eigenvalues --   -0.42209  -0.42154  -0.42018  -0.41765  -0.41722
 Alpha  occ. eigenvalues --   -0.41354  -0.41326  -0.40977  -0.40943  -0.40322
 Alpha  occ. eigenvalues --   -0.40138  -0.39792  -0.39374  -0.39023  -0.38797
 Alpha  occ. eigenvalues --   -0.38594  -0.38040  -0.37959  -0.37851  -0.37845
 Alpha  occ. eigenvalues --   -0.37277  -0.37236  -0.37047  -0.36812  -0.36399
 Alpha  occ. eigenvalues --   -0.36177  -0.36067  -0.35838  -0.35615  -0.35216
 Alpha  occ. eigenvalues --   -0.34691  -0.34556  -0.34375  -0.33992  -0.33958
 Alpha  occ. eigenvalues --   -0.33685  -0.33111  -0.32347  -0.31386  -0.31049
 Alpha  occ. eigenvalues --   -0.30635  -0.29708  -0.29551  -0.27543  -0.23163
 Alpha  occ. eigenvalues --   -0.20986
 Alpha virt. eigenvalues --   -0.07281  -0.01819   0.01104   0.03050   0.04930
 Alpha virt. eigenvalues --    0.05270   0.05526   0.06839   0.07295   0.07398
 Alpha virt. eigenvalues --    0.08608   0.10178   0.10780   0.11667   0.11745

 Mulliken charges:
               1
     1  Mg   0.839553
     2  C    0.041454
     3  C   -0.177891
     4  C   -0.166474
     5  C   -0.188508
     6  N   -0.598425
     7  C    0.278692
     8  C   -0.160821
     9  C   -0.145288
    10  C    0.302546
    11  C   -0.297886
    12  C   -0.152842
    13  C   -0.260373
    14  C    0.614393
    15  O   -0.439943
    16  O   -0.486384
    17  N   -0.635384
    18  C    0.332234
    19  C    0.019524
    20  C   -0.006328
    21  C    0.209214
    22  C   -0.362900
    23  C   -0.065903
    24  C   -0.263743
    25  N   -0.715666
    26  C    0.288939
    27  C    0.054853
    28  C   -0.013057
    29  C    0.320192
    30  C   -0.362380
    31  C   -0.255162
    32  C   -0.287776
    33  N   -0.740444
    34  C    0.260651
    35  C   -0.006445
    36  C    0.082066
    37  C    0.286257
    38  C   -0.355525
    39  C    0.332520
    40  O   -0.484149
    41  C   -0.280440
    42  C    0.605925
    43  O   -0.460969
    44  O   -0.430732
    45  C   -0.084886
    46  C    0.028090
    47  C   -0.152771
    48  C    0.117355
    49  C   -0.355773
    50  C   -0.227646
    51  C   -0.180895
    52  C   -0.155657
    53  C   -0.082250
    54  C   -0.295479
    55  C   -0.154318
    56  C   -0.172219
    57  C   -0.203897
    58  C   -0.065977
    59  C   -0.316209
    60  C   -0.175425
    61  C   -0.160162
    62  C   -0.154303
    63  C   -0.045818
    64  C   -0.310463
    65  C   -0.285577
    66  H    0.052187
    67  H    0.095371
    68  H    0.098411
    69  H    0.129855
    70  H    0.116126
    71  H    0.110532
    72  H    0.098726
    73  H    0.119087
    74  H    0.053596
    75  H    0.122342
    76  H    0.142987
    77  H    0.139874
    78  H    0.119271
    79  H    0.138027
    80  H    0.109785
    81  H    0.080350
    82  H    0.105847
    83  H    0.111319
    84  H    0.130952
    85  H    0.081600
    86  H    0.131850
    87  H    0.084642
    88  H    0.094687
    89  H    0.092018
    90  H    0.124922
    91  H    0.120927
    92  H    0.117275
    93  H    0.132748
    94  H    0.144093
    95  H    0.154074
    96  H    0.110804
    97  H    0.139185
    98  H    0.130124
    99  H    0.130485
   100  H    0.100028
   101  H    0.078730
   102  H    0.122840
   103  H    0.099411
   104  H    0.129596
   105  H    0.091170
   106  H    0.085496
   107  H    0.087736
   108  H    0.103101
   109  H    0.084277
   110  H    0.097517
   111  H    0.092078
   112  H    0.116727
   113  H    0.083223
   114  H    0.069391
   115  H    0.094887
   116  H    0.086653
   117  H    0.086417
   118  H    0.094697
   119  H    0.090796
   120  H    0.068746
   121  H    0.083118
   122  H    0.105431
   123  H    0.104109
   124  H    0.114689
   125  H    0.099730
   126  H    0.062016
   127  H    0.091921
   128  H    0.062312
   129  H    0.086372
   130  H    0.076996
   131  H    0.108105
   132  H    0.065266
   133  H    0.097168
   134  H    0.105947
   135  H    0.086672
   136  H    0.092369
   137  H    0.097288
 Sum of Mulliken charges =   0.00000

 Dipole moment (field-independent basis, Debye):
    X=              2.1818    Y=              4.3036    Z=             -0.1682  Tot=              4.8280
 Quadrupole moment (field-independent basis, Debye-Ang):
   XX=           -348.9254   YY=           -402.9146   ZZ=           -398.4228
   XY=            -22.7903   XZ=              7.5686   YZ=             -6.2839

 Normal termination of Gaussian 09 at Thu Jun 27 13:35:45 2019.
