 Gaussian 09, Revision D.01,
 Gaussian 09:  ES64L-G09RevD.01 24-Apr-2013

 -------------------------------------
 # td=(NStates=1) CAM-B3LYP/6-31G(d,p)
 -------------------------------------

 --
 TD
 --
 Symbolic Z-matrix:
 Charge =  0 Multiplicity = 1

                         Standard orientation:
 ---------------------------------------------------------------------
 Center     Atomic      Atomic             Coordinates (Angstroms)
 Number     Number       Type             X           Y           Z
 ---------------------------------------------------------------------
      1         12           0       -7.195890    0.565714    0.072757
      2          6           0       -4.829718   -1.946525    0.562251
      3          6           0       -4.867333    2.849334    1.152545
      4          6           0       -9.495179    3.078804   -0.397688
      5          6           0       -9.408760   -1.841067   -1.089215
      6          7           0       -5.060595    0.457576    0.751686
      7          6           0       -4.225139   -0.671474    0.814317
      8          6           0       -2.953595   -0.393752    1.293990
      9          6           0       -3.088406    1.137315    1.752409
     10          6           0       -4.402850    1.501671    1.146051
     11          6           0       -3.072024    1.295350    3.249204
     12          6           0       -1.893922   -0.574672    0.104867
     13          6           0       -0.447900   -0.449478    0.499948
     14          6           0        0.556191   -0.562666   -0.591732
     15          8           0        0.299702   -0.991779   -1.731533
     16          8           0        1.755911   -0.388570   -0.091584
     17          7           0       -7.231349    2.547743    0.424958
     18          6           0       -6.062291    3.348000    0.878357
     19          6           0       -6.518578    4.731849    0.814191
     20          6           0       -7.842545    4.758491    0.507244
     21          6           0       -8.239345    3.493909    0.175752
     22          6           0       -5.708233    5.810332    1.445151
     23          6           0       -8.859073    5.909003    0.347265
     24          6           0       -8.448813    7.182942    0.157390
     25          7           0       -9.161937    0.538063   -0.641492
     26          6           0       -9.927525    1.736786   -0.867171
     27          6           0      -11.250154    1.360857   -1.286660
     28          6           0      -11.215116   -0.035819   -1.329090
     29          6           0       -9.895696   -0.446176   -0.945973
     30          6           0      -12.325246    2.339391   -1.359741
     31          6           0      -12.375209   -0.923826   -1.849638
     32          6           0      -12.079607   -1.194243   -3.301650
     33          7           0       -7.219920   -1.444161   -0.160745
     34          6           0       -8.203162   -2.323946   -0.489126
     35          6           0       -7.667303   -3.660182   -0.511026
     36          6           0       -6.356525   -3.526825   -0.070242
     37          6           0       -6.176235   -2.157888    0.169128
     38          6           0       -8.475014   -4.918255   -0.805757
     39          6           0       -5.244449   -4.353209    0.226189
     40          8           0       -5.062135   -5.589050    0.157124
     41          6           0       -4.086607   -3.297490    0.582100
     42          6           0       -3.422551   -3.570707    1.911368
     43          8           0       -3.606499   -3.044977    2.989351
     44          8           0       -2.732678   -4.792611    1.869456
     45          6           0       -2.105724   -5.080482    3.192505
     46          6           0        2.812645   -0.420051   -1.120508
     47          6           0        4.195353   -0.153771   -0.467717
     48          6           0        5.064471    0.573493   -0.931483
     49          6           0        5.070251    1.472276   -2.168079
     50          6           0        6.408348    0.605559   -0.264262
     51          6           0        7.601918   -0.083766   -1.042344
     52          6           0        8.934405   -0.040101   -0.188123
     53          6           0       10.181593   -0.524559   -1.064450
     54          6           0        9.970601   -2.020907   -1.478858
     55          6           0       11.423025   -0.259256   -0.103527
     56          6           0       12.806077   -0.471219   -0.760411
     57          6           0       13.920079   -0.245418    0.225050
     58          6           0       15.324864   -0.279545   -0.459426
     59          6           0       15.696217   -1.724317   -0.844788
     60          6           0       16.329006    0.232142    0.508006
     61          6           0       17.760396    0.461673   -0.154617
     62          6           0       18.815678    1.237577    0.683840
     63          6           0       20.292284    1.343610    0.258011
     64          6           0       20.439567    2.159555   -1.126946
     65          6           0       21.115221    1.970425    1.343032
     66          1           0       -4.099787    3.480672    1.511019
     67          1           0      -10.152315    3.911618   -0.666814
     68          1           0      -10.203940   -2.523162   -1.414186
     69          1           0       -2.707288   -0.941667    2.355892
     70          1           0       -2.384230    1.808780    1.243266
     71          1           0       -2.085391    1.117463    3.480680
     72          1           0       -3.254648    2.373176    3.732848
     73          1           0       -3.671673    0.600218    3.853695
     74          1           0       -2.081525   -1.598570   -0.342655
     75          1           0       -2.072857    0.174266   -0.753160
     76          1           0       -0.383949    0.476045    0.992182
     77          1           0       -0.234391   -1.390357    1.089219
     78          1           0       -5.076053    6.612120    0.712632
     79          1           0       -6.289693    6.630852    1.987628
     80          1           0       -4.980476    5.387086    2.186646
     81          1           0       -9.913291    5.456457    0.761803
     82          1           0       -9.102347    8.011954    0.077164
     83          1           0       -7.446333    7.460305   -0.207558
     84          1           0      -12.245538    3.387452   -2.038526
     85          1           0      -13.248683    1.814581   -1.650770
     86          1           0      -12.439819    2.815411   -0.378940
     87          1           0      -12.393469   -1.667839   -1.141701
     88          1           0      -13.368488   -0.337292   -1.788061
     89          1           0      -12.970745   -1.528749   -3.710268
     90          1           0      -11.763592   -0.146381   -4.041421
     91          1           0      -11.314620   -2.158065   -3.428182
     92          1           0       -8.908578   -4.585092   -1.880072
     93          1           0       -7.804419   -5.599981   -1.030136
     94          1           0       -9.395539   -5.126551   -0.129783
     95          1           0       -3.300041   -3.263587   -0.276092
     96          1           0       -1.581022   -4.022722    3.351836
     97          1           0       -2.811135   -5.379957    4.092711
     98          1           0       -1.369213   -5.920449    2.939111
     99          1           0        2.976741   -1.458078   -1.671798
    100          1           0        2.625926    0.427783   -1.848728
    101          1           0        4.422207   -0.666065    0.540163
    102          1           0        3.952006    1.543300   -2.713266
    103          1           0        5.368123    2.415254   -1.975334
    104          1           0        5.605875    0.799572   -2.979016
    105          1           0        6.673081    1.696059   -0.078070
    106          1           0        6.423455   -0.021878    0.709791
    107          1           0        7.258340   -1.198187   -1.183234
    108          1           0        7.578483    0.327754   -2.119175
    109          1           0        8.760811    1.076521    0.082556
    110          1           0        8.920384   -0.832909    0.685620
    111          1           0       10.230106    0.028082   -1.923287
    112          1           0        9.393174   -2.181520   -2.475221
    113          1           0       10.980115   -2.556753   -1.669638
    114          1           0        9.451762   -2.621564   -0.672082
    115          1           0       11.428607    0.849792    0.112565
    116          1           0       11.178765   -0.711180    0.647601
    117          1           0       12.918447   -1.505872   -1.346924
    118          1           0       12.876216   -0.118182   -1.697242
    119          1           0       13.984759    0.925855    0.700188
    120          1           0       13.940343   -1.024409    1.106538
    121          1           0       15.083551    0.241963   -1.358100
    122          1           0       16.148830   -2.199842    0.075480
    123          1           0       14.659079   -2.327846   -1.496918
    124          1           0       16.525843   -1.765415   -1.584784
    125          1           0       16.091179    1.089979    0.844233
    126          1           0       16.503801   -0.572297    1.274144
    127          1           0       18.230637   -0.521570   -0.424967
    128          1           0       17.615819    0.991947   -1.207638
    129          1           0       18.519941    2.459091    0.762634
    130          1           0       18.859336    0.896239    1.793872
    131          1           0       20.670195    0.491984    0.116768
    132          1           0       20.092827    3.111952   -1.055867
    133          1           0       21.436254    2.118562   -1.474570
    134          1           0       19.834600    1.380722   -1.629882
    135          1           0       21.261537    1.218932    2.338384
    136          1           0       22.316997    2.201124    1.076884
    137          1           0       20.799640    3.003317    1.612418
 ---------------------------------------------------------------------

 SCF Done:  E(RCAM-B3LYP) =  -2932.52117678     A.U. after   18 cycles

 Excitation energies and oscillator strengths:

 Excited State   1:      Singlet-A      1.9288 eV  642.79 nm  f=0.2230  <S**2>=0.000
     240 -> 243        0.23907
     241 -> 242        0.64833
 This state for optimization and/or second-order correction.
 Total Energy, E(TD-HF/TD-KS) =  -2932.45029292
 Copying the excited state density for this state as the 1-particle RhoCI density.

 The electronic state is 1-A.
 Alpha  occ. eigenvalues --  -46.84703 -19.27792 -19.25117 -19.21584 -19.20456
 Alpha  occ. eigenvalues --  -19.20404 -14.42042 -14.39769 -14.38529 -14.38471
 Alpha  occ. eigenvalues --  -10.39421 -10.39200 -10.35473 -10.33802 -10.32754
 Alpha  occ. eigenvalues --  -10.30557 -10.30543 -10.29696 -10.29674 -10.29349
 Alpha  occ. eigenvalues --  -10.29236 -10.29205 -10.28955 -10.28769 -10.28746
 Alpha  occ. eigenvalues --  -10.28486 -10.28303 -10.28277 -10.28214 -10.28122
 Alpha  occ. eigenvalues --  -10.27978 -10.27790 -10.27714 -10.27665 -10.27652
 Alpha  occ. eigenvalues --  -10.27556 -10.27361 -10.27341 -10.27332 -10.27104
 Alpha  occ. eigenvalues --  -10.27083 -10.27009 -10.26958 -10.26952 -10.26817
 Alpha  occ. eigenvalues --  -10.26807 -10.26664 -10.26658 -10.26544 -10.26526
 Alpha  occ. eigenvalues --  -10.26417 -10.26391 -10.26348 -10.26007 -10.25702
 Alpha  occ. eigenvalues --  -10.25621 -10.25483 -10.25393 -10.25326 -10.25249
 Alpha  occ. eigenvalues --  -10.24967 -10.24790 -10.24558 -10.24039 -10.23510
 Alpha  occ. eigenvalues --   -3.13588  -1.88303  -1.87827  -1.87752  -1.19284
 Alpha  occ. eigenvalues --   -1.16514  -1.09053  -1.07953  -1.07611  -1.06182
 Alpha  occ. eigenvalues --   -1.05392  -1.03474  -1.00637  -0.92891  -0.92332
 Alpha  occ. eigenvalues --   -0.91042  -0.90438  -0.89191  -0.88960  -0.88444
 Alpha  occ. eigenvalues --   -0.88299  -0.87623  -0.87268  -0.87132  -0.86455
 Alpha  occ. eigenvalues --   -0.84959  -0.84447  -0.83273  -0.82804  -0.81866
 Alpha  occ. eigenvalues --   -0.80964  -0.80561  -0.79613  -0.79410  -0.78549
 Alpha  occ. eigenvalues --   -0.77608  -0.76546  -0.76244  -0.75488  -0.75150
 Alpha  occ. eigenvalues --   -0.74861  -0.74596  -0.74283  -0.73347  -0.72245
 Alpha  occ. eigenvalues --   -0.71938  -0.70455  -0.69372  -0.68918  -0.68443
 Alpha  occ. eigenvalues --   -0.66570  -0.66247  -0.65996  -0.65454  -0.64828
 Alpha  occ. eigenvalues --   -0.63744  -0.63367  -0.63345  -0.62906  -0.62648
 Alpha  occ. eigenvalues --   -0.60848  -0.60233  -0.59855  -0.59097  -0.58827
 Alpha  occ. eigenvalues --   -0.58505  -0.58266  -0.57527  -0.57111  -0.56959
 Alpha  occ. eigenvalues --   -0.55878  -0.55297  -0.55111  -0.55045  -0.54726
 Alpha  occ. eigenvalues --   -0.54272  -0.54242  -0.53965  -0.53436  -0.53048
 Alpha  occ. eigenvalues --   -0.52714  -0.52243  -0.52120  -0.51956  -0.51662
 Alpha  occ. eigenvalues --   -0.51112  -0.51037  -0.50915  -0.50542  -0.50387
 Alpha  occ. eigenvalues --   -0.50248  -0.49722  -0.49659  -0.49450  -0.49191
 Alpha  occ. eigenvalues --   -0.49082  -0.48964  -0.48691  -0.48167  -0.47945
 Alpha  occ. eigenvalues --   -0.47679  -0.47549  -0.47428  -0.47326  -0.46991
 Alpha  occ. eigenvalues --   -0.46786  -0.46626  -0.46296  -0.46167  -0.45764
 Alpha  occ. eigenvalues --   -0.45701  -0.45250  -0.45148  -0.45051  -0.44851
 Alpha  occ. eigenvalues --   -0.44696  -0.44273  -0.44059  -0.43957  -0.43776
 Alpha  occ. eigenvalues --   -0.43714  -0.43533  -0.43266  -0.43207  -0.43061
 Alpha  occ. eigenvalues --   -0.42954  -0.42817  -0.42609  -0.42462  -0.42077
 Alpha  occ. eigenvalues --   -0.41962  -0.41816  -0.41725  -0.41502  -0.41086
 Alpha  occ. eigenvalues --   -0.40963  -0.40779  -0.40507  -0.40342  -0.40150
 Alpha  occ. eigenvalues --   -0.39786  -0.39699  -0.39473  -0.39195  -0.38842
 Alpha  occ. eigenvalues --   -0.38825  -0.38489  -0.38223  -0.38172  -0.37762
 Alpha  occ. eigenvalues --   -0.37689  -0.37453  -0.37300  -0.37003  -0.36690
 Alpha  occ. eigenvalues --   -0.36551  -0.36449  -0.35993  -0.35734  -0.35272
 Alpha  occ. eigenvalues --   -0.34783  -0.34197  -0.33922  -0.33914  -0.33493
 Alpha  occ. eigenvalues --   -0.33320  -0.32977  -0.32304  -0.31322  -0.30301
 Alpha  occ. eigenvalues --   -0.30211  -0.29871  -0.27939  -0.27102  -0.23229
 Alpha  occ. eigenvalues --   -0.20339
 Alpha virt. eigenvalues --   -0.06387  -0.03776   0.00444   0.03741   0.04714
 Alpha virt. eigenvalues --    0.05715   0.06148   0.06384   0.06720   0.07950
 Alpha virt. eigenvalues --    0.08828   0.09877   0.10472   0.10797   0.11219

 Mulliken charges:
               1
     1  Mg   0.823014
     2  C    0.022785
     3  C   -0.197290
     4  C   -0.192657
     5  C   -0.152563
     6  N   -0.611073
     7  C    0.327171
     8  C   -0.207453
     9  C   -0.153520
    10  C    0.352204
    11  C   -0.315489
    12  C   -0.186368
    13  C   -0.249941
    14  C    0.604514
    15  O   -0.498414
    16  O   -0.454092
    17  N   -0.733486
    18  C    0.317831
    19  C    0.009355
    20  C    0.034973
    21  C    0.321030
    22  C   -0.380560
    23  C   -0.061453
    24  C   -0.260712
    25  N   -0.660868
    26  C    0.216904
    27  C    0.079422
    28  C   -0.052413
    29  C    0.325372
    30  C   -0.381082
    31  C   -0.223845
    32  C   -0.272883
    33  N   -0.713405
    34  C    0.243788
    35  C   -0.014130
    36  C    0.019994
    37  C    0.365005
    38  C   -0.336859
    39  C    0.365206
    40  O   -0.473619
    41  C   -0.330663
    42  C    0.626671
    43  O   -0.466823
    44  O   -0.476785
    45  C   -0.064552
    46  C    0.012520
    47  C   -0.176966
    48  C    0.182842
    49  C   -0.348103
    50  C   -0.233551
    51  C   -0.186254
    52  C   -0.166764
    53  C   -0.075827
    54  C   -0.318618
    55  C   -0.128244
    56  C   -0.182419
    57  C   -0.140255
    58  C   -0.058241
    59  C   -0.287503
    60  C   -0.153037
    61  C   -0.196599
    62  C   -0.151028
    63  C   -0.052889
    64  C   -0.310456
    65  C   -0.288368
    66  H    0.074215
    67  H    0.089190
    68  H    0.089740
    69  H    0.138116
    70  H    0.106575
    71  H    0.123993
    72  H    0.095984
    73  H    0.136320
    74  H    0.111886
    75  H    0.115187
    76  H    0.129899
    77  H    0.142864
    78  H    0.080776
    79  H    0.123769
    80  H    0.114014
    81  H    0.106451
    82  H    0.108048
    83  H    0.115674
    84  H    0.092367
    85  H    0.106314
    86  H    0.130724
    87  H    0.120855
    88  H    0.095897
    89  H    0.115982
    90  H    0.087815
    91  H    0.083410
    92  H    0.096902
    93  H    0.151712
    94  H    0.134148
    95  H    0.166393
    96  H    0.112407
    97  H    0.129152
    98  H    0.122051
    99  H    0.134406
   100  H    0.121899
   101  H    0.089845
   102  H    0.077414
   103  H    0.134591
   104  H    0.124749
   105  H    0.083118
   106  H    0.089932
   107  H    0.080961
   108  H    0.085857
   109  H    0.093390
   110  H    0.088205
   111  H    0.094122
   112  H    0.100682
   113  H    0.097086
   114  H    0.098610
   115  H    0.090753
   116  H    0.091623
   117  H    0.058884
   118  H    0.104774
   119  H    0.054219
   120  H    0.082891
   121  H    0.091943
   122  H    0.096648
   123  H    0.050558
   124  H    0.106231
   125  H    0.102138
   126  H    0.095146
   127  H    0.088616
   128  H    0.083679
   129  H    0.048735
   130  H    0.082745
   131  H    0.100062
   132  H    0.111173
   133  H    0.105518
   134  H    0.103696
   135  H    0.066004
   136  H    0.064448
   137  H    0.103337
 Sum of Mulliken charges =   0.00000

 Dipole moment (field-independent basis, Debye):
    X=              2.4458    Y=              4.6978    Z=              0.5904  Tot=              5.3291
 Quadrupole moment (field-independent basis, Debye-Ang):
   XX=           -351.8042   YY=           -400.9240   ZZ=           -399.1191
   XY=            -18.9561   XZ=             -1.0226   YZ=             -2.5129

 Normal termination of Gaussian 09 at Fri Jun 28 23:19:08 2019.
