 Gaussian 09, Revision D.01,
 Gaussian 09:  ES64L-G09RevD.01 24-Apr-2013

 -------------------------------------
 # td=(NStates=1) CAM-B3LYP/6-31G(d,p)
 -------------------------------------

 --
 TD
 --
 Symbolic Z-matrix:
 Charge =  0 Multiplicity = 1

                         Standard orientation:
 ---------------------------------------------------------------------
 Center     Atomic      Atomic             Coordinates (Angstroms)
 Number     Number       Type             X           Y           Z
 ---------------------------------------------------------------------
      1         12           0       -7.186301    0.571356    0.060681
      2          6           0       -4.938335   -1.944858    0.491257
      3          6           0       -4.852347    2.822020    1.334021
      4          6           0       -9.558184    2.995972   -0.360691
      5          6           0       -9.542044   -1.847437   -0.951844
      6          7           0       -5.145957    0.395149    0.778571
      7          6           0       -4.323733   -0.710039    0.876870
      8          6           0       -2.946192   -0.454431    1.285165
      9          6           0       -3.128558    1.077401    1.908307
     10          6           0       -4.447089    1.505040    1.218374
     11          6           0       -3.062358    1.187081    3.370337
     12          6           0       -1.994760   -0.497280    0.118815
     13          6           0       -0.592874   -0.425940    0.695997
     14          6           0        0.472701   -0.592297   -0.479542
     15          8           0        0.167801   -1.004426   -1.553599
     16          8           0        1.696193   -0.340027    0.033844
     17          7           0       -7.170025    2.577102    0.289923
     18          6           0       -6.086493    3.233756    0.816068
     19          6           0       -6.511782    4.728856    0.913675
     20          6           0       -7.890202    4.733568    0.527230
     21          6           0       -8.270497    3.442301    0.127126
     22          6           0       -5.664108    5.756976    1.463589
     23          6           0       -8.714753    5.955056    0.357350
     24          6           0       -8.235400    7.182580    0.122190
     25          7           0       -9.172969    0.642341   -0.548833
     26          6           0       -9.861388    1.698710   -0.752623
     27          6           0      -11.240852    1.429311   -1.243775
     28          6           0      -11.225698    0.071689   -1.497875
     29          6           0       -9.916127   -0.446913   -1.020469
     30          6           0      -12.298504    2.490568   -1.413925
     31          6           0      -12.355062   -0.806273   -2.053765
     32          6           0      -12.214181   -1.061690   -3.556781
     33          7           0       -7.255326   -1.410046   -0.210285
     34          6           0       -8.196226   -2.290831   -0.670243
     35          6           0       -7.760048   -3.617042   -0.530893
     36          6           0       -6.481535   -3.576486   -0.177419
     37          6           0       -6.149725   -2.233888    0.078594
     38          6           0       -8.722547   -4.853146   -0.899916
     39          6           0       -5.318420   -4.439589    0.172694
     40          8           0       -5.153264   -5.612322    0.003450
     41          6           0       -4.176473   -3.328828    0.548103
     42          6           0       -3.510664   -3.748719    1.794084
     43          8           0       -3.646291   -3.139827    2.943203
     44          8           0       -2.757160   -4.848129    1.683616
     45          6           0       -2.127465   -5.254041    2.803231
     46          6           0        2.727019   -0.293596   -0.992670
     47          6           0        4.094985   -0.144837   -0.321488
     48          6           0        5.079502    0.589100   -0.696699
     49          6           0        5.163735    1.565249   -1.957572
     50          6           0        6.464719    0.677850    0.053549
     51          6           0        7.594643    0.069248   -0.831400
     52          6           0        8.898477    0.045738   -0.005683
     53          6           0       10.206694   -0.324406   -0.906689
     54          6           0       10.083653   -1.930865   -1.150794
     55          6           0       11.419525   -0.056716   -0.029938
     56          6           0       12.776067   -0.452082   -0.678509
     57          6           0       14.042818   -0.094066    0.117951
     58          6           0       15.362664   -0.370216   -0.480300
     59          6           0       15.785480   -1.827239   -0.933690
     60          6           0       16.527799    0.263350    0.511550
     61          6           0       17.925458    0.411162   -0.233610
     62          6           0       19.021096    1.165200    0.556716
     63          6           0       20.388404    1.219213   -0.048199
     64          6           0       20.521508    1.910161   -1.333154
     65          6           0       21.362219    1.803721    0.886631
     66          1           0       -4.186780    3.387915    2.000236
     67          1           0      -10.325860    3.704349   -0.815386
     68          1           0      -10.115330   -2.405936   -1.480601
     69          1           0       -2.672602   -1.296093    2.134056
     70          1           0       -2.492281    1.440002    1.430985
     71          1           0       -2.246187    0.871059    3.916743
     72          1           0       -3.317547    1.992302    3.670019
     73          1           0       -3.753470    0.447310    3.808989
     74          1           0       -2.091783   -1.384445   -0.579058
     75          1           0       -2.334679    0.400983   -0.509190
     76          1           0       -0.308794    0.516325    1.062665
     77          1           0       -0.210848   -1.208171    1.534130
     78          1           0       -5.100643    6.392665    0.752558
     79          1           0       -6.335881    6.520075    2.073440
     80          1           0       -5.082597    5.359051    2.130239
     81          1           0       -9.870116    5.643761    0.442080
     82          1           0       -8.771672    8.075265   -0.105856
     83          1           0       -7.164518    7.413838    0.039112
     84          1           0      -12.195922    3.565030   -2.116489
     85          1           0      -13.282839    1.975572   -1.727031
     86          1           0      -12.447057    2.917501   -0.439476
     87          1           0      -12.278050   -1.767221   -1.282816
     88          1           0      -13.238115   -0.327559   -1.781511
     89          1           0      -12.857105   -1.715975   -3.933546
     90          1           0      -12.163811   -0.028109   -4.113785
     91          1           0      -11.228954   -1.455719   -3.889886
     92          1           0       -8.988772   -4.772971   -1.896115
     93          1           0       -7.996386   -5.630875   -1.079188
     94          1           0       -9.524959   -5.061004   -0.197745
     95          1           0       -3.370608   -3.228688   -0.185816
     96          1           0       -1.388067   -4.478668    3.061177
     97          1           0       -2.917912   -5.313736    3.803950
     98          1           0       -1.523771   -6.198440    2.667562
     99          1           0        2.589613   -1.411855   -1.517113
    100          1           0        2.745906    0.453185   -1.721066
    101          1           0        4.139875   -0.840058    0.510823
    102          1           0        4.155893    1.495001   -2.434535
    103          1           0        5.448103    2.533133   -1.587394
    104          1           0        5.929290    1.073299   -2.703825
    105          1           0        6.636290    1.798370    0.325867
    106          1           0        6.244777    0.293575    0.984344
    107          1           0        7.251166   -0.980786   -1.147452
    108          1           0        7.980991    0.646428   -1.660007
    109          1           0        9.068667    1.177383    0.389521
    110          1           0        8.920901   -0.669337    0.819208
    111          1           0       10.177771    0.224078   -1.773126
    112          1           0        9.230362   -2.144801   -1.652310
    113          1           0       10.981927   -2.187593   -1.683515
    114          1           0        9.985229   -2.420354   -0.146727
    115          1           0       11.481099    0.984447    0.505913
    116          1           0       11.364138   -0.784241    0.828072
    117          1           0       12.547078   -1.432100   -1.019324
    118          1           0       12.878480    0.144486   -1.512342
    119          1           0       13.918689    0.821998    0.465718
    120          1           0       14.132703   -0.610774    1.209100
    121          1           0       15.429561    0.236673   -1.395914
    122          1           0       16.152007   -2.299364    0.038146
    123          1           0       15.044807   -2.287496   -1.473554
    124          1           0       16.846355   -1.651531   -1.414164
    125          1           0       16.211152    1.416076    0.722626
    126          1           0       16.654109   -0.468180    1.335167
    127          1           0       18.349496   -0.560149   -0.445230
    128          1           0       17.899993    0.997224   -1.205865
    129          1           0       18.499610    2.147816    0.639447
    130          1           0       18.946224    0.604725    1.650046
    131          1           0       20.975981    0.151336   -0.253095
    132          1           0       19.945204    2.933660   -1.211842
    133          1           0       21.516833    1.913244   -1.497307
    134          1           0       19.861380    1.290672   -2.243396
    135          1           0       21.390874    1.203566    1.776803
    136          1           0       22.364343    1.671585    0.336694
    137          1           0       21.247113    3.014265    1.353315
 ---------------------------------------------------------------------

 SCF Done:  E(RCAM-B3LYP) =  -2932.53994647     A.U. after   19 cycles

 Excitation energies and oscillator strengths:

 Excited State   1:      Singlet-A      1.8958 eV  654.01 nm  f=0.2707  <S**2>=0.000
     240 -> 243        0.24497
     241 -> 242        0.66205
 This state for optimization and/or second-order correction.
 Total Energy, E(TD-HF/TD-KS) =  -2932.47027861
 Copying the excited state density for this state as the 1-particle RhoCI density.

 The electronic state is 1-A.
 Alpha  occ. eigenvalues --  -46.84021 -19.27983 -19.27382 -19.21977 -19.21904
 Alpha  occ. eigenvalues --  -19.20321 -14.42329 -14.39798 -14.38993 -14.38796
 Alpha  occ. eigenvalues --  -10.40121 -10.39454 -10.36472 -10.32943 -10.32441
 Alpha  occ. eigenvalues --  -10.30937 -10.30446 -10.30438 -10.29758 -10.29507
 Alpha  occ. eigenvalues --  -10.29065 -10.28582 -10.28286 -10.28265 -10.28017
 Alpha  occ. eigenvalues --  -10.27992 -10.27976 -10.27871 -10.27815 -10.27457
 Alpha  occ. eigenvalues --  -10.27442 -10.27393 -10.27333 -10.27317 -10.27133
 Alpha  occ. eigenvalues --  -10.26935 -10.26906 -10.26890 -10.26839 -10.26743
 Alpha  occ. eigenvalues --  -10.26712 -10.26539 -10.26532 -10.26460 -10.26354
 Alpha  occ. eigenvalues --  -10.26264 -10.26192 -10.26174 -10.26148 -10.26117
 Alpha  occ. eigenvalues --  -10.26028 -10.25800 -10.25662 -10.25573 -10.25573
 Alpha  occ. eigenvalues --  -10.25443 -10.25346 -10.25296 -10.25248 -10.25222
 Alpha  occ. eigenvalues --  -10.25122 -10.24703 -10.24659 -10.24088 -10.22815
 Alpha  occ. eigenvalues --   -3.13072  -1.87780  -1.87315  -1.87245  -1.20419
 Alpha  occ. eigenvalues --   -1.18924  -1.13145  -1.11150  -1.05701  -1.04318
 Alpha  occ. eigenvalues --   -1.03692  -1.02910  -1.01306  -0.92661  -0.91087
 Alpha  occ. eigenvalues --   -0.90876  -0.90406  -0.89865  -0.88949  -0.88261
 Alpha  occ. eigenvalues --   -0.88106  -0.87907  -0.87242  -0.86557  -0.85930
 Alpha  occ. eigenvalues --   -0.85197  -0.84567  -0.83674  -0.83223  -0.82516
 Alpha  occ. eigenvalues --   -0.81710  -0.81383  -0.80451  -0.79730  -0.78642
 Alpha  occ. eigenvalues --   -0.78025  -0.76722  -0.76245  -0.75876  -0.75672
 Alpha  occ. eigenvalues --   -0.75553  -0.75252  -0.74295  -0.73657  -0.72387
 Alpha  occ. eigenvalues --   -0.72304  -0.70685  -0.70454  -0.69486  -0.68259
 Alpha  occ. eigenvalues --   -0.66521  -0.66077  -0.65830  -0.64829  -0.64553
 Alpha  occ. eigenvalues --   -0.64224  -0.64135  -0.63808  -0.62540  -0.62167
 Alpha  occ. eigenvalues --   -0.60578  -0.60234  -0.59951  -0.59453  -0.59013
 Alpha  occ. eigenvalues --   -0.58665  -0.57829  -0.57228  -0.56867  -0.56549
 Alpha  occ. eigenvalues --   -0.55959  -0.55632  -0.55048  -0.54978  -0.54929
 Alpha  occ. eigenvalues --   -0.54855  -0.54296  -0.54228  -0.53977  -0.53680
 Alpha  occ. eigenvalues --   -0.53337  -0.53171  -0.52477  -0.51969  -0.51559
 Alpha  occ. eigenvalues --   -0.51395  -0.51267  -0.51207  -0.50914  -0.50729
 Alpha  occ. eigenvalues --   -0.50468  -0.50370  -0.50165  -0.50080  -0.49729
 Alpha  occ. eigenvalues --   -0.49633  -0.49378  -0.49244  -0.48969  -0.48843
 Alpha  occ. eigenvalues --   -0.48537  -0.48223  -0.48154  -0.47940  -0.47528
 Alpha  occ. eigenvalues --   -0.46988  -0.46652  -0.46597  -0.46442  -0.46395
 Alpha  occ. eigenvalues --   -0.45866  -0.45546  -0.45293  -0.45065  -0.44969
 Alpha  occ. eigenvalues --   -0.44733  -0.44587  -0.44493  -0.44397  -0.44214
 Alpha  occ. eigenvalues --   -0.43946  -0.43906  -0.43864  -0.43681  -0.43378
 Alpha  occ. eigenvalues --   -0.43212  -0.43153  -0.43054  -0.42744  -0.42545
 Alpha  occ. eigenvalues --   -0.42268  -0.42186  -0.41794  -0.41631  -0.41159
 Alpha  occ. eigenvalues --   -0.41047  -0.40619  -0.40562  -0.40499  -0.40272
 Alpha  occ. eigenvalues --   -0.40050  -0.39568  -0.39523  -0.39293  -0.38920
 Alpha  occ. eigenvalues --   -0.38777  -0.38600  -0.38218  -0.38179  -0.37446
 Alpha  occ. eigenvalues --   -0.37272  -0.36993  -0.36970  -0.36645  -0.36484
 Alpha  occ. eigenvalues --   -0.36367  -0.35958  -0.35712  -0.35530  -0.34985
 Alpha  occ. eigenvalues --   -0.34725  -0.34641  -0.34489  -0.34044  -0.33242
 Alpha  occ. eigenvalues --   -0.33078  -0.32860  -0.32000  -0.31401  -0.30853
 Alpha  occ. eigenvalues --   -0.30434  -0.30057  -0.28399  -0.26632  -0.23064
 Alpha  occ. eigenvalues --   -0.20358
 Alpha virt. eigenvalues --   -0.06453  -0.03026   0.00986   0.04038   0.04828
 Alpha virt. eigenvalues --    0.06321   0.06440   0.06683   0.07017   0.07409
 Alpha virt. eigenvalues --    0.07786   0.10543   0.11293   0.11456   0.11796

 Mulliken charges:
               1
     1  Mg   0.813588
     2  C    0.045094
     3  C   -0.177314
     4  C   -0.178497
     5  C   -0.131458
     6  N   -0.610429
     7  C    0.335004
     8  C   -0.218050
     9  C   -0.067690
    10  C    0.270833
    11  C   -0.294943
    12  C   -0.174447
    13  C   -0.259977
    14  C    0.598155
    15  O   -0.448509
    16  O   -0.475297
    17  N   -0.725899
    18  C    0.320966
    19  C   -0.005832
    20  C   -0.005621
    21  C    0.303229
    22  C   -0.377679
    23  C   -0.056147
    24  C   -0.262870
    25  N   -0.661825
    26  C    0.324176
    27  C    0.044351
    28  C   -0.019391
    29  C    0.240842
    30  C   -0.380670
    31  C   -0.220638
    32  C   -0.307491
    33  N   -0.714409
    34  C    0.254106
    35  C   -0.045392
    36  C    0.040247
    37  C    0.273415
    38  C   -0.367369
    39  C    0.387474
    40  O   -0.417899
    41  C   -0.332764
    42  C    0.604259
    43  O   -0.522708
    44  O   -0.386662
    45  C   -0.079270
    46  C    0.018896
    47  C   -0.132579
    48  C    0.075907
    49  C   -0.343941
    50  C   -0.209915
    51  C   -0.169430
    52  C   -0.171560
    53  C   -0.086179
    54  C   -0.318292
    55  C   -0.170541
    56  C   -0.187650
    57  C   -0.144866
    58  C   -0.062589
    59  C   -0.308111
    60  C   -0.185048
    61  C   -0.190813
    62  C   -0.159393
    63  C   -0.046722
    64  C   -0.253572
    65  C   -0.269635
    66  H    0.105928
    67  H    0.100735
    68  H    0.080140
    69  H    0.128503
    70  H    0.078389
    71  H    0.118473
    72  H    0.106483
    73  H    0.122831
    74  H    0.131059
    75  H    0.111155
    76  H    0.141057
    77  H    0.126086
    78  H    0.122279
    79  H    0.109047
    80  H    0.120381
    81  H    0.082676
    82  H    0.106730
    83  H    0.102006
    84  H    0.094774
    85  H    0.106605
    86  H    0.140654
    87  H    0.082453
    88  H    0.113684
    89  H    0.119847
    90  H    0.101490
    91  H    0.110422
    92  H    0.131739
    93  H    0.136985
    94  H    0.135973
    95  H    0.163778
    96  H    0.112217
    97  H    0.107636
    98  H    0.120298
    99  H    0.108133
   100  H    0.116671
   101  H    0.089955
   102  H    0.099254
   103  H    0.128485
   104  H    0.118457
   105  H    0.086453
   106  H    0.110741
   107  H    0.099160
   108  H    0.109314
   109  H    0.066810
   110  H    0.094569
   111  H    0.089454
   112  H    0.111898
   113  H    0.109146
   114  H    0.102315
   115  H    0.071253
   116  H    0.087764
   117  H    0.093175
   118  H    0.097884
   119  H    0.104498
   120  H    0.044624
   121  H    0.079205
   122  H    0.092405
   123  H    0.116302
   124  H    0.100914
   125  H    0.075397
   126  H    0.101319
   127  H    0.093756
   128  H    0.085493
   129  H    0.091978
   130  H    0.061240
   131  H    0.065404
   132  H    0.088878
   133  H    0.108732
   134  H    0.062255
   135  H    0.110564
   136  H    0.082575
   137  H    0.058497
 Sum of Mulliken charges =   0.00000

 Dipole moment (field-independent basis, Debye):
    X=              2.9758    Y=              3.5566    Z=             -0.4319  Tot=              4.6574
 Quadrupole moment (field-independent basis, Debye-Ang):
   XX=           -359.3176   YY=           -397.6227   ZZ=           -399.2563
   XY=            -14.6482   XZ=             10.3212   YZ=              0.7538

 Normal termination of Gaussian 09 at Thu Jun 27 16:55:29 2019.
