 Gaussian 09, Revision D.01,
 Gaussian 09:  ES64L-G09RevD.01 24-Apr-2013

 -------------------------------------
 # td=(NStates=1) CAM-B3LYP/6-31G(d,p)
 -------------------------------------

 --
 TD
 --
 Symbolic Z-matrix:
 Charge =  0 Multiplicity = 1

                         Standard orientation:
 ---------------------------------------------------------------------
 Center     Atomic      Atomic             Coordinates (Angstroms)
 Number     Number       Type             X           Y           Z
 ---------------------------------------------------------------------
      1         12           0       -7.121251    0.559922    0.234404
      2          6           0       -4.849784   -1.931171    0.562279
      3          6           0       -4.778971    2.852286    1.236086
      4          6           0       -9.390700    3.077372   -0.222520
      5          6           0       -9.500205   -1.770372   -0.913194
      6          7           0       -5.091824    0.415450    0.704063
      7          6           0       -4.303997   -0.646048    0.756154
      8          6           0       -2.822874   -0.338709    1.222601
      9          6           0       -2.959647    1.138954    1.579901
     10          6           0       -4.310073    1.528142    1.187214
     11          6           0       -2.768866    1.282554    3.182370
     12          6           0       -1.885885   -0.750861    0.098181
     13          6           0       -0.397868   -0.487125    0.492992
     14          6           0        0.560339   -0.679514   -0.588137
     15          8           0        0.204102   -1.063854   -1.801929
     16          8           0        1.832918   -0.357094   -0.337893
     17          7           0       -7.143474    2.605875    0.455430
     18          6           0       -6.029340    3.306767    0.826202
     19          6           0       -6.421901    4.706178    0.833236
     20          6           0       -7.701295    4.839125    0.442179
     21          6           0       -8.140453    3.443770    0.174330
     22          6           0       -5.521252    5.837689    1.271874
     23          6           0       -8.523049    6.005717    0.309913
     24          6           0       -8.007129    7.182919    0.105705
     25          7           0       -9.102249    0.655629   -0.383639
     26          6           0       -9.877930    1.827478   -0.537345
     27          6           0      -11.201802    1.548967   -0.993952
     28          6           0      -11.195154    0.191155   -1.333314
     29          6           0       -9.958714   -0.426160   -0.776203
     30          6           0      -12.279826    2.572263   -1.342918
     31          6           0      -12.398554   -0.646151   -1.758625
     32          6           0      -12.349308   -1.038827   -3.246282
     33          7           0       -7.277231   -1.389814    0.055676
     34          6           0       -8.236956   -2.247362   -0.451234
     35          6           0       -7.806300   -3.692670   -0.480719
     36          6           0       -6.572366   -3.563050   -0.062139
     37          6           0       -6.169943   -2.210334    0.259512
     38          6           0       -8.541973   -4.818414   -1.018026
     39          6           0       -5.387876   -4.348495    0.242929
     40          8           0       -5.295744   -5.531973    0.057453
     41          6           0       -4.180699   -3.362889    0.582251
     42          6           0       -3.624338   -3.779539    1.875986
     43          8           0       -3.680991   -3.131915    2.943592
     44          8           0       -2.666517   -4.814743    1.780008
     45          6           0       -2.262346   -5.371804    3.016059
     46          6           0        2.809135   -0.578820   -1.347127
     47          6           0        4.125779   -0.319944   -0.735620
     48          6           0        5.147791    0.467590   -1.148704
     49          6           0        4.991367    1.383348   -2.297216
     50          6           0        6.467407    0.551484   -0.336923
     51          6           0        7.656952   -0.021941   -1.112286
     52          6           0        8.927733   -0.052371   -0.229903
     53          6           0       10.117776   -0.599740   -0.912807
     54          6           0       10.060681   -2.084723   -1.436942
     55          6           0       11.343972   -0.453173   -0.077742
     56          6           0       12.741022   -0.628145   -0.775415
     57          6           0       13.921143   -0.114316    0.084047
     58          6           0       15.329886   -0.238390   -0.598761
     59          6           0       15.664416   -1.645900   -1.046864
     60          6           0       16.339099    0.264497    0.534667
     61          6           0       17.683417    0.695060   -0.090689
     62          6           0       18.701816    1.258633    0.894649
     63          6           0       20.218518    1.353410    0.420966
     64          6           0       20.344526    2.121130   -0.923352
     65          6           0       21.047865    1.826820    1.549849
     66          1           0       -4.046208    3.519925    1.491559
     67          1           0      -10.263896    3.776313   -0.304645
     68          1           0      -10.372889   -2.438482   -1.283473
     69          1           0       -2.639870   -0.881128    2.194170
     70          1           0       -2.185415    1.837020    1.242370
     71          1           0       -1.805673    1.148593    3.235064
     72          1           0       -2.854811    2.160472    3.605897
     73          1           0       -3.357374    0.529476    3.872279
     74          1           0       -2.050971   -1.661060   -0.282670
     75          1           0       -2.066046    0.013345   -0.803457
     76          1           0       -0.256501    0.545347    0.882043
     77          1           0       -0.114821   -1.315215    1.446065
     78          1           0       -5.001894    6.166443    0.457041
     79          1           0       -6.283847    6.759896    1.553252
     80          1           0       -4.877428    5.475099    2.030066
     81          1           0       -9.593367    5.786037    0.634815
     82          1           0       -8.615218    8.119108    0.087878
     83          1           0       -6.982143    7.180287   -0.090850
     84          1           0      -12.071107    3.069757   -2.193515
     85          1           0      -13.286656    1.991600   -1.500352
     86          1           0      -12.339355    3.198003   -0.418409
     87          1           0      -12.675860   -1.612077   -1.406042
     88          1           0      -13.398758   -0.120426   -1.619655
     89          1           0      -13.157479   -1.604324   -3.662867
     90          1           0      -12.336900   -0.053950   -3.950906
     91          1           0      -11.440401   -1.569327   -3.461500
     92          1           0       -8.717798   -4.809372   -2.003406
     93          1           0       -8.005176   -5.794941   -0.909864
     94          1           0       -9.545562   -4.909291   -0.476383
     95          1           0       -3.418608   -3.491738   -0.065274
     96          1           0       -1.520578   -4.734912    3.514689
     97          1           0       -3.235535   -5.390693    3.703417
     98          1           0       -2.055560   -6.422584    2.576774
     99          1           0        2.643322   -1.611295   -1.787629
    100          1           0        2.373970   -0.063909   -2.161638
    101          1           0        3.973076   -0.912181    0.082596
    102          1           0        4.097977    1.713860   -2.884800
    103          1           0        5.293174    2.520737   -1.926615
    104          1           0        5.825034    1.213630   -3.025610
    105          1           0        6.743997    1.391459   -0.143313
    106          1           0        6.410284   -0.325246    0.632912
    107          1           0        7.429546   -0.990007   -1.522745
    108          1           0        7.691580    0.661278   -1.986140
    109          1           0        9.123897    1.071041    0.117967
    110          1           0        8.682870   -0.643415    0.555995
    111          1           0       10.384220    0.061310   -1.785968
    112          1           0        9.164710   -2.243276   -2.009615
    113          1           0       10.940585   -2.420919   -2.023133
    114          1           0       10.061856   -2.542221   -0.535857
    115          1           0       11.513207    0.719310    0.125480
    116          1           0       11.312494   -1.060155    0.924243
    117          1           0       12.927024   -1.662187   -0.985979
    118          1           0       12.778887   -0.131772   -1.631410
    119          1           0       13.768602    0.965750    0.354323
    120          1           0       13.845437   -0.640673    1.018812
    121          1           0       15.441890    0.492797   -1.317983
    122          1           0       15.561877   -2.469608   -0.311092
    123          1           0       15.063258   -1.874054   -2.056713
    124          1           0       16.774612   -1.636058   -1.219072
    125          1           0       15.786272    1.180991    0.908556
    126          1           0       16.368411   -0.444969    1.438246
    127          1           0       18.217954   -0.250305   -0.558686
    128          1           0       17.419291    1.383170   -1.091390
    129          1           0       18.371306    2.185648    1.038312
    130          1           0       18.741647    0.719624    1.820881
    131          1           0       20.580474    0.425226    0.334496
    132          1           0       20.007162    2.969419   -0.739598
    133          1           0       21.436478    1.942204   -0.997740
    134          1           0       19.761633    1.671076   -1.830627
    135          1           0       20.861427    1.268272    2.462932
    136          1           0       22.068861    1.987916    1.282125
    137          1           0       20.674105    2.879819    1.894945
 ---------------------------------------------------------------------

 SCF Done:  E(RCAM-B3LYP) =  -2932.64667717     A.U. after   16 cycles

 Excitation energies and oscillator strengths:

 Excited State   1:      Singlet-A      2.0030 eV  618.98 nm  f=0.2305  <S**2>=0.000
     240 -> 243       -0.26164
     241 -> 242        0.65390
 This state for optimization and/or second-order correction.
 Total Energy, E(TD-HF/TD-KS) =  -2932.57306644
 Copying the excited state density for this state as the 1-particle RhoCI density.

 The electronic state is 1-A.
 Alpha  occ. eigenvalues --  -46.83620 -19.27120 -19.25253 -19.21216 -19.21026
 Alpha  occ. eigenvalues --  -19.19995 -14.42609 -14.39726 -14.39369 -14.38600
 Alpha  occ. eigenvalues --  -10.39970 -10.39590 -10.35332 -10.31819 -10.31695
 Alpha  occ. eigenvalues --  -10.31241 -10.31085 -10.30384 -10.30074 -10.29504
 Alpha  occ. eigenvalues --  -10.29350 -10.28976 -10.28890 -10.28772 -10.28685
 Alpha  occ. eigenvalues --  -10.28619 -10.28364 -10.28266 -10.28030 -10.27899
 Alpha  occ. eigenvalues --  -10.27830 -10.27638 -10.27507 -10.27108 -10.26681
 Alpha  occ. eigenvalues --  -10.26617 -10.26575 -10.26376 -10.26244 -10.26222
 Alpha  occ. eigenvalues --  -10.26210 -10.26202 -10.25907 -10.25809 -10.25780
 Alpha  occ. eigenvalues --  -10.25694 -10.25661 -10.25629 -10.25561 -10.25560
 Alpha  occ. eigenvalues --  -10.25463 -10.25455 -10.25396 -10.25376 -10.25278
 Alpha  occ. eigenvalues --  -10.25106 -10.24898 -10.24872 -10.24620 -10.24504
 Alpha  occ. eigenvalues --  -10.24388 -10.23904 -10.23657 -10.23435 -10.23424
 Alpha  occ. eigenvalues --   -3.12790  -1.87485  -1.87018  -1.86994  -1.18401
 Alpha  occ. eigenvalues --   -1.16192  -1.12511  -1.07511  -1.04631  -1.04533
 Alpha  occ. eigenvalues --   -1.03805  -1.02957  -0.99603  -0.92472  -0.91912
 Alpha  occ. eigenvalues --   -0.90929  -0.90403  -0.90047  -0.89911  -0.89314
 Alpha  occ. eigenvalues --   -0.88616  -0.88558  -0.87662  -0.87001  -0.86640
 Alpha  occ. eigenvalues --   -0.85557  -0.84392  -0.83716  -0.83416  -0.82659
 Alpha  occ. eigenvalues --   -0.82174  -0.80786  -0.80653  -0.80440  -0.79478
 Alpha  occ. eigenvalues --   -0.78066  -0.76849  -0.76609  -0.76559  -0.76387
 Alpha  occ. eigenvalues --   -0.75333  -0.75057  -0.74792  -0.74079  -0.72918
 Alpha  occ. eigenvalues --   -0.72562  -0.70756  -0.69540  -0.68580  -0.68163
 Alpha  occ. eigenvalues --   -0.67088  -0.66555  -0.65491  -0.65245  -0.64802
 Alpha  occ. eigenvalues --   -0.64417  -0.63580  -0.63473  -0.63287  -0.62783
 Alpha  occ. eigenvalues --   -0.62087  -0.61415  -0.60847  -0.60145  -0.59390
 Alpha  occ. eigenvalues --   -0.58520  -0.58488  -0.58275  -0.57261  -0.56884
 Alpha  occ. eigenvalues --   -0.56280  -0.55984  -0.55506  -0.55244  -0.54918
 Alpha  occ. eigenvalues --   -0.54521  -0.54255  -0.53217  -0.53115  -0.52971
 Alpha  occ. eigenvalues --   -0.52858  -0.52662  -0.52297  -0.51877  -0.51776
 Alpha  occ. eigenvalues --   -0.51682  -0.51445  -0.51252  -0.50877  -0.50721
 Alpha  occ. eigenvalues --   -0.50629  -0.50462  -0.50205  -0.49819  -0.49774
 Alpha  occ. eigenvalues --   -0.49525  -0.49437  -0.49210  -0.48966  -0.48592
 Alpha  occ. eigenvalues --   -0.48405  -0.48115  -0.47786  -0.47719  -0.47469
 Alpha  occ. eigenvalues --   -0.47280  -0.46920  -0.46524  -0.46388  -0.46234
 Alpha  occ. eigenvalues --   -0.46140  -0.46044  -0.45799  -0.45642  -0.45351
 Alpha  occ. eigenvalues --   -0.45265  -0.45199  -0.44689  -0.44422  -0.44295
 Alpha  occ. eigenvalues --   -0.43913  -0.43661  -0.43547  -0.43368  -0.43203
 Alpha  occ. eigenvalues --   -0.42968  -0.42889  -0.42490  -0.42430  -0.42167
 Alpha  occ. eigenvalues --   -0.41900  -0.41709  -0.41508  -0.41356  -0.41124
 Alpha  occ. eigenvalues --   -0.41053  -0.40967  -0.40775  -0.40338  -0.40324
 Alpha  occ. eigenvalues --   -0.40090  -0.40039  -0.39961  -0.39448  -0.39380
 Alpha  occ. eigenvalues --   -0.39324  -0.38927  -0.38472  -0.38184  -0.37764
 Alpha  occ. eigenvalues --   -0.37642  -0.37327  -0.37054  -0.36942  -0.36764
 Alpha  occ. eigenvalues --   -0.36610  -0.36566  -0.35638  -0.35427  -0.35179
 Alpha  occ. eigenvalues --   -0.35136  -0.34907  -0.34839  -0.33431  -0.33217
 Alpha  occ. eigenvalues --   -0.33074  -0.32673  -0.32344  -0.31287  -0.30565
 Alpha  occ. eigenvalues --   -0.30083  -0.29603  -0.28004  -0.27390  -0.23324
 Alpha  occ. eigenvalues --   -0.20405
 Alpha virt. eigenvalues --   -0.05789  -0.03367   0.01687   0.03568   0.04124
 Alpha virt. eigenvalues --    0.04757   0.05430   0.06425   0.06784   0.07354
 Alpha virt. eigenvalues --    0.07821   0.10841   0.11086   0.11270   0.11805

 Mulliken charges:
               1
     1  Mg   0.814522
     2  C    0.050133
     3  C   -0.187354
     4  C   -0.179755
     5  C   -0.181666
     6  N   -0.638738
     7  C    0.295928
     8  C   -0.132512
     9  C   -0.179984
    10  C    0.339585
    11  C   -0.317827
    12  C   -0.152254
    13  C   -0.262499
    14  C    0.615850
    15  O   -0.533211
    16  O   -0.461856
    17  N   -0.716258
    18  C    0.343403
    19  C   -0.031015
    20  C    0.019701
    21  C    0.314160
    22  C   -0.375541
    23  C   -0.027416
    24  C   -0.273795
    25  N   -0.674512
    26  C    0.311019
    27  C   -0.003368
    28  C    0.021209
    29  C    0.253297
    30  C   -0.353038
    31  C   -0.254039
    32  C   -0.313665
    33  N   -0.723215
    34  C    0.238093
    35  C    0.069065
    36  C    0.019309
    37  C    0.289597
    38  C   -0.392292
    39  C    0.351800
    40  O   -0.437115
    41  C   -0.314835
    42  C    0.609612
    43  O   -0.477159
    44  O   -0.474022
    45  C   -0.072300
    46  C    0.000209
    47  C   -0.119711
    48  C    0.126593
    49  C   -0.377166
    50  C   -0.163388
    51  C   -0.201886
    52  C   -0.147622
    53  C   -0.061597
    54  C   -0.316613
    55  C   -0.172101
    56  C   -0.184403
    57  C   -0.185069
    58  C   -0.046846
    59  C   -0.300129
    60  C   -0.179464
    61  C   -0.175684
    62  C   -0.167441
    63  C   -0.080028
    64  C   -0.287619
    65  C   -0.311800
    66  H    0.074291
    67  H    0.080851
    68  H    0.096390
    69  H    0.146855
    70  H    0.112909
    71  H    0.117330
    72  H    0.115803
    73  H    0.119986
    74  H    0.136160
    75  H    0.110524
    76  H    0.138339
    77  H    0.110728
    78  H    0.136512
    79  H    0.104425
    80  H    0.111530
    81  H    0.094491
    82  H    0.103490
    83  H    0.111955
    84  H    0.145738
    85  H    0.104949
    86  H    0.116427
    87  H    0.117230
    88  H    0.094273
    89  H    0.103873
    90  H    0.074275
    91  H    0.113098
    92  H    0.147893
    93  H    0.145394
    94  H    0.118467
    95  H    0.172925
    96  H    0.128333
    97  H    0.114387
    98  H    0.130453
    99  H    0.125890
   100  H    0.124912
   101  H    0.098068
   102  H    0.135722
   103  H    0.084020
   104  H    0.120915
   105  H    0.099224
   106  H    0.063036
   107  H    0.104066
   108  H    0.085911
   109  H    0.080199
   110  H    0.099815
   111  H    0.074744
   112  H    0.103273
   113  H    0.109250
   114  H    0.111604
   115  H    0.064601
   116  H    0.070354
   117  H    0.095272
   118  H    0.098263
   119  H    0.077278
   120  H    0.092428
   121  H    0.093676
   122  H    0.105131
   123  H    0.084826
   124  H    0.096818
   125  H    0.083073
   126  H    0.085568
   127  H    0.074810
   128  H    0.064206
   129  H    0.102235
   130  H    0.088038
   131  H    0.098630
   132  H    0.115912
   133  H    0.095957
   134  H    0.092708
   135  H    0.109014
   136  H    0.103135
   137  H    0.073857
 Sum of Mulliken charges =   0.00000

 Dipole moment (field-independent basis, Debye):
    X=              2.9935    Y=              3.7645    Z=              0.8185  Tot=              4.8788
 Quadrupole moment (field-independent basis, Debye-Ang):
   XX=           -349.3597   YY=           -391.2701   ZZ=           -400.0727
   XY=            -11.4026   XZ=             10.7299   YZ=             -2.3749

 Normal termination of Gaussian 09 at Mon Jul  1 06:01:31 2019.
