 Gaussian 09, Revision D.01,
 Gaussian 09:  ES64L-G09RevD.01 24-Apr-2013

 -------------------------------------
 # td=(NStates=1) CAM-B3LYP/6-31G(d,p)
 -------------------------------------

 --
 TD
 --
 Symbolic Z-matrix:
 Charge =  0 Multiplicity = 1

                         Standard orientation:
 ---------------------------------------------------------------------
 Center     Atomic      Atomic             Coordinates (Angstroms)
 Number     Number       Type             X           Y           Z
 ---------------------------------------------------------------------
      1         12           0       -7.060136    0.616027    0.073021
      2          6           0       -4.867190   -1.979655    0.424305
      3          6           0       -4.761657    2.805029    1.181719
      4          6           0       -9.419760    3.170740   -0.385473
      5          6           0       -9.490803   -1.734421   -0.898975
      6          7           0       -5.052557    0.391413    0.619946
      7          6           0       -4.321828   -0.734217    0.811940
      8          6           0       -2.900446   -0.448156    1.168568
      9          6           0       -3.054499    0.976012    1.583900
     10          6           0       -4.375894    1.468312    1.097601
     11          6           0       -2.941921    1.144475    3.053067
     12          6           0       -1.852788   -0.692208    0.020073
     13          6           0       -0.446678   -0.543888    0.435509
     14          6           0        0.531343   -0.746992   -0.628853
     15          8           0        0.157631   -1.220158   -1.753757
     16          8           0        1.810186   -0.530790   -0.182771
     17          7           0       -7.065286    2.632371    0.505024
     18          6           0       -6.059809    3.333092    0.982480
     19          6           0       -6.290994    4.765893    0.938282
     20          6           0       -7.749416    4.840235    0.529294
     21          6           0       -8.133269    3.440587    0.132493
     22          6           0       -5.497894    5.819894    1.624065
     23          6           0       -8.528499    6.054746    0.366531
     24          6           0       -8.083655    7.318490    0.093222
     25          7           0       -9.083371    0.762103   -0.363689
     26          6           0       -9.858132    1.870369   -0.579471
     27          6           0      -11.194441    1.502544   -1.043886
     28          6           0      -11.175286    0.219689   -1.208474
     29          6           0       -9.874264   -0.310055   -0.820269
     30          6           0      -12.240327    2.535209   -1.393121
     31          6           0      -12.316719   -0.633755   -1.665059
     32          6           0      -12.347529   -0.917411   -3.262663
     33          7           0       -7.260109   -1.390593   -0.170392
     34          6           0       -8.309404   -2.228187   -0.571557
     35          6           0       -7.825074   -3.512308   -0.571464
     36          6           0       -6.584457   -3.593719   -0.057383
     37          6           0       -6.225627   -2.102292    0.090632
     38          6           0       -8.619473   -4.668831   -0.886666
     39          6           0       -5.404351   -4.382645    0.211864
     40          8           0       -5.191063   -5.622738    0.059732
     41          6           0       -4.193435   -3.384438    0.522031
     42          6           0       -3.517904   -3.708213    1.889253
     43          8           0       -3.879272   -3.149262    2.996815
     44          8           0       -2.721337   -4.715669    1.764066
     45          6           0       -2.251464   -5.433684    2.983358
     46          6           0        2.834092   -0.692662   -1.318676
     47          6           0        4.123290   -0.488364   -0.638057
     48          6           0        5.030003    0.341428   -1.110765
     49          6           0        4.926753    1.152544   -2.388111
     50          6           0        6.389715    0.552988   -0.437697
     51          6           0        7.706920   -0.207368   -1.023028
     52          6           0        8.908628   -0.126556   -0.210795
     53          6           0       10.203111   -0.658070   -0.813053
     54          6           0       10.131912   -2.099538   -1.249364
     55          6           0       11.346921   -0.345674    0.019659
     56          6           0       12.731941   -0.435258   -0.569875
     57          6           0       13.875168    0.086500    0.219964
     58          6           0       15.296101   -0.144236   -0.297742
     59          6           0       15.669015   -1.558561   -0.800940
     60          6           0       16.390456    0.486703    0.612304
     61          6           0       17.781569    0.487899    0.022610
     62          6           0       18.811633    1.300593    0.778167
     63          6           0       20.246866    1.346475    0.093246
     64          6           0       20.272796    2.097829   -1.151967
     65          6           0       21.172654    2.014172    1.159635
     66          1           0       -4.003181    3.513317    1.296443
     67          1           0      -10.003070    4.171450   -0.403803
     68          1           0      -10.296486   -2.312041   -1.343557
     69          1           0       -2.719027   -1.017721    2.065651
     70          1           0       -2.193932    1.654008    1.220924
     71          1           0       -1.902475    1.100769    3.607543
     72          1           0       -3.208608    2.056721    3.675156
     73          1           0       -3.454496    0.248993    3.584890
     74          1           0       -2.247156   -1.672988   -0.233427
     75          1           0       -2.057697    0.210889   -0.721952
     76          1           0       -0.156796    0.276465    1.064084
     77          1           0       -0.365296   -1.241793    1.240868
     78          1           0       -4.877680    6.448321    1.014471
     79          1           0       -6.252853    6.789070    1.776333
     80          1           0       -4.695564    5.505836    2.372389
     81          1           0       -9.495028    5.842180    0.343478
     82          1           0       -8.714317    8.198507    0.145145
     83          1           0       -7.092717    7.487321   -0.210217
     84          1           0      -11.693360    3.082191   -2.388523
     85          1           0      -13.161836    2.085205   -1.676199
     86          1           0      -12.360334    3.232764   -0.676621
     87          1           0      -12.662885   -1.575279   -1.124519
     88          1           0      -13.296804   -0.028415   -1.540375
     89          1           0      -13.186224   -1.580229   -3.606111
     90          1           0      -12.589308   -0.050344   -3.753709
     91          1           0      -11.314690   -1.448031   -3.495113
     92          1           0       -8.909383   -4.939509   -2.060048
     93          1           0       -7.976343   -5.522359   -0.566478
     94          1           0       -9.567581   -5.020575   -0.526816
     95          1           0       -3.428473   -3.573398   -0.261375
     96          1           0       -1.791407   -4.700868    3.579378
     97          1           0       -3.055093   -5.695896    3.638114
     98          1           0       -1.643141   -6.140240    2.640544
     99          1           0        2.851650   -1.821794   -1.746663
    100          1           0        2.470434   -0.223011   -2.195118
    101          1           0        3.931623   -1.048091    0.250157
    102          1           0        3.994572    1.156793   -2.641841
    103          1           0        5.359521    2.164757   -2.341502
    104          1           0        5.761744    0.651758   -2.995521
    105          1           0        6.640483    1.462555   -0.151692
    106          1           0        6.491122    0.241490    0.672155
    107          1           0        7.485059   -1.274925   -1.346244
    108          1           0        7.605024    0.155048   -2.123988
    109          1           0        8.893637    0.923955    0.226401
    110          1           0        8.737762   -0.778121    0.617877
    111          1           0       10.344917   -0.071211   -1.749298
    112          1           0        9.362610   -2.432028   -1.909346
    113          1           0       11.265195   -2.354013   -1.504425
    114          1           0        9.908124   -2.736270   -0.299845
    115          1           0       11.349065    0.693849    0.254924
    116          1           0       11.455459   -0.828599    1.032338
    117          1           0       12.807889   -1.449300   -0.865410
    118          1           0       12.595898   -0.024320   -1.528064
    119          1           0       13.727732    1.169075    0.630966
    120          1           0       13.708495   -0.587633    1.088138
    121          1           0       15.390770    0.526521   -1.153088
    122          1           0       15.526949   -2.166079   -0.040156
    123          1           0       15.050167   -1.884896   -1.617013
    124          1           0       16.669380   -1.365645   -1.194962
    125          1           0       16.112318    1.549029    0.685555
    126          1           0       16.519605   -0.035139    1.658465
    127          1           0       18.241980   -0.589956   -0.071773
    128          1           0       17.723047    0.962289   -1.232566
    129          1           0       18.505021    2.350614    0.867663
    130          1           0       18.733052    0.677925    1.671369
    131          1           0       20.558463    0.518871   -0.008657
    132          1           0       20.133611    3.149846   -1.127700
    133          1           0       21.247868    1.957502   -1.542475
    134          1           0       19.538965    1.630572   -1.946246
    135          1           0       21.088613    1.477039    2.192717
    136          1           0       22.245503    1.856065    1.043411
    137          1           0       20.885643    3.034194    1.305382
 ---------------------------------------------------------------------

 SCF Done:  E(RCAM-B3LYP) =  -2932.59567596     A.U. after   17 cycles

 Excitation energies and oscillator strengths:

 Excited State   1:      Singlet-A      1.9503 eV  635.73 nm  f=0.2784  <S**2>=0.000
     240 -> 243       -0.22162
     241 -> 242        0.66245
 This state for optimization and/or second-order correction.
 Total Energy, E(TD-HF/TD-KS) =  -2932.52400541
 Copying the excited state density for this state as the 1-particle RhoCI density.

 The electronic state is 1-A.
 Alpha  occ. eigenvalues --  -46.84515 -19.28101 -19.27475 -19.20886 -19.20369
 Alpha  occ. eigenvalues --  -19.20021 -14.41706 -14.39884 -14.39612 -14.39209
 Alpha  occ. eigenvalues --  -10.39955 -10.39739 -10.35937 -10.32746 -10.31299
 Alpha  occ. eigenvalues --  -10.31017 -10.30493 -10.29687 -10.29573 -10.29482
 Alpha  occ. eigenvalues --  -10.29476 -10.29203 -10.28510 -10.28246 -10.28188
 Alpha  occ. eigenvalues --  -10.28163 -10.27846 -10.27685 -10.27636 -10.27516
 Alpha  occ. eigenvalues --  -10.27383 -10.27360 -10.27212 -10.27175 -10.27003
 Alpha  occ. eigenvalues --  -10.26991 -10.26828 -10.26694 -10.26662 -10.26452
 Alpha  occ. eigenvalues --  -10.26445 -10.26431 -10.26053 -10.26048 -10.26038
 Alpha  occ. eigenvalues --  -10.26024 -10.26022 -10.25993 -10.25889 -10.25849
 Alpha  occ. eigenvalues --  -10.25767 -10.25734 -10.25702 -10.25685 -10.25368
 Alpha  occ. eigenvalues --  -10.25356 -10.25201 -10.25018 -10.24870 -10.24537
 Alpha  occ. eigenvalues --  -10.24126 -10.23977 -10.23931 -10.23512 -10.23005
 Alpha  occ. eigenvalues --   -3.13537  -1.88252  -1.87761  -1.87722  -1.19012
 Alpha  occ. eigenvalues --   -1.15855  -1.08283  -1.06785  -1.05883  -1.05504
 Alpha  occ. eigenvalues --   -1.04830  -1.03105  -1.02089  -0.92545  -0.91739
 Alpha  occ. eigenvalues --   -0.91586  -0.90996  -0.90583  -0.89579  -0.89203
 Alpha  occ. eigenvalues --   -0.88834  -0.88370  -0.87690  -0.87401  -0.86820
 Alpha  occ. eigenvalues --   -0.86296  -0.84940  -0.84083  -0.83408  -0.82855
 Alpha  occ. eigenvalues --   -0.82398  -0.82090  -0.81069  -0.80203  -0.78374
 Alpha  occ. eigenvalues --   -0.77956  -0.76990  -0.76811  -0.76347  -0.76201
 Alpha  occ. eigenvalues --   -0.75885  -0.75136  -0.74961  -0.73543  -0.72769
 Alpha  occ. eigenvalues --   -0.71627  -0.71032  -0.69938  -0.69509  -0.68946
 Alpha  occ. eigenvalues --   -0.68165  -0.67037  -0.65732  -0.65560  -0.65361
 Alpha  occ. eigenvalues --   -0.64760  -0.64496  -0.64028  -0.63424  -0.63147
 Alpha  occ. eigenvalues --   -0.62167  -0.61495  -0.60505  -0.60317  -0.59619
 Alpha  occ. eigenvalues --   -0.59352  -0.58658  -0.57588  -0.57401  -0.57267
 Alpha  occ. eigenvalues --   -0.56875  -0.56021  -0.55818  -0.55593  -0.55467
 Alpha  occ. eigenvalues --   -0.54958  -0.54810  -0.54268  -0.53601  -0.53487
 Alpha  occ. eigenvalues --   -0.53360  -0.53002  -0.52691  -0.51901  -0.51819
 Alpha  occ. eigenvalues --   -0.51731  -0.51419  -0.51336  -0.50887  -0.50741
 Alpha  occ. eigenvalues --   -0.50613  -0.50473  -0.50106  -0.49958  -0.49794
 Alpha  occ. eigenvalues --   -0.49324  -0.49055  -0.48855  -0.48746  -0.48548
 Alpha  occ. eigenvalues --   -0.48198  -0.48167  -0.47735  -0.47579  -0.47374
 Alpha  occ. eigenvalues --   -0.47177  -0.47011  -0.46570  -0.46447  -0.46287
 Alpha  occ. eigenvalues --   -0.46167  -0.46099  -0.45734  -0.45436  -0.45397
 Alpha  occ. eigenvalues --   -0.44742  -0.44579  -0.44339  -0.44278  -0.44077
 Alpha  occ. eigenvalues --   -0.43925  -0.43655  -0.43477  -0.43463  -0.43127
 Alpha  occ. eigenvalues --   -0.42937  -0.42654  -0.42545  -0.42383  -0.42343
 Alpha  occ. eigenvalues --   -0.42139  -0.42059  -0.41854  -0.41567  -0.41454
 Alpha  occ. eigenvalues --   -0.41247  -0.40972  -0.40627  -0.40444  -0.40172
 Alpha  occ. eigenvalues --   -0.40049  -0.39748  -0.39513  -0.39036  -0.38847
 Alpha  occ. eigenvalues --   -0.38810  -0.38432  -0.38348  -0.38188  -0.37966
 Alpha  occ. eigenvalues --   -0.37743  -0.37106  -0.36675  -0.36522  -0.36192
 Alpha  occ. eigenvalues --   -0.35979  -0.35914  -0.35787  -0.35397  -0.35277
 Alpha  occ. eigenvalues --   -0.35011  -0.34751  -0.34346  -0.34020  -0.33427
 Alpha  occ. eigenvalues --   -0.33113  -0.32653  -0.32172  -0.30823  -0.30138
 Alpha  occ. eigenvalues --   -0.29965  -0.29824  -0.28912  -0.25869  -0.23181
 Alpha  occ. eigenvalues --   -0.20750
 Alpha virt. eigenvalues --   -0.06617  -0.03127   0.00609   0.03363   0.04446
 Alpha virt. eigenvalues --    0.05093   0.05260   0.06184   0.06972   0.07510
 Alpha virt. eigenvalues --    0.08135   0.10658   0.11149   0.11819   0.11893

 Mulliken charges:
               1
     1  Mg   0.814636
     2  C    0.025843
     3  C   -0.189427
     4  C   -0.164227
     5  C   -0.190462
     6  N   -0.652593
     7  C    0.313699
     8  C   -0.177104
     9  C   -0.162243
    10  C    0.385106
    11  C   -0.324093
    12  C   -0.128977
    13  C   -0.281952
    14  C    0.645322
    15  O   -0.503978
    16  O   -0.504838
    17  N   -0.707334
    18  C    0.326210
    19  C    0.020885
    20  C   -0.052630
    21  C    0.312839
    22  C   -0.393925
    23  C   -0.056179
    24  C   -0.258816
    25  N   -0.676979
    26  C    0.282519
    27  C    0.035433
    28  C    0.057506
    29  C    0.251790
    30  C   -0.336703
    31  C   -0.287857
    32  C   -0.305764
    33  N   -0.765493
    34  C    0.344524
    35  C    0.051496
    36  C    0.021544
    37  C    0.341901
    38  C   -0.418877
    39  C    0.353399
    40  O   -0.483432
    41  C   -0.289003
    42  C    0.602204
    43  O   -0.530955
    44  O   -0.423533
    45  C   -0.084259
    46  C   -0.013122
    47  C   -0.097359
    48  C    0.073555
    49  C   -0.328194
    50  C   -0.235772
    51  C   -0.170233
    52  C   -0.170468
    53  C   -0.054000
    54  C   -0.308614
    55  C   -0.175746
    56  C   -0.190740
    57  C   -0.166951
    58  C   -0.068617
    59  C   -0.312061
    60  C   -0.156932
    61  C   -0.170856
    62  C   -0.157194
    63  C   -0.014501
    64  C   -0.305906
    65  C   -0.322846
    66  H    0.081330
    67  H    0.102995
    68  H    0.107261
    69  H    0.137371
    70  H    0.096240
    71  H    0.084071
    72  H    0.112201
    73  H    0.116252
    74  H    0.121796
    75  H    0.103721
    76  H    0.138968
    77  H    0.147860
    78  H    0.124364
    79  H    0.103466
    80  H    0.117682
    81  H    0.077211
    82  H    0.107168
    83  H    0.110527
    84  H    0.096131
    85  H    0.115733
    86  H    0.130859
    87  H    0.109121
    88  H    0.087442
    89  H    0.096778
    90  H    0.123259
    91  H    0.096266
    92  H    0.093889
    93  H    0.143054
    94  H    0.138572
    95  H    0.162514
    96  H    0.142874
    97  H    0.153816
    98  H    0.142635
    99  H    0.114288
   100  H    0.144403
   101  H    0.121602
   102  H    0.111539
   103  H    0.123272
   104  H    0.119068
   105  H    0.112064
   106  H    0.073182
   107  H    0.086627
   108  H    0.066161
   109  H    0.085565
   110  H    0.106693
   111  H    0.087937
   112  H    0.117756
   113  H    0.091992
   114  H    0.083739
   115  H    0.096630
   116  H    0.076127
   117  H    0.092381
   118  H    0.085351
   119  H    0.077604
   120  H    0.082866
   121  H    0.087012
   122  H    0.112174
   123  H    0.102720
   124  H    0.112511
   125  H    0.097073
   126  H    0.073587
   127  H    0.082029
   128  H    0.020450
   129  H    0.086681
   130  H    0.091869
   131  H    0.081376
   132  H    0.105887
   133  H    0.105273
   134  H    0.087127
   135  H    0.080807
   136  H    0.097490
   137  H    0.106994
 Sum of Mulliken charges =   0.00000

 Dipole moment (field-independent basis, Debye):
    X=              3.2506    Y=              3.2159    Z=              0.3808  Tot=              4.5884
 Quadrupole moment (field-independent basis, Debye-Ang):
   XX=           -334.9222   YY=           -389.8128   ZZ=           -400.7016
   XY=            -17.7415   XZ=             16.2243   YZ=            -10.3017

 Normal termination of Gaussian 09 at Sun Jun 30 23:39:08 2019.
