 Gaussian 09, Revision D.01,
 Gaussian 09:  ES64L-G09RevD.01 24-Apr-2013

 -------------------------------------
 # td=(NStates=1) CAM-B3LYP/6-31G(d,p)
 -------------------------------------

 --
 TD
 --
 Symbolic Z-matrix:
 Charge =  0 Multiplicity = 1

                         Standard orientation:
 ---------------------------------------------------------------------
 Center     Atomic      Atomic             Coordinates (Angstroms)
 Number     Number       Type             X           Y           Z
 ---------------------------------------------------------------------
      1         12           0       -7.231776    0.598873    0.080720
      2          6           0       -4.741479   -1.885128    0.615933
      3          6           0       -4.875206    2.915959    1.157224
      4          6           0       -9.531428    3.136172   -0.240763
      5          6           0       -9.508685   -1.861687   -0.752400
      6          7           0       -5.087046    0.476413    0.764642
      7          6           0       -4.273686   -0.647520    0.799127
      8          6           0       -2.858268   -0.309812    1.187415
      9          6           0       -2.938751    1.160515    1.631380
     10          6           0       -4.400935    1.580574    1.121904
     11          6           0       -2.764075    1.340946    3.103417
     12          6           0       -1.914376   -0.532303   -0.019289
     13          6           0       -0.447142   -0.370685    0.525165
     14          6           0        0.489357   -0.650555   -0.615834
     15          8           0        0.125498   -1.045810   -1.726684
     16          8           0        1.760518   -0.378993   -0.310246
     17          7           0       -7.196508    2.571422    0.361198
     18          6           0       -6.108349    3.347762    0.771672
     19          6           0       -6.488169    4.721341    0.807316
     20          6           0       -7.822126    4.818403    0.447032
     21          6           0       -8.198091    3.459025    0.123377
     22          6           0       -5.582464    5.884121    1.280871
     23          6           0       -8.683825    6.055462    0.284816
     24          6           0       -8.222130    7.205394    0.006951
     25          7           0       -9.257928    0.692344   -0.450930
     26          6           0       -9.972999    1.763941   -0.593067
     27          6           0      -11.338036    1.395994   -1.030590
     28          6           0      -11.278050    0.122862   -1.088995
     29          6           0       -9.936376   -0.439732   -0.789080
     30          6           0      -12.420252    2.346307   -1.135977
     31          6           0      -12.313273   -0.818944   -1.762768
     32          6           0      -12.179640   -0.979857   -3.361902
     33          7           0       -7.239506   -1.353049   -0.137846
     34          6           0       -8.241806   -2.262420   -0.555695
     35          6           0       -7.791867   -3.708447   -0.500822
     36          6           0       -6.464172   -3.510614   -0.082865
     37          6           0       -6.132655   -2.148143    0.098149
     38          6           0       -8.453091   -4.885589   -0.862702
     39          6           0       -5.308022   -4.339944    0.186289
     40          8           0       -5.188528   -5.539512    0.064432
     41          6           0       -4.148857   -3.307279    0.587615
     42          6           0       -3.450597   -3.693086    1.925954
     43          8           0       -3.796245   -3.162877    2.972103
     44          8           0       -2.543316   -4.696834    1.782561
     45          6           0       -2.083731   -5.243322    2.982844
     46          6           0        2.814834   -0.617287   -1.336557
     47          6           0        4.080039   -0.362505   -0.622604
     48          6           0        5.193461    0.407687   -1.018228
     49          6           0        5.312522    1.035480   -2.359705
     50          6           0        6.436940    0.289457   -0.183842
     51          6           0        7.622641   -0.306464   -0.904165
     52          6           0        8.933029   -0.317182   -0.064767
     53          6           0       10.187796   -0.740682   -0.753850
     54          6           0       10.069759   -2.292690   -1.118096
     55          6           0       11.469379   -0.335915    0.046561
     56          6           0       12.706212   -0.485993   -0.653279
     57          6           0       13.877611   -0.038477    0.129149
     58          6           0       15.401915   -0.154133   -0.532540
     59          6           0       15.710404   -1.585739   -1.140596
     60          6           0       16.367276    0.374833    0.418652
     61          6           0       17.788875    0.634116   -0.194965
     62          6           0       18.819314    1.341002    0.726250
     63          6           0       20.221108    1.468802    0.305165
     64          6           0       20.246525    2.321639   -0.986187
     65          6           0       21.079571    2.022054    1.378701
     66          1           0       -4.022808    3.665687    1.276906
     67          1           0      -10.152263    4.084180   -0.497249
     68          1           0      -10.462654   -2.500444   -1.097107
     69          1           0       -2.548871   -0.889383    2.069939
     70          1           0       -2.275267    1.925093    1.120465
     71          1           0       -1.767302    0.995485    3.632111
     72          1           0       -2.983925    2.373500    3.431041
     73          1           0       -3.510391    0.721081    3.487968
     74          1           0       -2.061638   -1.438804   -0.656077
     75          1           0       -2.110788    0.196625   -0.834712
     76          1           0       -0.310124    0.617351    0.897646
     77          1           0       -0.268784   -1.102043    1.201991
     78          1           0       -4.970789    6.303264    0.355523
     79          1           0       -6.212832    6.602499    1.663132
     80          1           0       -4.829361    5.687249    2.206682
     81          1           0       -9.742384    5.750259    0.697095
     82          1           0       -9.072767    7.912878   -0.039417
     83          1           0       -7.153256    7.225584   -0.374943
     84          1           0      -12.089961    3.178175   -1.977768
     85          1           0      -13.354774    1.878358   -1.263885
     86          1           0      -12.709536    2.937133   -0.275369
     87          1           0      -12.354072   -1.805469   -1.348851
     88          1           0      -13.303274   -0.529470   -1.448821
     89          1           0      -12.987287   -1.527526   -3.820792
     90          1           0      -12.437726    0.014826   -3.976269
     91          1           0      -11.123902   -1.206194   -3.576514
     92          1           0       -8.676464   -5.138893   -2.041343
     93          1           0       -7.852017   -5.820466   -0.630791
     94          1           0       -9.414439   -5.180206   -0.398443
     95          1           0       -3.476592   -3.589414   -0.252964
     96          1           0       -1.319216   -4.590028    3.444059
     97          1           0       -2.699926   -5.621664    3.737185
     98          1           0       -1.722988   -6.274229    2.819378
     99          1           0        2.745080   -1.534052   -1.718241
    100          1           0        2.559858    0.215629   -2.099187
    101          1           0        3.918166   -0.685275    0.451239
    102          1           0        4.244555    1.173499   -2.806966
    103          1           0        5.854209    2.038691   -2.267876
    104          1           0        5.856894    0.574503   -3.189222
    105          1           0        6.772937    1.458098    0.006177
    106          1           0        6.393738   -0.422388    0.646025
    107          1           0        7.342564   -1.291045   -1.385419
    108          1           0        7.736205    0.270927   -1.645963
    109          1           0        9.061290    0.793606    0.211877
    110          1           0        8.724592   -0.824722    0.689285
    111          1           0       10.205430   -0.237610   -1.562420
    112          1           0        9.054724   -2.354310   -1.641424
    113          1           0       10.855305   -2.557353   -1.900719
    114          1           0       10.043164   -2.958803   -0.227973
    115          1           0       11.186062    0.667830    0.404506
    116          1           0       11.700374   -1.143236    0.913434
    117          1           0       12.844211   -1.519907   -1.054413
    118          1           0       12.630873    0.119255   -1.554469
    119          1           0       13.624833    0.970524    0.459379
    120          1           0       14.043963   -0.795520    1.047849
    121          1           0       15.387328    0.512258   -1.437279
    122          1           0       15.894877   -2.373468   -0.188051
    123          1           0       14.963781   -2.137349   -1.788733
    124          1           0       16.626507   -1.600208   -1.726630
    125          1           0       16.081320    1.306750    0.922004
    126          1           0       16.390538   -0.372378    1.393200
    127          1           0       18.169657   -0.396697   -0.489916
    128          1           0       17.815400    1.290391   -1.019664
    129          1           0       18.255748    2.407878    0.826850
    130          1           0       18.859942    0.742038    1.620123
    131          1           0       20.696700    0.298439    0.132085
    132          1           0       19.972721    3.363479   -0.604154
    133          1           0       21.224835    2.342104   -1.531746
    134          1           0       19.617162    1.945029   -1.671966
    135          1           0       20.895153    1.428503    2.281911
    136          1           0       22.202890    2.081098    1.191448
    137          1           0       21.173848    3.138365    1.479029
 ---------------------------------------------------------------------

 SCF Done:  E(RCAM-B3LYP) =  -2932.67581728     A.U. after   17 cycles

 Excitation energies and oscillator strengths:

 Excited State   1:      Singlet-A      2.0418 eV  607.23 nm  f=0.2301  <S**2>=0.000
     240 -> 243       -0.24231
     241 -> 242        0.65858
 This state for optimization and/or second-order correction.
 Total Energy, E(TD-HF/TD-KS) =  -2932.60078262
 Copying the excited state density for this state as the 1-particle RhoCI density.

 The electronic state is 1-A.
 Alpha  occ. eigenvalues --  -46.84346 -19.27394 -19.26032 -19.21043 -19.20521
 Alpha  occ. eigenvalues --  -19.19980 -14.41681 -14.40535 -14.39211 -14.39103
 Alpha  occ. eigenvalues --  -10.39772 -10.38624 -10.34996 -10.31985 -10.31614
 Alpha  occ. eigenvalues --  -10.30643 -10.30112 -10.30083 -10.29754 -10.29392
 Alpha  occ. eigenvalues --  -10.29280 -10.29153 -10.29043 -10.28882 -10.28852
 Alpha  occ. eigenvalues --  -10.28768 -10.28463 -10.28027 -10.27863 -10.27764
 Alpha  occ. eigenvalues --  -10.27574 -10.27518 -10.27448 -10.27194 -10.27179
 Alpha  occ. eigenvalues --  -10.27155 -10.27107 -10.27086 -10.27000 -10.26974
 Alpha  occ. eigenvalues --  -10.26900 -10.26687 -10.26625 -10.26432 -10.26428
 Alpha  occ. eigenvalues --  -10.26248 -10.26075 -10.25980 -10.25922 -10.25810
 Alpha  occ. eigenvalues --  -10.25735 -10.25680 -10.25631 -10.25410 -10.25338
 Alpha  occ. eigenvalues --  -10.25181 -10.25074 -10.24805 -10.24727 -10.24540
 Alpha  occ. eigenvalues --  -10.24283 -10.24133 -10.24052 -10.24005 -10.23894
 Alpha  occ. eigenvalues --   -3.13410  -1.88110  -1.87626  -1.87618  -1.18502
 Alpha  occ. eigenvalues --   -1.17273  -1.11319  -1.09504  -1.07683  -1.04534
 Alpha  occ. eigenvalues --   -1.03666  -1.02965  -1.02078  -0.92074  -0.91613
 Alpha  occ. eigenvalues --   -0.90798  -0.90361  -0.89960  -0.89498  -0.88483
 Alpha  occ. eigenvalues --   -0.88482  -0.88041  -0.87484  -0.86942  -0.86497
 Alpha  occ. eigenvalues --   -0.85741  -0.84553  -0.83770  -0.83152  -0.82417
 Alpha  occ. eigenvalues --   -0.81504  -0.81185  -0.80612  -0.80365  -0.78365
 Alpha  occ. eigenvalues --   -0.77719  -0.76620  -0.76503  -0.76359  -0.75835
 Alpha  occ. eigenvalues --   -0.74857  -0.74768  -0.74352  -0.73093  -0.71944
 Alpha  occ. eigenvalues --   -0.71069  -0.70507  -0.69633  -0.69191  -0.67852
 Alpha  occ. eigenvalues --   -0.67067  -0.66305  -0.65887  -0.65255  -0.64789
 Alpha  occ. eigenvalues --   -0.64134  -0.63687  -0.63531  -0.62162  -0.62090
 Alpha  occ. eigenvalues --   -0.60726  -0.60509  -0.59605  -0.59564  -0.58983
 Alpha  occ. eigenvalues --   -0.58538  -0.58295  -0.57713  -0.57290  -0.56820
 Alpha  occ. eigenvalues --   -0.56526  -0.55701  -0.55502  -0.55229  -0.55165
 Alpha  occ. eigenvalues --   -0.54837  -0.54669  -0.54397  -0.54189  -0.52958
 Alpha  occ. eigenvalues --   -0.52907  -0.52555  -0.52338  -0.51905  -0.51617
 Alpha  occ. eigenvalues --   -0.51564  -0.51482  -0.50921  -0.50748  -0.50486
 Alpha  occ. eigenvalues --   -0.50123  -0.49865  -0.49822  -0.49771  -0.49281
 Alpha  occ. eigenvalues --   -0.49249  -0.48919  -0.48789  -0.48648  -0.48240
 Alpha  occ. eigenvalues --   -0.48115  -0.47686  -0.47487  -0.47211  -0.46876
 Alpha  occ. eigenvalues --   -0.46840  -0.46342  -0.45965  -0.45873  -0.45769
 Alpha  occ. eigenvalues --   -0.45641  -0.45540  -0.45308  -0.45084  -0.45024
 Alpha  occ. eigenvalues --   -0.44733  -0.44479  -0.43990  -0.43950  -0.43627
 Alpha  occ. eigenvalues --   -0.43593  -0.43363  -0.43238  -0.43144  -0.43035
 Alpha  occ. eigenvalues --   -0.42899  -0.42671  -0.42453  -0.42284  -0.42223
 Alpha  occ. eigenvalues --   -0.42048  -0.41924  -0.41853  -0.41372  -0.41272
 Alpha  occ. eigenvalues --   -0.41240  -0.41062  -0.40608  -0.40512  -0.40467
 Alpha  occ. eigenvalues --   -0.40000  -0.39868  -0.39409  -0.39264  -0.38864
 Alpha  occ. eigenvalues --   -0.38787  -0.38370  -0.38346  -0.38016  -0.37707
 Alpha  occ. eigenvalues --   -0.37519  -0.37428  -0.37158  -0.36775  -0.36512
 Alpha  occ. eigenvalues --   -0.36316  -0.36257  -0.35884  -0.35789  -0.35742
 Alpha  occ. eigenvalues --   -0.35389  -0.34831  -0.34694  -0.33545  -0.33436
 Alpha  occ. eigenvalues --   -0.33026  -0.32765  -0.32603  -0.30658  -0.29886
 Alpha  occ. eigenvalues --   -0.29565  -0.29008  -0.28794  -0.28521  -0.23496
 Alpha  occ. eigenvalues --   -0.20675
 Alpha virt. eigenvalues --   -0.05945  -0.03225   0.01858   0.04197   0.04862
 Alpha virt. eigenvalues --    0.05764   0.06162   0.06815   0.07127   0.07515
 Alpha virt. eigenvalues --    0.08837   0.10764   0.10986   0.11628   0.11967

 Mulliken charges:
               1
     1  Mg   0.836453
     2  C    0.105713
     3  C   -0.221451
     4  C   -0.186891
     5  C   -0.155637
     6  N   -0.620223
     7  C    0.280745
     8  C   -0.161491
     9  C   -0.138946
    10  C    0.320603
    11  C   -0.306013
    12  C   -0.185770
    13  C   -0.254047
    14  C    0.595442
    15  O   -0.496042
    16  O   -0.495443
    17  N   -0.731105
    18  C    0.351667
    19  C   -0.013541
    20  C   -0.001771
    21  C    0.318385
    22  C   -0.367726
    23  C   -0.035236
    24  C   -0.263137
    25  N   -0.667660
    26  C    0.266945
    27  C    0.095699
    28  C   -0.042186
    29  C    0.251563
    30  C   -0.372095
    31  C   -0.242158
    32  C   -0.305001
    33  N   -0.725812
    34  C    0.243657
    35  C    0.147978
    36  C   -0.025239
    37  C    0.274255
    38  C   -0.447072
    39  C    0.360869
    40  O   -0.458880
    41  C   -0.330820
    42  C    0.629942
    43  O   -0.467677
    44  O   -0.439281
    45  C   -0.092413
    46  C    0.031564
    47  C   -0.154130
    48  C    0.126097
    49  C   -0.370919
    50  C   -0.213312
    51  C   -0.187849
    52  C   -0.162083
    53  C   -0.042011
    54  C   -0.324472
    55  C   -0.152809
    56  C   -0.171831
    57  C   -0.163595
    58  C   -0.051796
    59  C   -0.312293
    60  C   -0.153823
    61  C   -0.188952
    62  C   -0.150062
    63  C   -0.036394
    64  C   -0.312225
    65  C   -0.297388
    66  H    0.090053
    67  H    0.093744
    68  H    0.110438
    69  H    0.126607
    70  H    0.094340
    71  H    0.097852
    72  H    0.108502
    73  H    0.133026
    74  H    0.131344
    75  H    0.114912
    76  H    0.142331
    77  H    0.145778
    78  H    0.106745
    79  H    0.138082
    80  H    0.099767
    81  H    0.099860
    82  H    0.110645
    83  H    0.121032
    84  H    0.092939
    85  H    0.115561
    86  H    0.122753
    87  H    0.097766
    88  H    0.091675
    89  H    0.112189
    90  H    0.081596
    91  H    0.119225
    92  H    0.115108
    93  H    0.154172
    94  H    0.130930
    95  H    0.160140
    96  H    0.115888
    97  H    0.135989
    98  H    0.115024
    99  H    0.149902
   100  H    0.121692
   101  H    0.108951
   102  H    0.100401
   103  H    0.107844
   104  H    0.134216
   105  H    0.068182
   106  H    0.105524
   107  H    0.088019
   108  H    0.102841
   109  H    0.068806
   110  H    0.100529
   111  H    0.089289
   112  H    0.093683
   113  H    0.096916
   114  H    0.107552
   115  H    0.083683
   116  H    0.064624
   117  H    0.094537
   118  H    0.079291
   119  H    0.091808
   120  H    0.066018
   121  H    0.082227
   122  H    0.064919
   123  H    0.106318
   124  H    0.114858
   125  H    0.096850
   126  H    0.062635
   127  H    0.085932
   128  H    0.101027
   129  H    0.065804
   130  H    0.088464
   131  H    0.049387
   132  H    0.095399
   133  H    0.093367
   134  H    0.115697
   135  H    0.102663
   136  H    0.088550
   137  H    0.094718
 Sum of Mulliken charges =   0.00000

 Dipole moment (field-independent basis, Debye):
    X=              2.4568    Y=              4.1462    Z=             -0.4153  Tot=              4.8373
 Quadrupole moment (field-independent basis, Debye-Ang):
   XX=           -351.4102   YY=           -385.7159   ZZ=           -399.0721
   XY=            -13.2082   XZ=             -1.8936   YZ=             -4.7215

 Normal termination of Gaussian 09 at Fri Jun 28 08:45:55 2019.
