 Gaussian 09, Revision D.01,
 Gaussian 09:  ES64L-G09RevD.01 24-Apr-2013

 -------------------------------------
 # td=(NStates=1) CAM-B3LYP/6-31G(d,p)
 -------------------------------------

 --
 TD
 --
 Symbolic Z-matrix:
 Charge =  0 Multiplicity = 1

                         Standard orientation:
 ---------------------------------------------------------------------
 Center     Atomic      Atomic             Coordinates (Angstroms)
 Number     Number       Type             X           Y           Z
 ---------------------------------------------------------------------
      1         12           0       -7.129506    0.575751    0.077209
      2          6           0       -4.859886   -2.056286    0.562694
      3          6           0       -4.718683    2.900843    1.072760
      4          6           0       -9.395923    3.122315   -0.430231
      5          6           0       -9.595505   -1.751793   -0.721956
      6          7           0       -5.097766    0.437475    0.634441
      7          6           0       -4.379747   -0.678668    0.901925
      8          6           0       -2.974417   -0.387438    1.227185
      9          6           0       -3.029529    1.097051    1.616322
     10          6           0       -4.306947    1.501535    1.039938
     11          6           0       -2.810066    1.291810    3.086781
     12          6           0       -1.857776   -0.788405    0.104030
     13          6           0       -0.504063   -0.463619    0.506483
     14          6           0        0.482157   -0.677206   -0.538904
     15          8           0        0.156162   -1.007675   -1.672129
     16          8           0        1.777820   -0.511333   -0.136931
     17          7           0       -6.997825    2.585838    0.300832
     18          6           0       -5.995075    3.366950    0.760791
     19          6           0       -6.346294    4.804534    0.850028
     20          6           0       -7.727647    4.877371    0.493931
     21          6           0       -8.153232    3.415153    0.076971
     22          6           0       -5.528856    5.892832    1.437011
     23          6           0       -8.534602    6.050149    0.421268
     24          6           0       -8.310424    7.332613    0.176831
     25          7           0       -9.176912    0.700415   -0.555330
     26          6           0       -9.913937    1.829666   -0.736605
     27          6           0      -11.245625    1.527135   -1.107703
     28          6           0      -11.381177    0.060129   -1.139198
     29          6           0       -9.976418   -0.394917   -0.761293
     30          6           0      -12.339003    2.387326   -1.304359
     31          6           0      -12.330599   -0.853425   -1.727680
     32          6           0      -12.486513   -0.874939   -3.200055
     33          7           0       -7.296540   -1.436062   -0.127421
     34          6           0       -8.264774   -2.217863   -0.494056
     35          6           0       -7.772079   -3.542851   -0.509852
     36          6           0       -6.503294   -3.627689   -0.038916
     37          6           0       -6.183983   -2.250506    0.131187
     38          6           0       -8.660257   -4.745909   -0.964793
     39          6           0       -5.382201   -4.417095    0.229411
     40          8           0       -5.330603   -5.631330    0.023346
     41          6           0       -4.200223   -3.400399    0.439411
     42          6           0       -3.563306   -3.772026    1.846738
     43          8           0       -3.775659   -3.265665    2.939162
     44          8           0       -2.736366   -4.818599    1.690677
     45          6           0       -1.992253   -5.183254    2.900396
     46          6           0        2.842060   -0.680906   -1.067678
     47          6           0        4.150295   -0.445587   -0.543134
     48          6           0        5.091112    0.496747   -0.990939
     49          6           0        5.070282    1.287756   -2.225478
     50          6           0        6.393137    0.559627   -0.154321
     51          6           0        7.583519   -0.019630   -0.970206
     52          6           0        8.907333   -0.208822   -0.082239
     53          6           0       10.162158   -0.555583   -0.780321
     54          6           0       10.196514   -2.037592   -1.326638
     55          6           0       11.466909   -0.245432    0.006100
     56          6           0       12.796228   -0.571727   -0.730663
     57          6           0       14.026431   -0.138873    0.064828
     58          6           0       15.361367   -0.281651   -0.600560
     59          6           0       15.769274   -1.712840   -0.845848
     60          6           0       16.443840    0.340158    0.445144
     61          6           0       17.894205    0.356312   -0.130401
     62          6           0       18.689704    1.313579    0.681418
     63          6           0       20.261925    1.393042    0.227135
     64          6           0       20.336037    2.320326   -0.996424
     65          6           0       21.201378    1.975358    1.266586
     66          1           0       -3.930380    3.670767    1.541209
     67          1           0      -10.070586    3.869509   -0.726785
     68          1           0      -10.360375   -2.535243   -1.067650
     69          1           0       -2.588202   -0.873855    2.066450
     70          1           0       -2.092685    1.815639    1.181555
     71          1           0       -1.815804    1.123368    3.365134
     72          1           0       -3.304280    2.199064    3.418912
     73          1           0       -3.490359    0.583266    3.536108
     74          1           0       -1.933276   -1.826964   -0.075152
     75          1           0       -1.928068   -0.126891   -0.996666
     76          1           0       -0.279617    0.589590    0.678061
     77          1           0        0.026481   -1.073256    1.436665
     78          1           0       -4.740387    6.230838    0.729553
     79          1           0       -6.054171    6.744620    1.832457
     80          1           0       -5.108706    5.666845    2.473004
     81          1           0       -9.431296    5.921036    0.796044
     82          1           0       -9.011021    8.154957    0.378349
     83          1           0       -7.278150    7.717875   -0.301092
     84          1           0      -12.204664    2.943625   -2.104231
     85          1           0      -13.427288    1.943817   -1.488427
     86          1           0      -12.524367    3.022622   -0.464118
     87          1           0      -12.384958   -1.904243   -1.120504
     88          1           0      -13.496604   -0.556372   -1.352961
     89          1           0      -13.368802   -1.481702   -3.716068
     90          1           0      -12.732764    0.273188   -3.449291
     91          1           0      -11.499320   -1.331529   -3.549255
     92          1           0       -8.935762   -4.345521   -2.093829
     93          1           0       -8.109718   -5.636114   -1.060255
     94          1           0       -9.449134   -4.910286   -0.041486
     95          1           0       -3.255851   -3.417901   -0.174694
     96          1           0       -1.343363   -4.450181    3.399755
     97          1           0       -2.703843   -5.387107    3.721516
     98          1           0       -1.702700   -5.962765    2.499948
     99          1           0        2.657994   -1.685066   -1.817438
    100          1           0        2.614386   -0.049912   -2.103879
    101          1           0        4.246075   -0.528457    0.564292
    102          1           0        4.062955    1.501602   -2.731742
    103          1           0        5.287628    2.456839   -2.225865
    104          1           0        5.708675    0.884481   -3.026054
    105          1           0        6.488668    1.616115   -0.028470
    106          1           0        6.146996   -0.078137    0.811203
    107          1           0        7.376809   -0.853607   -1.463565
    108          1           0        7.607128    0.722719   -1.934886
    109          1           0        9.113687    0.753890    0.228379
    110          1           0        8.592549   -0.785065    0.683323
    111          1           0       10.347775   -0.099870   -1.684983
    112          1           0        9.446407   -2.366904   -2.029300
    113          1           0       11.199145   -2.297450   -1.562592
    114          1           0       10.111480   -2.797012   -0.496867
    115          1           0       11.504870    0.704650    0.359873
    116          1           0       11.350335   -0.934588    0.810690
    117          1           0       12.627294   -1.564243   -0.987629
    118          1           0       12.836229    0.019121   -1.723678
    119          1           0       13.798769    0.764917    0.527393
    120          1           0       14.176572   -0.630281    1.050467
    121          1           0       15.297431    0.341861   -1.608617
    122          1           0       15.859880   -1.901840    0.285652
    123          1           0       14.949568   -2.280618   -1.336776
    124          1           0       16.708006   -2.003318   -1.469754
    125          1           0       16.366147    1.320119    0.453945
    126          1           0       16.428894   -0.247349    1.376326
    127          1           0       18.626371   -0.611006   -0.336989
    128          1           0       17.746740    0.402475   -1.329273
    129          1           0       18.229203    2.235134    0.688535
    130          1           0       18.703914    0.994808    1.765797
    131          1           0       20.469794    0.389990   -0.135987
    132          1           0       20.043695    3.348131   -0.808376
    133          1           0       21.261329    2.419623   -1.258432
    134          1           0       19.708822    1.884262   -1.836233
    135          1           0       21.305195    1.290282    2.291169
    136          1           0       22.056263    1.876486    1.079280
    137          1           0       20.863551    2.986376    1.524522
 ---------------------------------------------------------------------

 SCF Done:  E(RCAM-B3LYP) =  -2932.48162455     A.U. after   18 cycles

 Excitation energies and oscillator strengths:

 Excited State   1:      Singlet-A      1.9632 eV  631.53 nm  f=0.1923  <S**2>=0.000
     240 -> 243        0.27632
     241 -> 242        0.63835
 This state for optimization and/or second-order correction.
 Total Energy, E(TD-HF/TD-KS) =  -2932.40947699
 Copying the excited state density for this state as the 1-particle RhoCI density.

 The electronic state is 1-A.
 Alpha  occ. eigenvalues --  -46.84918 -19.27030 -19.26490 -19.21064 -19.20898
 Alpha  occ. eigenvalues --  -19.20298 -14.43163 -14.40488 -14.39124 -14.39033
 Alpha  occ. eigenvalues --  -10.39393 -10.39212 -10.35201 -10.33831 -10.31952
 Alpha  occ. eigenvalues --  -10.31853 -10.31009 -10.30573 -10.29872 -10.29842
 Alpha  occ. eigenvalues --  -10.29008 -10.28912 -10.28723 -10.28710 -10.28675
 Alpha  occ. eigenvalues --  -10.28667 -10.28590 -10.28375 -10.28179 -10.28077
 Alpha  occ. eigenvalues --  -10.28017 -10.27909 -10.27852 -10.27610 -10.27476
 Alpha  occ. eigenvalues --  -10.27419 -10.27401 -10.27373 -10.27309 -10.27258
 Alpha  occ. eigenvalues --  -10.27096 -10.26856 -10.26811 -10.26697 -10.26653
 Alpha  occ. eigenvalues --  -10.26614 -10.26574 -10.26254 -10.26193 -10.25966
 Alpha  occ. eigenvalues --  -10.25797 -10.25510 -10.25223 -10.25219 -10.25215
 Alpha  occ. eigenvalues --  -10.24768 -10.24547 -10.24533 -10.24488 -10.24221
 Alpha  occ. eigenvalues --  -10.24154 -10.24010 -10.23926 -10.23692 -10.22812
 Alpha  occ. eigenvalues --   -3.13842  -1.88557  -1.88093  -1.88003  -1.18096
 Alpha  occ. eigenvalues --   -1.18072  -1.10249  -1.09348  -1.08595  -1.05454
 Alpha  occ. eigenvalues --   -1.04699  -1.02271  -1.01342  -0.93401  -0.91559
 Alpha  occ. eigenvalues --   -0.91239  -0.90722  -0.89760  -0.89418  -0.88742
 Alpha  occ. eigenvalues --   -0.88458  -0.88367  -0.88241  -0.86738  -0.86050
 Alpha  occ. eigenvalues --   -0.85401  -0.84529  -0.84177  -0.83812  -0.83485
 Alpha  occ. eigenvalues --   -0.82280  -0.81772  -0.80516  -0.79979  -0.78360
 Alpha  occ. eigenvalues --   -0.77373  -0.76996  -0.76829  -0.76777  -0.75988
 Alpha  occ. eigenvalues --   -0.75449  -0.74962  -0.74776  -0.74506  -0.72172
 Alpha  occ. eigenvalues --   -0.71672  -0.71241  -0.69307  -0.68890  -0.68097
 Alpha  occ. eigenvalues --   -0.67509  -0.66966  -0.65246  -0.65120  -0.64454
 Alpha  occ. eigenvalues --   -0.64377  -0.64103  -0.63992  -0.62706  -0.62359
 Alpha  occ. eigenvalues --   -0.62144  -0.60830  -0.60081  -0.59869  -0.59535
 Alpha  occ. eigenvalues --   -0.58341  -0.57908  -0.57777  -0.57217  -0.56938
 Alpha  occ. eigenvalues --   -0.56407  -0.56046  -0.55483  -0.55080  -0.54885
 Alpha  occ. eigenvalues --   -0.54568  -0.54195  -0.53916  -0.53836  -0.53366
 Alpha  occ. eigenvalues --   -0.53092  -0.52827  -0.52508  -0.52066  -0.51840
 Alpha  occ. eigenvalues --   -0.51604  -0.51408  -0.51245  -0.51081  -0.50855
 Alpha  occ. eigenvalues --   -0.50793  -0.50669  -0.50219  -0.50153  -0.49981
 Alpha  occ. eigenvalues --   -0.49695  -0.49533  -0.49356  -0.49161  -0.48556
 Alpha  occ. eigenvalues --   -0.48332  -0.48125  -0.48122  -0.47915  -0.47171
 Alpha  occ. eigenvalues --   -0.46958  -0.46875  -0.46389  -0.46244  -0.46232
 Alpha  occ. eigenvalues --   -0.45863  -0.45659  -0.45406  -0.45374  -0.45099
 Alpha  occ. eigenvalues --   -0.44991  -0.44859  -0.44668  -0.44491  -0.44455
 Alpha  occ. eigenvalues --   -0.44248  -0.44017  -0.43763  -0.43662  -0.43365
 Alpha  occ. eigenvalues --   -0.43193  -0.43060  -0.42799  -0.42537  -0.42393
 Alpha  occ. eigenvalues --   -0.42263  -0.41802  -0.41689  -0.41546  -0.41519
 Alpha  occ. eigenvalues --   -0.41038  -0.40966  -0.40893  -0.40434  -0.40053
 Alpha  occ. eigenvalues --   -0.39689  -0.39573  -0.38811  -0.38676  -0.38663
 Alpha  occ. eigenvalues --   -0.38451  -0.38428  -0.38318  -0.38140  -0.38094
 Alpha  occ. eigenvalues --   -0.37246  -0.37074  -0.37049  -0.36824  -0.36660
 Alpha  occ. eigenvalues --   -0.36533  -0.36135  -0.35803  -0.35760  -0.35138
 Alpha  occ. eigenvalues --   -0.34961  -0.34761  -0.33740  -0.33740  -0.33470
 Alpha  occ. eigenvalues --   -0.32981  -0.32760  -0.32272  -0.30524  -0.30128
 Alpha  occ. eigenvalues --   -0.29304  -0.28265  -0.27866  -0.26721  -0.23227
 Alpha  occ. eigenvalues --   -0.20391
 Alpha virt. eigenvalues --   -0.05935  -0.04250   0.00316   0.03178   0.03279
 Alpha virt. eigenvalues --    0.05259   0.05939   0.06309   0.06478   0.06780
 Alpha virt. eigenvalues --    0.07223   0.10146   0.10879   0.11542   0.11916

 Mulliken charges:
               1
     1  Mg   0.824124
     2  C    0.085158
     3  C   -0.225599
     4  C   -0.173793
     5  C   -0.177135
     6  N   -0.620490
     7  C    0.310044
     8  C   -0.155357
     9  C   -0.157557
    10  C    0.348375
    11  C   -0.306033
    12  C   -0.151581
    13  C   -0.250997
    14  C    0.617911
    15  O   -0.479498
    16  O   -0.485318
    17  N   -0.718544
    18  C    0.344951
    19  C    0.035459
    20  C   -0.013440
    21  C    0.311474
    22  C   -0.384468
    23  C   -0.071651
    24  C   -0.245537
    25  N   -0.691496
    26  C    0.315457
    27  C    0.013669
    28  C    0.059362
    29  C    0.284219
    30  C   -0.397441
    31  C   -0.264023
    32  C   -0.267865
    33  N   -0.736202
    34  C    0.361014
    35  C   -0.101790
    36  C    0.128219
    37  C    0.215087
    38  C   -0.343459
    39  C    0.362147
    40  O   -0.461627
    41  C   -0.352317
    42  C    0.593577
    43  O   -0.475627
    44  O   -0.460293
    45  C   -0.072099
    46  C    0.028428
    47  C   -0.136182
    48  C    0.110887
    49  C   -0.384797
    50  C   -0.205291
    51  C   -0.188882
    52  C   -0.156688
    53  C   -0.068164
    54  C   -0.343735
    55  C   -0.196908
    56  C   -0.178816
    57  C   -0.154688
    58  C   -0.094936
    59  C   -0.271222
    60  C   -0.169214
    61  C   -0.182354
    62  C   -0.176344
    63  C   -0.076861
    64  C   -0.300745
    65  C   -0.271201
    66  H    0.093118
    67  H    0.094662
    68  H    0.105470
    69  H    0.128283
    70  H    0.078526
    71  H    0.122522
    72  H    0.112396
    73  H    0.123245
    74  H    0.117186
    75  H    0.107910
    76  H    0.142213
    77  H    0.114777
    78  H    0.124177
    79  H    0.131416
    80  H    0.108809
    81  H    0.095398
    82  H    0.110311
    83  H    0.086629
    84  H    0.133409
    85  H    0.101914
    86  H    0.122360
    87  H    0.095361
    88  H    0.060748
    89  H    0.097450
    90  H    0.098044
    91  H    0.106037
    92  H    0.103592
    93  H    0.147836
    94  H    0.111900
    95  H    0.170586
    96  H    0.128509
    97  H    0.133320
    98  H    0.130101
    99  H    0.103938
   100  H    0.095427
   101  H    0.098507
   102  H    0.113172
   103  H    0.107460
   104  H    0.136093
   105  H    0.110329
   106  H    0.082789
   107  H    0.116265
   108  H    0.064862
   109  H    0.102125
   110  H    0.106041
   111  H    0.100987
   112  H    0.109286
   113  H    0.103789
   114  H    0.080905
   115  H    0.093167
   116  H    0.097319
   117  H    0.106708
   118  H    0.076387
   119  H    0.100141
   120  H    0.073704
   121  H    0.059965
   122  H    0.088366
   123  H    0.097031
   124  H    0.100222
   125  H    0.109684
   126  H    0.102450
   127  H    0.060074
   128  H    0.076614
   129  H    0.098212
   130  H    0.089536
   131  H    0.087186
   132  H    0.094299
   133  H    0.107559
   134  H    0.092366
   135  H    0.051211
   136  H    0.112337
   137  H    0.103976
 Sum of Mulliken charges =   0.00000

 Dipole moment (field-independent basis, Debye):
    X=              3.2095    Y=              6.0290    Z=              1.5227  Tot=              6.9978
 Quadrupole moment (field-independent basis, Debye-Ang):
   XX=           -357.6623   YY=           -394.7541   ZZ=           -396.4028
   XY=            -22.2607   XZ=              4.3785   YZ=             -0.2382

 Normal termination of Gaussian 09 at Thu Jun 27 10:17:27 2019.
