 Gaussian 09, Revision D.01,
 Gaussian 09:  ES64L-G09RevD.01 24-Apr-2013

 -------------------------------------
 # td=(NStates=1) CAM-B3LYP/6-31G(d,p)
 -------------------------------------

 --
 TD
 --
 Symbolic Z-matrix:
 Charge =  0 Multiplicity = 1

                         Standard orientation:
 ---------------------------------------------------------------------
 Center     Atomic      Atomic             Coordinates (Angstroms)
 Number     Number       Type             X           Y           Z
 ---------------------------------------------------------------------
      1         12           0       -7.118215    0.596746    0.066787
      2          6           0       -4.872210   -1.939483    0.539531
      3          6           0       -4.818617    2.763772    1.159701
      4          6           0       -9.429377    3.124108   -0.388311
      5          6           0       -9.481191   -1.721594   -0.939298
      6          7           0       -5.121961    0.413449    0.760595
      7          6           0       -4.372855   -0.622519    0.817376
      8          6           0       -2.940091   -0.353082    1.305814
      9          6           0       -2.987726    1.085769    1.782269
     10          6           0       -4.342815    1.545024    1.239343
     11          6           0       -2.921811    1.150018    3.300251
     12          6           0       -1.850153   -0.628846    0.158693
     13          6           0       -0.360132   -0.521495    0.541146
     14          6           0        0.573115   -0.722960   -0.626770
     15          8           0        0.152271   -1.022674   -1.723308
     16          8           0        1.807771   -0.405071   -0.206320
     17          7           0       -7.069006    2.642250    0.334643
     18          6           0       -6.125290    3.350839    0.816415
     19          6           0       -6.381330    4.772754    0.847444
     20          6           0       -7.711663    4.882388    0.420295
     21          6           0       -8.132664    3.488133    0.066821
     22          6           0       -5.510076    5.857895    1.392350
     23          6           0       -8.605787    6.093717    0.196511
     24          6           0       -8.134359    7.303637    0.056723
     25          7           0       -9.152417    0.683423   -0.552659
     26          6           0       -9.928538    1.834804   -0.734259
     27          6           0      -11.192620    1.417978   -1.151758
     28          6           0      -11.232183    0.085287   -1.244420
     29          6           0       -9.955772   -0.358446   -0.829192
     30          6           0      -12.369131    2.397539   -1.280126
     31          6           0      -12.401311   -0.729350   -1.679469
     32          6           0      -12.391489   -1.041449   -3.193562
     33          7           0       -7.279849   -1.418229   -0.105039
     34          6           0       -8.303724   -2.280061   -0.593434
     35          6           0       -7.798089   -3.594629   -0.504425
     36          6           0       -6.497908   -3.544507   -0.137099
     37          6           0       -6.273493   -2.239946    0.120362
     38          6           0       -8.636615   -4.809589   -0.884358
     39          6           0       -5.304974   -4.307074   -0.001880
     40          8           0       -5.127649   -5.569459    0.002178
     41          6           0       -4.139196   -3.260753    0.489867
     42          6           0       -3.524378   -3.671922    1.833301
     43          8           0       -3.711008   -3.137804    2.905287
     44          8           0       -2.748576   -4.817425    1.725100
     45          6           0       -2.237623   -5.418884    2.923800
     46          6           0        2.931587   -0.672248   -1.242172
     47          6           0        4.129538   -0.356241   -0.502691
     48          6           0        5.151108    0.540986   -0.878194
     49          6           0        5.113410    1.448798   -2.037631
     50          6           0        6.417835    0.550778   -0.163197
     51          6           0        7.521697   -0.292643   -0.820453
     52          6           0        8.878251   -0.151622   -0.042610
     53          6           0       10.135354   -0.604046   -0.847856
     54          6           0       10.059182   -2.037879   -1.434622
     55          6           0       11.487149   -0.354307    0.069745
     56          6           0       12.720250   -0.526078   -0.614133
     57          6           0       13.905032   -0.123011    0.228542
     58          6           0       15.264009   -0.278672   -0.576687
     59          6           0       15.598903   -1.693133   -0.936428
     60          6           0       16.437720    0.317007    0.332187
     61          6           0       17.827733    0.538255   -0.312836
     62          6           0       18.781588    1.392072    0.674180
     63          6           0       20.248084    1.364631    0.250452
     64          6           0       20.321282    2.150364   -1.145014
     65          6           0       21.184539    1.989805    1.254205
     66          1           0       -3.976736    3.514803    1.516558
     67          1           0       -9.981018    3.912725   -0.297678
     68          1           0      -10.377602   -2.567236   -1.252772
     69          1           0       -2.819614   -1.004860    2.163689
     70          1           0       -2.255310    1.889911    1.446822
     71          1           0       -2.001269    1.027408    3.682084
     72          1           0       -3.211468    2.228343    3.781816
     73          1           0       -3.529800    0.580381    3.829416
     74          1           0       -1.846569   -1.557602   -0.398905
     75          1           0       -1.766513    0.180802   -0.612917
     76          1           0       -0.314194    0.360602    1.065096
     77          1           0       -0.247830   -1.270177    1.318517
     78          1           0       -4.864420    6.402582    0.628865
     79          1           0       -6.149267    6.580210    1.949304
     80          1           0       -4.731836    5.451819    2.222923
     81          1           0       -9.677076    5.844460    0.332605
     82          1           0       -8.931560    7.889784   -0.145592
     83          1           0       -7.127566    7.616603   -0.119933
     84          1           0      -12.338398    2.959463   -2.147712
     85          1           0      -13.275855    1.686422   -1.374686
     86          1           0      -12.486457    3.072975   -0.381169
     87          1           0      -12.439264   -1.563464   -1.173194
     88          1           0      -13.184303   -0.000233   -1.552295
     89          1           0      -13.410098   -1.889924   -3.270878
     90          1           0      -12.215124   -0.035498   -3.752035
     91          1           0      -11.305304   -1.569031   -3.450812
     92          1           0       -8.884963   -4.582472   -1.849049
     93          1           0       -7.974451   -5.570758   -0.880882
     94          1           0       -9.639160   -4.896891   -0.396659
     95          1           0       -3.408645   -3.355145   -0.398157
     96          1           0       -1.881660   -4.514813    3.698067
     97          1           0       -3.015489   -5.999962    3.405144
     98          1           0       -1.594972   -6.175577    2.625433
     99          1           0        2.950928   -1.767530   -1.557997
    100          1           0        2.707206   -0.110705   -2.283920
    101          1           0        4.352564   -1.013324    0.372497
    102          1           0        4.226878    1.393060   -2.639736
    103          1           0        5.242367    2.502785   -1.661088
    104          1           0        5.968698    1.229111   -2.780015
    105          1           0        6.973905    1.545097   -0.049853
    106          1           0        6.109769    0.006153    0.748489
    107          1           0        7.061888   -1.416620   -0.857759
    108          1           0        7.769845   -0.048199   -1.941293
    109          1           0        8.971714    1.007126    0.221417
    110          1           0        8.782007   -0.901285    0.754334
    111          1           0       10.380387    0.193178   -1.578528
    112          1           0        9.284672   -2.004178   -2.232750
    113          1           0       11.144982   -2.186315   -1.839706
    114          1           0       10.058356   -2.810072   -0.625399
    115          1           0       11.256730    0.529666    0.728517
    116          1           0       11.497694   -1.099695    0.791155
    117          1           0       12.798189   -1.540466   -1.042959
    118          1           0       12.619891   -0.036386   -1.596997
    119          1           0       13.806731    0.870716    0.783734
    120          1           0       13.904396   -1.102139    0.869158
    121          1           0       15.099356    0.442453   -1.425793
    122          1           0       15.565746   -2.368806    0.259321
    123          1           0       15.175185   -2.277963   -1.700565
    124          1           0       16.603477   -1.652152   -1.177176
    125          1           0       16.213662    1.383776    0.670436
    126          1           0       16.764854   -0.377287    1.123509
    127          1           0       18.309282   -0.615743   -0.222771
    128          1           0       17.708389    0.797272   -1.431584
    129          1           0       18.382543    2.437252    1.005466
    130          1           0       18.418655    0.788940    1.799763
    131          1           0       20.764603    0.477581   -0.028513
    132          1           0       20.052803    3.303467   -0.894220
    133          1           0       21.506054    2.315641   -1.531084
    134          1           0       19.825914    1.517862   -1.826188
    135          1           0       21.338063    1.476781    2.284238
    136          1           0       22.220451    2.106734    0.810834
    137          1           0       20.710655    3.031472    1.557645
 ---------------------------------------------------------------------

 SCF Done:  E(RCAM-B3LYP) =  -2932.59868332     A.U. after   17 cycles

 Excitation energies and oscillator strengths:

 Excited State   1:      Singlet-A      2.0839 eV  594.96 nm  f=0.2256  <S**2>=0.000
     240 -> 243        0.24868
     241 -> 242        0.64561
 This state for optimization and/or second-order correction.
 Total Energy, E(TD-HF/TD-KS) =  -2932.52210111
 Copying the excited state density for this state as the 1-particle RhoCI density.

 The electronic state is 1-A.
 Alpha  occ. eigenvalues --  -46.85027 -19.26670 -19.24766 -19.21026 -19.20821
 Alpha  occ. eigenvalues --  -19.20568 -14.40609 -14.40038 -14.39079 -14.38550
 Alpha  occ. eigenvalues --  -10.39104 -10.39012 -10.35802 -10.33998 -10.30810
 Alpha  occ. eigenvalues --  -10.30518 -10.30113 -10.29734 -10.29327 -10.29311
 Alpha  occ. eigenvalues --  -10.29126 -10.29014 -10.28950 -10.28909 -10.28728
 Alpha  occ. eigenvalues --  -10.28657 -10.28528 -10.28422 -10.28242 -10.27964
 Alpha  occ. eigenvalues --  -10.27915 -10.27805 -10.27797 -10.27621 -10.27601
 Alpha  occ. eigenvalues --  -10.27588 -10.27579 -10.27209 -10.27036 -10.27031
 Alpha  occ. eigenvalues --  -10.26805 -10.26732 -10.26634 -10.26568 -10.26501
 Alpha  occ. eigenvalues --  -10.26482 -10.26313 -10.26270 -10.26165 -10.26076
 Alpha  occ. eigenvalues --  -10.26005 -10.25831 -10.25830 -10.25804 -10.25631
 Alpha  occ. eigenvalues --  -10.25149 -10.25128 -10.25017 -10.24943 -10.24771
 Alpha  occ. eigenvalues --  -10.24527 -10.24388 -10.24344 -10.24341 -10.23992
 Alpha  occ. eigenvalues --   -3.13878  -1.88603  -1.88099  -1.88055  -1.16838
 Alpha  occ. eigenvalues --   -1.16239  -1.09175  -1.08157  -1.07955  -1.05486
 Alpha  occ. eigenvalues --   -1.04983  -1.03623  -1.03045  -0.92032  -0.91513
 Alpha  occ. eigenvalues --   -0.90740  -0.89726  -0.89455  -0.89022  -0.88995
 Alpha  occ. eigenvalues --   -0.88436  -0.87834  -0.87812  -0.87422  -0.86219
 Alpha  occ. eigenvalues --   -0.85353  -0.84532  -0.83939  -0.83414  -0.82962
 Alpha  occ. eigenvalues --   -0.81542  -0.80903  -0.80360  -0.79609  -0.78566
 Alpha  occ. eigenvalues --   -0.78009  -0.76537  -0.76237  -0.75437  -0.75122
 Alpha  occ. eigenvalues --   -0.75099  -0.74367  -0.73199  -0.72941  -0.72517
 Alpha  occ. eigenvalues --   -0.71553  -0.69993  -0.68714  -0.68443  -0.67841
 Alpha  occ. eigenvalues --   -0.67449  -0.65874  -0.65331  -0.64752  -0.64312
 Alpha  occ. eigenvalues --   -0.63112  -0.62632  -0.62470  -0.62233  -0.61577
 Alpha  occ. eigenvalues --   -0.61498  -0.60404  -0.60062  -0.59913  -0.59472
 Alpha  occ. eigenvalues --   -0.58781  -0.58059  -0.57556  -0.56977  -0.56555
 Alpha  occ. eigenvalues --   -0.56105  -0.55888  -0.55172  -0.54967  -0.54919
 Alpha  occ. eigenvalues --   -0.54235  -0.53647  -0.53421  -0.53340  -0.53091
 Alpha  occ. eigenvalues --   -0.52986  -0.52686  -0.52562  -0.51675  -0.51379
 Alpha  occ. eigenvalues --   -0.51332  -0.51297  -0.50836  -0.50594  -0.50523
 Alpha  occ. eigenvalues --   -0.50438  -0.50115  -0.49815  -0.49732  -0.49444
 Alpha  occ. eigenvalues --   -0.49355  -0.49091  -0.48911  -0.48793  -0.48611
 Alpha  occ. eigenvalues --   -0.48261  -0.47814  -0.47605  -0.47372  -0.47287
 Alpha  occ. eigenvalues --   -0.46925  -0.46661  -0.46551  -0.46097  -0.45783
 Alpha  occ. eigenvalues --   -0.45704  -0.45559  -0.45367  -0.45033  -0.44887
 Alpha  occ. eigenvalues --   -0.44660  -0.44513  -0.44325  -0.44234  -0.43739
 Alpha  occ. eigenvalues --   -0.43283  -0.43123  -0.42939  -0.42858  -0.42716
 Alpha  occ. eigenvalues --   -0.42575  -0.42483  -0.42100  -0.42034  -0.41865
 Alpha  occ. eigenvalues --   -0.41815  -0.41723  -0.41370  -0.41157  -0.41149
 Alpha  occ. eigenvalues --   -0.41051  -0.40361  -0.40305  -0.40232  -0.40105
 Alpha  occ. eigenvalues --   -0.39927  -0.39710  -0.39434  -0.39182  -0.38908
 Alpha  occ. eigenvalues --   -0.38746  -0.38630  -0.37956  -0.37874  -0.37432
 Alpha  occ. eigenvalues --   -0.37389  -0.37294  -0.37047  -0.36727  -0.36607
 Alpha  occ. eigenvalues --   -0.36363  -0.36196  -0.35931  -0.35720  -0.35706
 Alpha  occ. eigenvalues --   -0.34636  -0.34568  -0.34495  -0.34005  -0.33711
 Alpha  occ. eigenvalues --   -0.33272  -0.33091  -0.32415  -0.30854  -0.30242
 Alpha  occ. eigenvalues --   -0.29751  -0.29046  -0.28464  -0.28016  -0.22755
 Alpha  occ. eigenvalues --   -0.21423
 Alpha virt. eigenvalues --   -0.06503  -0.03070   0.02173   0.03693   0.04403
 Alpha virt. eigenvalues --    0.05649   0.05938   0.06870   0.07014   0.07695
 Alpha virt. eigenvalues --    0.08976   0.09937   0.10479   0.11164   0.11440

 Mulliken charges:
               1
     1  Mg   0.826835
     2  C    0.005405
     3  C   -0.231778
     4  C   -0.095632
     5  C   -0.212527
     6  N   -0.643227
     7  C    0.368874
     8  C   -0.166536
     9  C   -0.139465
    10  C    0.332584
    11  C   -0.309275
    12  C   -0.185449
    13  C   -0.288081
    14  C    0.632186
    15  O   -0.474314
    16  O   -0.477908
    17  N   -0.675415
    18  C    0.329417
    19  C    0.026230
    20  C   -0.009045
    21  C    0.228931
    22  C   -0.382938
    23  C   -0.078258
    24  C   -0.219911
    25  N   -0.674631
    26  C    0.265496
    27  C    0.008704
    28  C    0.010266
    29  C    0.287410
    30  C   -0.361612
    31  C   -0.197182
    32  C   -0.278123
    33  N   -0.746345
    34  C    0.315564
    35  C   -0.033771
    36  C    0.115457
    37  C    0.314784
    38  C   -0.355430
    39  C    0.317692
    40  O   -0.475618
    41  C   -0.326978
    42  C    0.639273
    43  O   -0.466928
    44  O   -0.469454
    45  C   -0.075023
    46  C   -0.017441
    47  C   -0.129456
    48  C    0.140119
    49  C   -0.362797
    50  C   -0.222731
    51  C   -0.176696
    52  C   -0.157201
    53  C   -0.079348
    54  C   -0.308090
    55  C   -0.179801
    56  C   -0.183660
    57  C   -0.161230
    58  C   -0.057805
    59  C   -0.289050
    60  C   -0.177877
    61  C   -0.185491
    62  C   -0.139788
    63  C   -0.057142
    64  C   -0.292909
    65  C   -0.294451
    66  H    0.065789
    67  H    0.051767
    68  H    0.074348
    69  H    0.143913
    70  H    0.109855
    71  H    0.122006
    72  H    0.072477
    73  H    0.138187
    74  H    0.124790
    75  H    0.108315
    76  H    0.130998
    77  H    0.127552
    78  H    0.117629
    79  H    0.128221
    80  H    0.098860
    81  H    0.103587
    82  H    0.098504
    83  H    0.117983
    84  H    0.132017
    85  H    0.096531
    86  H    0.114891
    87  H    0.107835
    88  H    0.100264
    89  H    0.075991
    90  H    0.110694
    91  H    0.083095
    92  H    0.138172
    93  H    0.148088
    94  H    0.127557
    95  H    0.157299
    96  H    0.112214
    97  H    0.126119
    98  H    0.129537
    99  H    0.135855
   100  H    0.128943
   101  H    0.096338
   102  H    0.110665
   103  H    0.120008
   104  H    0.114091
   105  H    0.094498
   106  H    0.107681
   107  H    0.075169
   108  H    0.079740
   109  H    0.079078
   110  H    0.102294
   111  H    0.083887
   112  H    0.115442
   113  H    0.089282
   114  H    0.109368
   115  H    0.082536
   116  H    0.092913
   117  H    0.097931
   118  H    0.072453
   119  H    0.093808
   120  H    0.082903
   121  H    0.086994
   122  H    0.042123
   123  H    0.115428
   124  H    0.119430
   125  H    0.084066
   126  H    0.103451
   127  H    0.065697
   128  H    0.091425
   129  H    0.095773
   130  H    0.041880
   131  H    0.105947
   132  H    0.091021
   133  H    0.064233
   134  H    0.124495
   135  H    0.094019
   136  H    0.096406
   137  H    0.076235
 Sum of Mulliken charges =   0.00000

 Dipole moment (field-independent basis, Debye):
    X=              3.0226    Y=              4.5241    Z=             -0.2172  Tot=              5.4452
 Quadrupole moment (field-independent basis, Debye-Ang):
   XX=           -338.3997   YY=           -391.9244   ZZ=           -400.9792
   XY=            -26.7790   XZ=             -2.3762   YZ=             -1.4703

 Normal termination of Gaussian 09 at Sun Jun 30 08:47:10 2019.
