 Gaussian 09, Revision D.01,
 Gaussian 09:  ES64L-G09RevD.01 24-Apr-2013

 -------------------------------------
 # td=(NStates=1) CAM-B3LYP/6-31G(d,p)
 -------------------------------------

 --
 TD
 --
 Symbolic Z-matrix:
 Charge =  0 Multiplicity = 1

                         Standard orientation:
 ---------------------------------------------------------------------
 Center     Atomic      Atomic             Coordinates (Angstroms)
 Number     Number       Type             X           Y           Z
 ---------------------------------------------------------------------
      1         12           0       -7.168150    0.640748    0.153788
      2          6           0       -4.860430   -1.868117    0.463406
      3          6           0       -4.907757    2.699271    1.368852
      4          6           0       -9.467105    3.132591   -0.374311
      5          6           0       -9.591322   -1.758504   -0.932933
      6          7           0       -5.054416    0.390071    0.680742
      7          6           0       -4.389850   -0.754225    0.795929
      8          6           0       -2.945926   -0.424900    1.241312
      9          6           0       -3.097131    0.944291    1.689074
     10          6           0       -4.418358    1.430460    1.222051
     11          6           0       -2.858661    1.218259    3.249436
     12          6           0       -1.960073   -0.572597    0.055574
     13          6           0       -0.482222   -0.369474    0.433852
     14          6           0        0.498616   -0.613052   -0.692498
     15          8           0        0.256376   -0.861678   -1.818532
     16          8           0        1.795638   -0.466011   -0.111539
     17          7           0       -7.115288    2.574878    0.472137
     18          6           0       -6.160800    3.305610    0.824713
     19          6           0       -6.452623    4.729243    0.818703
     20          6           0       -7.760421    4.820719    0.367066
     21          6           0       -8.173137    3.456553    0.069383
     22          6           0       -5.661005    5.916356    1.314225
     23          6           0       -8.495570    5.992483    0.240961
     24          6           0       -8.097722    7.358966    0.009843
     25          7           0       -9.157229    0.644797   -0.439396
     26          6           0       -9.902456    1.800297   -0.623366
     27          6           0      -11.224998    1.503570   -1.089589
     28          6           0      -11.275504    0.197510   -1.268865
     29          6           0       -9.962376   -0.404548   -0.871553
     30          6           0      -12.361364    2.548128   -1.261328
     31          6           0      -12.468878   -0.647479   -1.659453
     32          6           0      -12.571815   -1.035558   -3.151112
     33          7           0       -7.232225   -1.365209   -0.206890
     34          6           0       -8.334296   -2.177982   -0.657213
     35          6           0       -7.858775   -3.590097   -0.611049
     36          6           0       -6.562817   -3.488258   -0.196117
     37          6           0       -6.275809   -2.146890   -0.036331
     38          6           0       -8.538429   -4.838474   -0.992365
     39          6           0       -5.355641   -4.318818    0.127109
     40          8           0       -5.074402   -5.500309    0.083263
     41          6           0       -4.288444   -3.231331    0.600670
     42          6           0       -3.656655   -3.663321    1.916737
     43          8           0       -3.904126   -3.164317    2.994576
     44          8           0       -2.792541   -4.708617    1.706123
     45          6           0       -2.358014   -5.329961    2.912876
     46          6           0        2.806228   -0.728580   -1.104714
     47          6           0        4.234216   -0.601916   -0.486498
     48          6           0        5.206101    0.156090   -0.868340
     49          6           0        5.111682    1.126578   -2.073247
     50          6           0        6.518692    0.200039   -0.090137
     51          6           0        7.728370   -0.287203   -0.895308
     52          6           0        8.938932   -0.236853    0.003296
     53          6           0       10.287405   -0.611149   -0.837501
     54          6           0       10.126271   -2.009950   -1.317985
     55          6           0       11.548379   -0.458973    0.041149
     56          6           0       12.965743   -0.487182   -0.821939
     57          6           0       14.029183   -0.171489    0.054825
     58          6           0       15.457205   -0.127748   -0.520658
     59          6           0       15.832807   -1.558961   -0.944827
     60          6           0       16.409983    0.520570    0.323634
     61          6           0       17.910130    0.544587   -0.300531
     62          6           0       18.909069    1.214957    0.746155
     63          6           0       20.331485    1.369991    0.170516
     64          6           0       20.415570    2.270043   -1.049921
     65          6           0       21.304990    2.014072    1.349010
     66          1           0       -4.107814    3.438883    1.666830
     67          1           0      -10.227431    3.817496   -0.848352
     68          1           0      -10.432958   -2.475966   -1.198923
     69          1           0       -2.601145   -0.995907    2.062620
     70          1           0       -2.245977    1.599245    1.309955
     71          1           0       -1.921164    0.715661    3.587043
     72          1           0       -2.887965    2.220538    3.530578
     73          1           0       -3.681406    0.513964    3.832916
     74          1           0       -2.276134   -1.564165   -0.341295
     75          1           0       -2.351793   -0.008345   -0.795009
     76          1           0       -0.410867    0.760106    0.695945
     77          1           0       -0.239519   -1.103608    1.397229
     78          1           0       -4.894831    6.545796    0.688321
     79          1           0       -6.469477    6.622724    1.817764
     80          1           0       -4.873054    5.586082    2.188381
     81          1           0       -9.482607    5.936659    0.419562
     82          1           0       -8.931581    8.190179    0.013275
     83          1           0       -6.922160    7.480116   -0.261404
     84          1           0      -12.471854    3.002845   -2.357983
     85          1           0      -13.461937    2.126632   -1.089493
     86          1           0      -12.340799    3.373289   -0.547647
     87          1           0      -12.618947   -1.628690   -1.140895
     88          1           0      -13.320934   -0.019175   -1.462423
     89          1           0      -13.458636   -1.697626   -3.251352
     90          1           0      -12.515978   -0.128253   -3.768962
     91          1           0      -11.644836   -1.659928   -3.367492
     92          1           0       -9.307934   -4.586946   -1.940167
     93          1           0       -7.864240   -5.752944   -1.315428
     94          1           0       -9.331471   -5.056878   -0.305969
     95          1           0       -3.415995   -3.338913   -0.153942
     96          1           0       -1.710452   -4.639220    3.603773
     97          1           0       -3.294297   -5.714577    3.687892
     98          1           0       -1.765464   -6.054401    2.627322
     99          1           0        2.482214   -1.730791   -1.610757
    100          1           0        2.771113    0.071970   -1.787164
    101          1           0        4.576677   -1.228098    0.353298
    102          1           0        4.107632    1.365970   -2.519509
    103          1           0        5.483037    2.205715   -1.798092
    104          1           0        5.790665    0.728812   -2.711240
    105          1           0        6.774874    1.128702    0.224680
    106          1           0        6.368222   -0.407020    0.836140
    107          1           0        7.406366   -1.272781   -1.181719
    108          1           0        7.984134    0.380922   -1.777985
    109          1           0        9.057452    0.752498    0.303130
    110          1           0        8.793105   -0.916613    0.935792
    111          1           0       10.157232    0.264658   -1.691038
    112          1           0        9.160396   -2.269006   -2.028395
    113          1           0       10.915425   -2.477566   -1.929833
    114          1           0        9.907464   -2.564920   -0.326182
    115          1           0       11.391352    0.595012    0.687009
    116          1           0       11.598445   -1.354786    0.742883
    117          1           0       12.805902   -1.586745   -1.109081
    118          1           0       12.931627    0.160732   -1.670128
    119          1           0       13.943496    0.900422    0.359773
    120          1           0       13.937843   -0.746884    0.928409
    121          1           0       15.368654    0.503273   -1.384360
    122          1           0       16.149742   -1.988478    0.013492
    123          1           0       14.910933   -1.878983   -1.537003
    124          1           0       16.736939   -1.571654   -1.653658
    125          1           0       16.257058    1.611896    0.681630
    126          1           0       16.439502    0.040639    1.439562
    127          1           0       18.277599   -0.375581   -0.443049
    128          1           0       17.935953    1.199857   -1.266317
    129          1           0       18.375280    2.216695    1.116255
    130          1           0       19.043748    0.714349    1.731579
    131          1           0       20.731848    0.429677   -0.069475
    132          1           0       20.140564    3.302302   -0.700583
    133          1           0       21.307844    2.318280   -1.435666
    134          1           0       19.812626    2.174339   -1.933170
    135          1           0       21.080706    1.341035    2.166506
    136          1           0       22.466179    1.778623    1.220725
    137          1           0       21.018097    3.139717    1.534138
 ---------------------------------------------------------------------

 SCF Done:  E(RCAM-B3LYP) =  -2932.69347918     A.U. after   15 cycles

 Excitation energies and oscillator strengths:

 Excited State   1:      Singlet-A      2.0970 eV  591.24 nm  f=0.2675  <S**2>=0.000
     240 -> 243       -0.20083
     241 -> 242        0.66514
 This state for optimization and/or second-order correction.
 Total Energy, E(TD-HF/TD-KS) =  -2932.61641451
 Copying the excited state density for this state as the 1-particle RhoCI density.

 The electronic state is 1-A.
 Alpha  occ. eigenvalues --  -46.84907 -19.26424 -19.24901 -19.22619 -19.21036
 Alpha  occ. eigenvalues --  -19.20917 -14.40517 -14.40212 -14.40133 -14.39451
 Alpha  occ. eigenvalues --  -10.39518 -10.39073 -10.35899 -10.31594 -10.31455
 Alpha  occ. eigenvalues --  -10.30825 -10.30539 -10.29787 -10.29725 -10.29702
 Alpha  occ. eigenvalues --  -10.29643 -10.29139 -10.29093 -10.29029 -10.29027
 Alpha  occ. eigenvalues --  -10.28966 -10.28671 -10.28601 -10.28567 -10.28406
 Alpha  occ. eigenvalues --  -10.28233 -10.28008 -10.27714 -10.27634 -10.27378
 Alpha  occ. eigenvalues --  -10.27178 -10.27122 -10.26621 -10.26492 -10.26414
 Alpha  occ. eigenvalues --  -10.26338 -10.26325 -10.26278 -10.26251 -10.26219
 Alpha  occ. eigenvalues --  -10.26188 -10.26176 -10.26071 -10.25951 -10.25828
 Alpha  occ. eigenvalues --  -10.25806 -10.25801 -10.25498 -10.25449 -10.25414
 Alpha  occ. eigenvalues --  -10.25369 -10.25112 -10.25074 -10.25052 -10.24997
 Alpha  occ. eigenvalues --  -10.24941 -10.24939 -10.24427 -10.23577 -10.22558
 Alpha  occ. eigenvalues --   -3.13977  -1.88687  -1.88219  -1.88154  -1.17619
 Alpha  occ. eigenvalues --   -1.17486  -1.11377  -1.09960  -1.09133  -1.06464
 Alpha  occ. eigenvalues --   -1.06131  -1.04672  -1.02355  -0.92212  -0.91503
 Alpha  occ. eigenvalues --   -0.91120  -0.90642  -0.89932  -0.89213  -0.88784
 Alpha  occ. eigenvalues --   -0.88493  -0.88294  -0.87763  -0.86990  -0.85447
 Alpha  occ. eigenvalues --   -0.84937  -0.83945  -0.83442  -0.82873  -0.82211
 Alpha  occ. eigenvalues --   -0.81048  -0.80516  -0.79932  -0.79458  -0.78132
 Alpha  occ. eigenvalues --   -0.77181  -0.76465  -0.76033  -0.75848  -0.75645
 Alpha  occ. eigenvalues --   -0.74930  -0.74238  -0.73589  -0.73056  -0.72839
 Alpha  occ. eigenvalues --   -0.70974  -0.70105  -0.69108  -0.68868  -0.68575
 Alpha  occ. eigenvalues --   -0.67636  -0.66536  -0.65024  -0.64690  -0.64589
 Alpha  occ. eigenvalues --   -0.64219  -0.63181  -0.62461  -0.62146  -0.61463
 Alpha  occ. eigenvalues --   -0.61122  -0.60559  -0.60114  -0.59937  -0.59289
 Alpha  occ. eigenvalues --   -0.58860  -0.58172  -0.57620  -0.56994  -0.56348
 Alpha  occ. eigenvalues --   -0.55931  -0.55651  -0.55314  -0.55196  -0.54996
 Alpha  occ. eigenvalues --   -0.54429  -0.53939  -0.53588  -0.53526  -0.53334
 Alpha  occ. eigenvalues --   -0.52730  -0.52653  -0.52258  -0.51886  -0.51481
 Alpha  occ. eigenvalues --   -0.51350  -0.51296  -0.51067  -0.50853  -0.50348
 Alpha  occ. eigenvalues --   -0.50033  -0.49946  -0.49891  -0.49511  -0.49227
 Alpha  occ. eigenvalues --   -0.49070  -0.48876  -0.48632  -0.48493  -0.48391
 Alpha  occ. eigenvalues --   -0.48123  -0.48008  -0.47478  -0.47297  -0.47035
 Alpha  occ. eigenvalues --   -0.46813  -0.46423  -0.45867  -0.45814  -0.45420
 Alpha  occ. eigenvalues --   -0.45381  -0.45177  -0.45093  -0.44997  -0.44893
 Alpha  occ. eigenvalues --   -0.44587  -0.44455  -0.44338  -0.43960  -0.43860
 Alpha  occ. eigenvalues --   -0.43612  -0.43543  -0.43273  -0.43123  -0.42920
 Alpha  occ. eigenvalues --   -0.42630  -0.42494  -0.42334  -0.42230  -0.42146
 Alpha  occ. eigenvalues --   -0.41950  -0.41898  -0.41814  -0.41610  -0.41423
 Alpha  occ. eigenvalues --   -0.41222  -0.41112  -0.40983  -0.40923  -0.40418
 Alpha  occ. eigenvalues --   -0.40284  -0.40077  -0.39783  -0.39529  -0.39364
 Alpha  occ. eigenvalues --   -0.38925  -0.38835  -0.38408  -0.38166  -0.37965
 Alpha  occ. eigenvalues --   -0.37860  -0.37484  -0.37160  -0.36999  -0.36934
 Alpha  occ. eigenvalues --   -0.36698  -0.35982  -0.35862  -0.35495  -0.35488
 Alpha  occ. eigenvalues --   -0.35324  -0.35172  -0.34751  -0.34483  -0.33610
 Alpha  occ. eigenvalues --   -0.33214  -0.32059  -0.31965  -0.31052  -0.30489
 Alpha  occ. eigenvalues --   -0.30412  -0.30238  -0.29281  -0.27663  -0.23121
 Alpha  occ. eigenvalues --   -0.21724
 Alpha virt. eigenvalues --   -0.06808  -0.02806   0.02621   0.02882   0.05777
 Alpha virt. eigenvalues --    0.05985   0.06293   0.06438   0.07204   0.07901
 Alpha virt. eigenvalues --    0.08874   0.10308   0.11127   0.11619   0.11788

 Mulliken charges:
               1
     1  Mg   0.830080
     2  C    0.092468
     3  C   -0.238264
     4  C   -0.164981
     5  C   -0.155800
     6  N   -0.679466
     7  C    0.297153
     8  C   -0.129762
     9  C   -0.166457
    10  C    0.419135
    11  C   -0.307045
    12  C   -0.175361
    13  C   -0.256569
    14  C    0.622168
    15  O   -0.432230
    16  O   -0.510430
    17  N   -0.687630
    18  C    0.333316
    19  C    0.030608
    20  C    0.063134
    21  C    0.254875
    22  C   -0.389539
    23  C   -0.114193
    24  C   -0.250663
    25  N   -0.691671
    26  C    0.265844
    27  C    0.055226
    28  C    0.017976
    29  C    0.253179
    30  C   -0.384116
    31  C   -0.250227
    32  C   -0.301366
    33  N   -0.703418
    34  C    0.231518
    35  C    0.041178
    36  C    0.001452
    37  C    0.332991
    38  C   -0.385695
    39  C    0.390368
    40  O   -0.451884
    41  C   -0.352729
    42  C    0.628775
    43  O   -0.471267
    44  O   -0.446092
    45  C   -0.060222
    46  C    0.037666
    47  C   -0.154886
    48  C    0.130844
    49  C   -0.366483
    50  C   -0.229128
    51  C   -0.173787
    52  C   -0.178164
    53  C   -0.047511
    54  C   -0.294794
    55  C   -0.177851
    56  C   -0.179099
    57  C   -0.152784
    58  C   -0.054567
    59  C   -0.301785
    60  C   -0.175641
    61  C   -0.176244
    62  C   -0.171166
    63  C   -0.067695
    64  C   -0.299895
    65  C   -0.314015
    66  H    0.065566
    67  H    0.115803
    68  H    0.111951
    69  H    0.117318
    70  H    0.092785
    71  H    0.105183
    72  H    0.121040
    73  H    0.095159
    74  H    0.103532
    75  H    0.119129
    76  H    0.137790
    77  H    0.126676
    78  H    0.116409
    79  H    0.126387
    80  H    0.089891
    81  H    0.093047
    82  H    0.116935
    83  H    0.112819
    84  H    0.109879
    85  H    0.107564
    86  H    0.125342
    87  H    0.099017
    88  H    0.102863
    89  H    0.104923
    90  H    0.112409
    91  H    0.094880
    92  H    0.088580
    93  H    0.151564
    94  H    0.144723
    95  H    0.152149
    96  H    0.106414
    97  H    0.101155
    98  H    0.129556
    99  H    0.116940
   100  H    0.110981
   101  H    0.073495
   102  H    0.115781
   103  H    0.094029
   104  H    0.136785
   105  H    0.109296
   106  H    0.094581
   107  H    0.107971
   108  H    0.089735
   109  H    0.099517
   110  H    0.078323
   111  H    0.056480
   112  H    0.082171
   113  H    0.106700
   114  H    0.095262
   115  H    0.060942
   116  H    0.091484
   117  H    0.095902
   118  H    0.098337
   119  H    0.086145
   120  H    0.090628
   121  H    0.082358
   122  H    0.105451
   123  H    0.100417
   124  H    0.090798
   125  H    0.083361
   126  H    0.057387
   127  H    0.111670
   128  H    0.091378
   129  H    0.064893
   130  H    0.087013
   131  H    0.095729
   132  H    0.086853
   133  H    0.109858
   134  H    0.093977
   135  H    0.104262
   136  H    0.085646
   137  H    0.101643
 Sum of Mulliken charges =   0.00000

 Dipole moment (field-independent basis, Debye):
    X=             -0.6782    Y=              3.8104    Z=             -0.5580  Tot=              3.9103
 Quadrupole moment (field-independent basis, Debye-Ang):
   XX=           -325.0659   YY=           -388.6618   ZZ=           -404.0692
   XY=            -21.8673   XZ=              9.8020   YZ=             -3.6713

 Normal termination of Gaussian 09 at Thu Jun 27 11:49:48 2019.
