 Gaussian 09, Revision D.01,
 Gaussian 09:  ES64L-G09RevD.01 24-Apr-2013

 -------------------------------------
 # td=(NStates=1) CAM-B3LYP/6-31G(d,p)
 -------------------------------------

 --
 TD
 --
 Symbolic Z-matrix:
 Charge =  0 Multiplicity = 1

                         Standard orientation:
 ---------------------------------------------------------------------
 Center     Atomic      Atomic             Coordinates (Angstroms)
 Number     Number       Type             X           Y           Z
 ---------------------------------------------------------------------
      1         12           0       -7.168427    0.486968    0.173427
      2          6           0       -4.785484   -1.938183    0.519253
      3          6           0       -4.803148    2.875796    1.221663
      4          6           0       -9.354827    3.028047   -0.282455
      5          6           0       -9.443523   -1.773515   -0.924102
      6          7           0       -5.122519    0.428144    0.698667
      7          6           0       -4.381537   -0.695558    0.873299
      8          6           0       -2.940849   -0.350250    1.263041
      9          6           0       -3.038045    1.041351    1.810895
     10          6           0       -4.435628    1.526914    1.226803
     11          6           0       -3.029043    1.207774    3.339784
     12          6           0       -1.800284   -0.600567    0.146067
     13          6           0       -0.473286   -0.225367    0.579175
     14          6           0        0.558958   -0.505452   -0.533377
     15          8           0        0.142662   -0.898712   -1.591942
     16          8           0        1.764301   -0.227623   -0.212855
     17          7           0       -7.028846    2.552353    0.366094
     18          6           0       -6.006484    3.290215    0.833089
     19          6           0       -6.428844    4.689459    0.828805
     20          6           0       -7.724828    4.839342    0.466089
     21          6           0       -8.155035    3.493018    0.198171
     22          6           0       -5.568891    5.850661    1.438926
     23          6           0       -8.490729    5.992159    0.343995
     24          6           0       -8.183750    7.171865    0.017105
     25          7           0       -9.054563    0.680257   -0.609962
     26          6           0       -9.875399    1.764441   -0.587291
     27          6           0      -11.143451    1.495604   -1.101723
     28          6           0      -11.150412    0.079698   -1.270775
     29          6           0       -9.913449   -0.443383   -0.923119
     30          6           0      -12.250049    2.442302   -1.408705
     31          6           0      -12.307723   -0.741659   -1.743412
     32          6           0      -12.258882   -0.973323   -3.324458
     33          7           0       -7.125545   -1.440816   -0.044522
     34          6           0       -8.204872   -2.196974   -0.525736
     35          6           0       -7.759750   -3.663799   -0.411402
     36          6           0       -6.506972   -3.651387   -0.114478
     37          6           0       -6.179371   -2.254810    0.086960
     38          6           0       -8.563909   -4.820941   -0.868033
     39          6           0       -5.239572   -4.476087    0.117482
     40          8           0       -5.157761   -5.670580    0.129083
     41          6           0       -4.215281   -3.355945    0.499755
     42          6           0       -3.613580   -3.738995    1.817949
     43          8           0       -3.821047   -3.182660    2.910045
     44          8           0       -2.725404   -4.799302    1.653830
     45          6           0       -2.142267   -5.385022    2.944236
     46          6           0        2.805293   -0.501891   -1.316128
     47          6           0        4.015799   -0.285140   -0.584268
     48          6           0        5.156776    0.371628   -1.055121
     49          6           0        5.110016    1.314859   -2.270516
     50          6           0        6.456630    0.477055   -0.230147
     51          6           0        7.576180   -0.071500   -1.123174
     52          6           0        8.981323    0.018659   -0.236701
     53          6           0       10.152313   -0.393937   -1.059925
     54          6           0       10.058040   -1.861795   -1.623191
     55          6           0       11.357736   -0.159200   -0.063811
     56          6           0       12.736479   -0.346007   -0.806949
     57          6           0       13.895367   -0.103389    0.212567
     58          6           0       15.363870   -0.288294   -0.474402
     59          6           0       15.623023   -1.871467   -0.830520
     60          6           0       16.317843    0.278028    0.344976
     61          6           0       17.877052    0.415393   -0.226795
     62          6           0       18.733768    1.043654    0.877650
     63          6           0       20.239418    1.235447    0.331957
     64          6           0       20.287785    2.130656   -0.915712
     65          6           0       21.055897    1.884593    1.459476
     66          1           0       -4.091225    3.562937    1.570477
     67          1           0      -10.128137    3.840994   -0.329581
     68          1           0      -10.353324   -2.465622   -1.326226
     69          1           0       -2.660619   -0.913458    2.018761
     70          1           0       -2.437847    1.761250    1.449340
     71          1           0       -1.983626    0.796657    3.536689
     72          1           0       -2.891643    2.264181    3.606342
     73          1           0       -3.828834    0.721345    3.710807
     74          1           0       -1.936074   -1.739220   -0.025067
     75          1           0       -2.071532   -0.072015   -0.655832
     76          1           0       -0.431132    0.941290    0.819459
     77          1           0       -0.278514   -0.794286    1.690326
     78          1           0       -4.897690    5.983650    0.501580
     79          1           0       -6.342574    6.783206    1.729057
     80          1           0       -5.068904    5.500667    2.462602
     81          1           0       -9.572716    5.976972    0.381979
     82          1           0       -8.940360    8.000866    0.027141
     83          1           0       -7.167383    7.238360   -0.152704
     84          1           0      -12.203482    3.159053   -2.163397
     85          1           0      -13.144377    1.935859   -1.791427
     86          1           0      -12.555970    2.850479   -0.296377
     87          1           0      -12.128547   -1.680350   -1.229826
     88          1           0      -13.240835   -0.332195   -1.690924
     89          1           0      -13.163913   -1.525546   -3.416925
     90          1           0      -12.536080    0.122881   -3.753325
     91          1           0      -11.501329   -1.551267   -3.630834
     92          1           0       -9.118224   -4.524460   -1.778945
     93          1           0       -7.967969   -5.822710   -0.940904
     94          1           0       -9.499213   -4.972537   -0.288683
     95          1           0       -3.362885   -3.349028   -0.044347
     96          1           0       -1.607453   -4.560069    3.308735
     97          1           0       -3.018343   -5.622199    3.525700
     98          1           0       -1.561507   -6.249143    2.743039
     99          1           0        2.653987   -1.513445   -1.576164
    100          1           0        2.642050    0.211863   -2.185890
    101          1           0        4.158846   -0.844604    0.226609
    102          1           0        4.175163    1.354830   -2.763691
    103          1           0        5.460180    2.366452   -1.981946
    104          1           0        5.895314    0.923534   -3.029836
    105          1           0        6.657443    1.602763    0.057620
    106          1           0        6.240378   -0.013232    0.667440
    107          1           0        7.244811   -1.005655   -1.203007
    108          1           0        7.525611    0.743938   -2.049599
    109          1           0        9.167357    1.097451    0.155011
    110          1           0        8.859217   -0.511129    0.837357
    111          1           0       10.306103    0.367109   -1.936364
    112          1           0        9.281105   -1.955272   -2.425791
    113          1           0       11.010737   -2.150887   -1.977088
    114          1           0       10.021483   -2.469422   -0.773211
    115          1           0       11.427307    0.964614    0.211495
    116          1           0       11.238152   -0.846382    0.863176
    117          1           0       12.620570   -1.439063   -1.094323
    118          1           0       13.035217    0.277129   -1.796789
    119          1           0       13.897931    0.865593    0.643849
    120          1           0       13.756517   -0.953416    1.005527
    121          1           0       15.456688    0.133216   -1.387822
    122          1           0       15.799570   -2.479681    0.004981
    123          1           0       14.743279   -1.880782   -1.658845
    124          1           0       16.401710   -1.920610   -1.386282
    125          1           0       15.966194    1.322048    0.503609
    126          1           0       16.483574   -0.409536    1.279496
    127          1           0       18.190202   -0.656614   -0.500016
    128          1           0       17.876758    1.037171   -1.084642
    129          1           0       18.357234    2.056121    1.116026
    130          1           0       18.544950    0.458011    1.782993
    131          1           0       20.650149    0.238191    0.108117
    132          1           0       20.005620    3.040987   -0.792921
    133          1           0       21.358142    2.078056   -1.278040
    134          1           0       19.718046    1.734510   -1.597040
    135          1           0       20.804354    1.192059    2.331036
    136          1           0       22.125474    2.111636    1.287921
    137          1           0       20.711797    2.745058    1.995531
 ---------------------------------------------------------------------

 SCF Done:  E(RCAM-B3LYP) =  -2932.59154138     A.U. after   16 cycles

 Excitation energies and oscillator strengths:

 Excited State   1:      Singlet-A      2.2822 eV  543.26 nm  f=0.1679  <S**2>=0.000
     240 -> 243        0.28066
     241 -> 242        0.63478
 This state for optimization and/or second-order correction.
 Total Energy, E(TD-HF/TD-KS) =  -2932.50767185
 Copying the excited state density for this state as the 1-particle RhoCI density.

 The electronic state is 1-A.
 Alpha  occ. eigenvalues --  -46.82873 -19.26709 -19.25398 -19.22356 -19.20757
 Alpha  occ. eigenvalues --  -19.19555 -14.40589 -14.39960 -14.38392 -14.37466
 Alpha  occ. eigenvalues --  -10.39312 -10.38257 -10.37034 -10.32890 -10.30984
 Alpha  occ. eigenvalues --  -10.30714 -10.30181 -10.29437 -10.29238 -10.28928
 Alpha  occ. eigenvalues --  -10.28800 -10.28755 -10.28603 -10.28557 -10.28510
 Alpha  occ. eigenvalues --  -10.28283 -10.28228 -10.27488 -10.27147 -10.26977
 Alpha  occ. eigenvalues --  -10.26962 -10.26955 -10.26853 -10.26849 -10.26722
 Alpha  occ. eigenvalues --  -10.26698 -10.26518 -10.26382 -10.26236 -10.26227
 Alpha  occ. eigenvalues --  -10.26020 -10.25902 -10.25885 -10.25846 -10.25652
 Alpha  occ. eigenvalues --  -10.25626 -10.25453 -10.25360 -10.25268 -10.25144
 Alpha  occ. eigenvalues --  -10.25027 -10.24932 -10.24916 -10.24888 -10.24853
 Alpha  occ. eigenvalues --  -10.24728 -10.24620 -10.24579 -10.24499 -10.24363
 Alpha  occ. eigenvalues --  -10.24315 -10.24028 -10.23895 -10.23611 -10.21909
 Alpha  occ. eigenvalues --   -3.12094  -1.86789  -1.86346  -1.86276  -1.19283
 Alpha  occ. eigenvalues --   -1.14946  -1.13360  -1.09217  -1.06743  -1.06343
 Alpha  occ. eigenvalues --   -1.02585  -1.01406  -1.00377  -0.92162  -0.91484
 Alpha  occ. eigenvalues --   -0.90818  -0.90313  -0.89854  -0.89279  -0.89145
 Alpha  occ. eigenvalues --   -0.88104  -0.88023  -0.87245  -0.86746  -0.86431
 Alpha  occ. eigenvalues --   -0.85202  -0.83810  -0.83291  -0.82903  -0.82431
 Alpha  occ. eigenvalues --   -0.80963  -0.80803  -0.80586  -0.79964  -0.78211
 Alpha  occ. eigenvalues --   -0.77725  -0.77025  -0.76962  -0.76514  -0.75913
 Alpha  occ. eigenvalues --   -0.75871  -0.74824  -0.74172  -0.72540  -0.71877
 Alpha  occ. eigenvalues --   -0.71302  -0.69737  -0.69348  -0.68462  -0.68056
 Alpha  occ. eigenvalues --   -0.67118  -0.66747  -0.65300  -0.64646  -0.63918
 Alpha  occ. eigenvalues --   -0.63426  -0.63279  -0.63214  -0.62785  -0.61820
 Alpha  occ. eigenvalues --   -0.61001  -0.60647  -0.60471  -0.60001  -0.59323
 Alpha  occ. eigenvalues --   -0.58563  -0.58140  -0.57282  -0.57159  -0.56932
 Alpha  occ. eigenvalues --   -0.56165  -0.55692  -0.55078  -0.54807  -0.54575
 Alpha  occ. eigenvalues --   -0.54492  -0.53977  -0.53754  -0.53643  -0.53344
 Alpha  occ. eigenvalues --   -0.53197  -0.52884  -0.52350  -0.52066  -0.51776
 Alpha  occ. eigenvalues --   -0.51568  -0.51486  -0.50940  -0.50739  -0.50717
 Alpha  occ. eigenvalues --   -0.50551  -0.50426  -0.49947  -0.49778  -0.49561
 Alpha  occ. eigenvalues --   -0.49479  -0.49097  -0.48860  -0.48838  -0.48540
 Alpha  occ. eigenvalues --   -0.48010  -0.47810  -0.47637  -0.47417  -0.46960
 Alpha  occ. eigenvalues --   -0.46946  -0.46880  -0.46774  -0.46277  -0.46073
 Alpha  occ. eigenvalues --   -0.45547  -0.45535  -0.45263  -0.45205  -0.45046
 Alpha  occ. eigenvalues --   -0.44825  -0.44698  -0.44525  -0.44510  -0.44328
 Alpha  occ. eigenvalues --   -0.44031  -0.43959  -0.43856  -0.43338  -0.43124
 Alpha  occ. eigenvalues --   -0.42883  -0.42629  -0.42610  -0.42250  -0.42063
 Alpha  occ. eigenvalues --   -0.41854  -0.41558  -0.41479  -0.41078  -0.40946
 Alpha  occ. eigenvalues --   -0.40874  -0.40538  -0.40413  -0.40132  -0.39921
 Alpha  occ. eigenvalues --   -0.39587  -0.39559  -0.39271  -0.39127  -0.39080
 Alpha  occ. eigenvalues --   -0.39001  -0.38510  -0.38374  -0.38357  -0.37881
 Alpha  occ. eigenvalues --   -0.37366  -0.37294  -0.37010  -0.36963  -0.36767
 Alpha  occ. eigenvalues --   -0.36647  -0.36411  -0.35917  -0.35865  -0.35466
 Alpha  occ. eigenvalues --   -0.35060  -0.34667  -0.34149  -0.33288  -0.33125
 Alpha  occ. eigenvalues --   -0.32632  -0.31957  -0.31448  -0.31403  -0.31153
 Alpha  occ. eigenvalues --   -0.29933  -0.29494  -0.27237  -0.25749  -0.23111
 Alpha  occ. eigenvalues --   -0.20869
 Alpha virt. eigenvalues --   -0.04648  -0.02711   0.01948   0.04028   0.05231
 Alpha virt. eigenvalues --    0.06252   0.06522   0.07365   0.07888   0.07971
 Alpha virt. eigenvalues --    0.09149   0.10393   0.11100   0.11359   0.11782

 Mulliken charges:
               1
     1  Mg   0.818131
     2  C    0.078066
     3  C   -0.215835
     4  C   -0.191233
     5  C   -0.175857
     6  N   -0.653793
     7  C    0.310900
     8  C   -0.137245
     9  C   -0.160006
    10  C    0.315525
    11  C   -0.289065
    12  C   -0.122056
    13  C   -0.272885
    14  C    0.621620
    15  O   -0.484893
    16  O   -0.462788
    17  N   -0.708038
    18  C    0.416619
    19  C   -0.088686
    20  C    0.127831
    21  C    0.236442
    22  C   -0.345585
    23  C   -0.073517
    24  C   -0.242466
    25  N   -0.698196
    26  C    0.292929
    27  C    0.037956
    28  C    0.014180
    29  C    0.265503
    30  C   -0.369534
    31  C   -0.250428
    32  C   -0.304117
    33  N   -0.704637
    34  C    0.250514
    35  C   -0.014026
    36  C    0.052954
    37  C    0.254463
    38  C   -0.394849
    39  C    0.424413
    40  O   -0.423069
    41  C   -0.327733
    42  C    0.612749
    43  O   -0.487433
    44  O   -0.502974
    45  C   -0.079427
    46  C   -0.006704
    47  C   -0.104740
    48  C    0.081859
    49  C   -0.358403
    50  C   -0.221085
    51  C   -0.167162
    52  C   -0.164343
    53  C   -0.048981
    54  C   -0.320338
    55  C   -0.187203
    56  C   -0.181756
    57  C   -0.164054
    58  C   -0.062131
    59  C   -0.320679
    60  C   -0.162008
    61  C   -0.200604
    62  C   -0.172916
    63  C   -0.061834
    64  C   -0.298359
    65  C   -0.314362
    66  H    0.077435
    67  H    0.076607
    68  H    0.095068
    69  H    0.110510
    70  H    0.099930
    71  H    0.098153
    72  H    0.107400
    73  H    0.134716
    74  H    0.099374
    75  H    0.127569
    76  H    0.114113
    77  H    0.091236
    78  H    0.125230
    79  H    0.105983
    80  H    0.108292
    81  H    0.084661
    82  H    0.104572
    83  H    0.090565
    84  H    0.130100
    85  H    0.102280
    86  H    0.097884
    87  H    0.093901
    88  H    0.109604
    89  H    0.105650
    90  H    0.092990
    91  H    0.118697
    92  H    0.126711
    93  H    0.140911
    94  H    0.123930
    95  H    0.171338
    96  H    0.143098
    97  H    0.146546
    98  H    0.137672
    99  H    0.153400
   100  H    0.133302
   101  H    0.088442
   102  H    0.111222
   103  H    0.117492
   104  H    0.111120
   105  H    0.089685
   106  H    0.105007
   107  H    0.120206
   108  H    0.087465
   109  H    0.084985
   110  H    0.073011
   111  H    0.078420
   112  H    0.111361
   113  H    0.109943
   114  H    0.108570
   115  H    0.087557
   116  H    0.090700
   117  H    0.095582
   118  H    0.075214
   119  H    0.094225
   120  H    0.081525
   121  H    0.084927
   122  H    0.105678
   123  H    0.086455
   124  H    0.113966
   125  H    0.079074
   126  H    0.069353
   127  H    0.082757
   128  H    0.098138
   129  H    0.090160
   130  H    0.092723
   131  H    0.091179
   132  H    0.111934
   133  H    0.088755
   134  H    0.107090
   135  H    0.082944
   136  H    0.095444
   137  H    0.103636
 Sum of Mulliken charges =   0.00000

 Dipole moment (field-independent basis, Debye):
    X=              3.9924    Y=              2.3539    Z=              0.4574  Tot=              4.6572
 Quadrupole moment (field-independent basis, Debye-Ang):
   XX=           -358.2871   YY=           -387.1930   ZZ=           -397.2188
   XY=             -7.9049   XZ=              0.1467   YZ=             -4.0446

 Normal termination of Gaussian 09 at Sat Jun 29 16:56:28 2019.
