 Gaussian 09, Revision D.01,
 Gaussian 09:  ES64L-G09RevD.01 24-Apr-2013

 -------------------------------------
 # td=(NStates=1) CAM-B3LYP/6-31G(d,p)
 -------------------------------------

 --
 TD
 --
 Symbolic Z-matrix:
 Charge =  0 Multiplicity = 1

                         Standard orientation:
 ---------------------------------------------------------------------
 Center     Atomic      Atomic             Coordinates (Angstroms)
 Number     Number       Type             X           Y           Z
 ---------------------------------------------------------------------
      1         12           0       -7.068773    0.646468   -0.065370
      2          6           0       -4.896229   -1.914338    0.485463
      3          6           0       -4.868969    2.732518    1.227447
      4          6           0       -9.406026    3.249235   -0.391614
      5          6           0       -9.533981   -1.606994   -1.024441
      6          7           0       -5.125257    0.416056    0.636256
      7          6           0       -4.408077   -0.720366    0.768968
      8          6           0       -2.998761   -0.450813    1.354385
      9          6           0       -3.042544    1.041893    1.799709
     10          6           0       -4.393686    1.384561    1.206922
     11          6           0       -3.007318    1.232702    3.288808
     12          6           0       -1.964589   -0.653034    0.198078
     13          6           0       -0.471276   -0.641770    0.681714
     14          6           0        0.519443   -0.697225   -0.516337
     15          8           0        0.160332   -0.841720   -1.655215
     16          8           0        1.774731   -0.642225   -0.090999
     17          7           0       -7.049833    2.634103    0.301671
     18          6           0       -6.018066    3.301701    0.703149
     19          6           0       -6.353185    4.685410    0.869870
     20          6           0       -7.671518    4.856438    0.439195
     21          6           0       -8.148469    3.471328    0.155938
     22          6           0       -5.413314    5.766311    1.276950
     23          6           0       -8.571715    5.990887    0.424803
     24          6           0       -8.224883    7.279430    0.173660
     25          7           0       -8.981079    0.789910   -0.554475
     26          6           0       -9.802985    1.853845   -0.633642
     27          6           0      -11.260085    1.556462   -1.016410
     28          6           0      -11.189549    0.197058   -1.221171
     29          6           0       -9.850755   -0.283098   -0.912515
     30          6           0      -12.316996    2.544379   -1.344004
     31          6           0      -12.375037   -0.620782   -1.656573
     32          6           0      -12.223808   -1.002749   -3.215521
     33          7           0       -7.261017   -1.377962   -0.331384
     34          6           0       -8.353763   -2.166924   -0.667400
     35          6           0       -7.876000   -3.556541   -0.623989
     36          6           0       -6.549641   -3.494758   -0.221289
     37          6           0       -6.302202   -2.197392    0.065460
     38          6           0       -8.730749   -4.758968   -0.979752
     39          6           0       -5.462354   -4.412464    0.154900
     40          8           0       -5.308583   -5.631935    0.176635
     41          6           0       -4.258912   -3.359801    0.561488
     42          6           0       -3.695750   -3.719558    1.857200
     43          8           0       -3.940939   -3.222032    2.914290
     44          8           0       -2.779949   -4.773285    1.687193
     45          6           0       -2.215414   -5.141266    2.959853
     46          6           0        2.896862   -0.807853   -1.014503
     47          6           0        4.058647   -0.482695   -0.395951
     48          6           0        5.071996    0.223545   -0.991434
     49          6           0        5.139873    0.856299   -2.282744
     50          6           0        6.470510    0.356979   -0.208972
     51          6           0        7.671647   -0.202353   -0.947021
     52          6           0        9.018710   -0.171767   -0.059211
     53          6           0       10.245225   -0.574457   -0.840245
     54          6           0       10.067111   -2.005384   -1.428186
     55          6           0       11.494134   -0.451910    0.082287
     56          6           0       12.870594   -0.611697   -0.566833
     57          6           0       14.032876   -0.128664    0.247152
     58          6           0       15.351137   -0.141769   -0.483182
     59          6           0       15.822343   -1.515265   -1.045097
     60          6           0       16.458293    0.508941    0.374127
     61          6           0       17.785109    0.622098   -0.294152
     62          6           0       18.840012    1.356827    0.679063
     63          6           0       20.323302    1.420147    0.071336
     64          6           0       20.362115    2.494521   -1.028574
     65          6           0       21.178469    1.850640    1.331960
     66          1           0       -4.158612    3.369721    1.481416
     67          1           0       -9.970729    4.230001   -0.547375
     68          1           0      -10.386719   -2.260284   -1.177462
     69          1           0       -2.790165   -1.161611    1.971768
     70          1           0       -2.457469    1.740770    1.276919
     71          1           0       -2.173288    1.001099    3.860772
     72          1           0       -2.925014    2.369045    3.508913
     73          1           0       -3.791171    0.686651    3.701588
     74          1           0       -2.090628   -1.694502   -0.194442
     75          1           0       -2.135303    0.085983   -0.692745
     76          1           0       -0.220706    0.182049    1.350890
     77          1           0       -0.226237   -1.257278    1.482111
     78          1           0       -4.793522    6.111410    0.317598
     79          1           0       -5.875479    6.655067    1.815329
     80          1           0       -4.572157    5.386556    1.715132
     81          1           0       -9.730138    6.001756    0.631152
     82          1           0       -9.066738    8.142385    0.365839
     83          1           0       -7.192596    7.620244   -0.259364
     84          1           0      -12.355824    3.096770   -2.355014
     85          1           0      -13.387997    2.039769   -1.286404
     86          1           0      -12.386974    3.382611   -0.473126
     87          1           0      -12.516057   -1.493445   -0.998801
     88          1           0      -13.294461   -0.176813   -1.382455
     89          1           0      -13.338148   -1.295093   -3.521557
     90          1           0      -11.882062   -0.089643   -3.798666
     91          1           0      -11.426864   -1.766202   -3.215024
     92          1           0       -9.257501   -4.720252   -1.992958
     93          1           0       -8.277216   -5.653194   -0.910454
     94          1           0       -9.462130   -4.631626   -0.270117
     95          1           0       -3.526322   -3.598607   -0.130543
     96          1           0       -1.636848   -4.120859    3.340578
     97          1           0       -2.997499   -5.560053    3.548417
     98          1           0       -1.433782   -5.898220    2.675495
     99          1           0        2.857209   -1.868345   -1.376236
    100          1           0        2.671848   -0.260640   -2.007957
    101          1           0        4.272253   -0.930746    0.606149
    102          1           0        3.949275    0.947943   -2.411046
    103          1           0        5.705773    1.879734   -2.286007
    104          1           0        5.469000    0.255504   -3.073552
    105          1           0        6.521950    1.453866    0.149648
    106          1           0        6.435012   -0.138853    0.787470
    107          1           0        7.478222   -1.229555   -1.156587
    108          1           0        8.015400    0.487695   -1.710774
    109          1           0        9.049036    0.906607    0.212339
    110          1           0        8.859836   -0.769214    0.929067
    111          1           0       10.504925    0.242566   -1.637726
    112          1           0        9.323165   -2.144694   -2.130293
    113          1           0       11.010188   -2.176171   -1.971418
    114          1           0        9.769413   -2.870643   -0.646330
    115          1           0       11.402363    0.642862    0.385329
    116          1           0       11.308288   -1.102071    1.010000
    117          1           0       13.075464   -1.641727   -0.788994
    118          1           0       13.085306   -0.222086   -1.489368
    119          1           0       13.944771    0.974804    0.477951
    120          1           0       13.850270   -0.671387    1.252653
    121          1           0       15.200099    0.500612   -1.450521
    122          1           0       16.200651   -2.101899   -0.061885
    123          1           0       14.898130   -2.208211   -1.547585
    124          1           0       16.690379   -1.567604   -1.774969
    125          1           0       16.168447    1.449346    0.744050
    126          1           0       16.511001   -0.263183    1.202727
    127          1           0       18.242752   -0.487579   -0.584486
    128          1           0       17.524882    1.055360   -1.395448
    129          1           0       18.374591    2.265393    0.918446
    130          1           0       18.997249    0.576068    1.566266
    131          1           0       20.595733    0.287851    0.016629
    132          1           0       20.096698    3.459370   -0.784992
    133          1           0       21.422731    2.638577   -1.252966
    134          1           0       19.709340    2.063603   -1.761252
    135          1           0       20.977930    1.011245    2.017803
    136          1           0       22.259009    1.894156    0.819745
    137          1           0       20.877813    2.785421    1.956715
 ---------------------------------------------------------------------

 SCF Done:  E(RCAM-B3LYP) =  -2932.69846103     A.U. after   17 cycles

 Excitation energies and oscillator strengths:

 Excited State   1:      Singlet-A      2.1907 eV  565.95 nm  f=0.2219  <S**2>=0.000
     240 -> 242        0.13416
     240 -> 243       -0.22038
     241 -> 242        0.64358
 This state for optimization and/or second-order correction.
 Total Energy, E(TD-HF/TD-KS) =  -2932.61795363
 Copying the excited state density for this state as the 1-particle RhoCI density.

 The electronic state is 1-A.
 Alpha  occ. eigenvalues --  -46.83677 -19.25903 -19.24542 -19.20709 -19.20700
 Alpha  occ. eigenvalues --  -19.20316 -14.41554 -14.40428 -14.38870 -14.38679
 Alpha  occ. eigenvalues --  -10.38957 -10.37964 -10.35672 -10.32093 -10.31443
 Alpha  occ. eigenvalues --  -10.31271 -10.30775 -10.29583 -10.29545 -10.29108
 Alpha  occ. eigenvalues --  -10.28558 -10.28539 -10.28482 -10.28448 -10.28336
 Alpha  occ. eigenvalues --  -10.27987 -10.27811 -10.27706 -10.27577 -10.27516
 Alpha  occ. eigenvalues --  -10.27428 -10.27396 -10.27312 -10.27298 -10.27297
 Alpha  occ. eigenvalues --  -10.27286 -10.27190 -10.27161 -10.27070 -10.27015
 Alpha  occ. eigenvalues --  -10.26992 -10.26932 -10.26731 -10.26642 -10.26615
 Alpha  occ. eigenvalues --  -10.26511 -10.26447 -10.26373 -10.26283 -10.26242
 Alpha  occ. eigenvalues --  -10.26193 -10.26170 -10.26091 -10.25942 -10.25855
 Alpha  occ. eigenvalues --  -10.25640 -10.25439 -10.25430 -10.25218 -10.24707
 Alpha  occ. eigenvalues --  -10.24408 -10.24136 -10.23981 -10.23961 -10.23698
 Alpha  occ. eigenvalues --   -3.12952  -1.87643  -1.87223  -1.87118  -1.18068
 Alpha  occ. eigenvalues --   -1.16694  -1.10113  -1.09324  -1.08702  -1.05566
 Alpha  occ. eigenvalues --   -1.04581  -1.03963  -1.02213  -0.92007  -0.91496
 Alpha  occ. eigenvalues --   -0.90970  -0.90215  -0.89413  -0.89249  -0.88971
 Alpha  occ. eigenvalues --   -0.88185  -0.87855  -0.87533  -0.86748  -0.86362
 Alpha  occ. eigenvalues --   -0.85447  -0.84518  -0.83477  -0.83232  -0.82295
 Alpha  occ. eigenvalues --   -0.81803  -0.80957  -0.80545  -0.79516  -0.78925
 Alpha  occ. eigenvalues --   -0.77661  -0.76456  -0.76188  -0.75685  -0.75520
 Alpha  occ. eigenvalues --   -0.74849  -0.74345  -0.73627  -0.73257  -0.72267
 Alpha  occ. eigenvalues --   -0.71641  -0.70157  -0.69841  -0.69060  -0.67971
 Alpha  occ. eigenvalues --   -0.67047  -0.66290  -0.65835  -0.64281  -0.63894
 Alpha  occ. eigenvalues --   -0.63805  -0.63695  -0.62405  -0.62252  -0.61037
 Alpha  occ. eigenvalues --   -0.61002  -0.60762  -0.59926  -0.59454  -0.58985
 Alpha  occ. eigenvalues --   -0.58608  -0.58082  -0.57428  -0.56929  -0.56619
 Alpha  occ. eigenvalues --   -0.56392  -0.55977  -0.55406  -0.55099  -0.54791
 Alpha  occ. eigenvalues --   -0.54610  -0.54329  -0.53589  -0.53253  -0.53061
 Alpha  occ. eigenvalues --   -0.52633  -0.52351  -0.52117  -0.51808  -0.51597
 Alpha  occ. eigenvalues --   -0.51360  -0.51230  -0.50950  -0.50836  -0.50582
 Alpha  occ. eigenvalues --   -0.50330  -0.49971  -0.49834  -0.49451  -0.49296
 Alpha  occ. eigenvalues --   -0.49252  -0.49069  -0.48987  -0.48526  -0.48252
 Alpha  occ. eigenvalues --   -0.48169  -0.47761  -0.47520  -0.47452  -0.47135
 Alpha  occ. eigenvalues --   -0.46765  -0.46658  -0.46432  -0.46201  -0.45998
 Alpha  occ. eigenvalues --   -0.45733  -0.45590  -0.45438  -0.45206  -0.45144
 Alpha  occ. eigenvalues --   -0.44830  -0.44575  -0.44367  -0.44276  -0.44142
 Alpha  occ. eigenvalues --   -0.43952  -0.43923  -0.43611  -0.43290  -0.42941
 Alpha  occ. eigenvalues --   -0.42903  -0.42763  -0.42515  -0.42425  -0.42144
 Alpha  occ. eigenvalues --   -0.42091  -0.42051  -0.41811  -0.41735  -0.41670
 Alpha  occ. eigenvalues --   -0.40898  -0.40770  -0.40498  -0.40312  -0.40242
 Alpha  occ. eigenvalues --   -0.40019  -0.39875  -0.39710  -0.39486  -0.39431
 Alpha  occ. eigenvalues --   -0.39060  -0.38592  -0.38518  -0.38121  -0.37637
 Alpha  occ. eigenvalues --   -0.37617  -0.37243  -0.37016  -0.36838  -0.36515
 Alpha  occ. eigenvalues --   -0.35902  -0.35716  -0.35650  -0.35605  -0.35369
 Alpha  occ. eigenvalues --   -0.35053  -0.34883  -0.34491  -0.33661  -0.33453
 Alpha  occ. eigenvalues --   -0.33273  -0.32986  -0.32133  -0.30778  -0.29740
 Alpha  occ. eigenvalues --   -0.29655  -0.29283  -0.28373  -0.27417  -0.23085
 Alpha  occ. eigenvalues --   -0.21288
 Alpha virt. eigenvalues --   -0.05956  -0.02481   0.02254   0.03875   0.04916
 Alpha virt. eigenvalues --    0.05701   0.06565   0.07041   0.07420   0.07694
 Alpha virt. eigenvalues --    0.09052   0.10589   0.10670   0.10932   0.11644

 Mulliken charges:
               1
     1  Mg   0.822971
     2  C    0.019334
     3  C   -0.174435
     4  C   -0.172864
     5  C   -0.181783
     6  N   -0.627531
     7  C    0.297993
     8  C   -0.122681
     9  C   -0.125552
    10  C    0.308821
    11  C   -0.297721
    12  C   -0.174262
    13  C   -0.287155
    14  C    0.616610
    15  O   -0.471985
    16  O   -0.478945
    17  N   -0.712040
    18  C    0.359088
    19  C    0.015883
    20  C    0.018043
    21  C    0.288950
    22  C   -0.373656
    23  C   -0.108110
    24  C   -0.243595
    25  N   -0.669350
    26  C    0.262897
    27  C    0.046457
    28  C    0.032346
    29  C    0.290192
    30  C   -0.376581
    31  C   -0.257897
    32  C   -0.299517
    33  N   -0.697757
    34  C    0.269449
    35  C   -0.030076
    36  C    0.005203
    37  C    0.295378
    38  C   -0.356753
    39  C    0.381499
    40  O   -0.461281
    41  C   -0.318889
    42  C    0.634026
    43  O   -0.469871
    44  O   -0.486012
    45  C   -0.063779
    46  C   -0.007162
    47  C   -0.100244
    48  C    0.100128
    49  C   -0.353163
    50  C   -0.232691
    51  C   -0.172173
    52  C   -0.181740
    53  C   -0.056681
    54  C   -0.311446
    55  C   -0.166214
    56  C   -0.182397
    57  C   -0.158648
    58  C   -0.068522
    59  C   -0.295484
    60  C   -0.149288
    61  C   -0.176603
    62  C   -0.165467
    63  C   -0.074636
    64  C   -0.302501
    65  C   -0.290916
    66  H    0.045092
    67  H    0.110118
    68  H    0.099462
    69  H    0.102892
    70  H    0.123484
    71  H    0.120107
    72  H    0.091815
    73  H    0.135492
    74  H    0.117121
    75  H    0.112018
    76  H    0.119074
    77  H    0.134079
    78  H    0.101793
    79  H    0.128465
    80  H    0.122353
    81  H    0.106852
    82  H    0.089444
    83  H    0.108370
    84  H    0.125318
    85  H    0.102664
    86  H    0.097831
    87  H    0.102738
    88  H    0.106536
    89  H    0.095914
    90  H    0.117269
    91  H    0.119531
    92  H    0.110038
    93  H    0.144538
    94  H    0.134958
    95  H    0.165184
    96  H    0.096048
    97  H    0.141990
    98  H    0.117552
    99  H    0.128153
   100  H    0.125268
   101  H    0.101400
   102  H    0.090764
   103  H    0.113287
   104  H    0.145315
   105  H    0.089472
   106  H    0.088448
   107  H    0.110388
   108  H    0.101305
   109  H    0.086501
   110  H    0.078035
   111  H    0.076668
   112  H    0.116333
   113  H    0.102554
   114  H    0.082752
   115  H    0.082860
   116  H    0.085617
   117  H    0.101426
   118  H    0.092342
   119  H    0.082187
   120  H    0.079407
   121  H    0.069603
   122  H    0.077896
   123  H    0.072349
   124  H    0.110816
   125  H    0.095676
   126  H    0.088160
   127  H    0.063244
   128  H    0.067594
   129  H    0.101484
   130  H    0.075039
   131  H    0.095727
   132  H    0.118050
   133  H    0.095518
   134  H    0.115112
   135  H    0.095606
   136  H    0.078954
   137  H    0.093335
 Sum of Mulliken charges =   0.00000

 Dipole moment (field-independent basis, Debye):
    X=              2.1368    Y=              5.5147    Z=              0.1634  Tot=              5.9164
 Quadrupole moment (field-independent basis, Debye-Ang):
   XX=           -337.0997   YY=           -396.7074   ZZ=           -400.0228
   XY=            -22.3077   XZ=              6.2102   YZ=             -0.5553

 Normal termination of Gaussian 09 at Sun Jun 30 12:20:47 2019.
