 Gaussian 09, Revision D.01,
 Gaussian 09:  ES64L-G09RevD.01 24-Apr-2013

 -------------------------------------
 # td=(NStates=1) CAM-B3LYP/6-31G(d,p)
 -------------------------------------

 --
 TD
 --
 Symbolic Z-matrix:
 Charge =  0 Multiplicity = 1

                         Standard orientation:
 ---------------------------------------------------------------------
 Center     Atomic      Atomic             Coordinates (Angstroms)
 Number     Number       Type             X           Y           Z
 ---------------------------------------------------------------------
      1         12           0       -7.159118    0.561243    0.035488
      2          6           0       -4.781762   -1.964567    0.385849
      3          6           0       -4.763813    2.834651    1.058067
      4          6           0       -9.373121    3.100398   -0.360394
      5          6           0       -9.551369   -1.789099   -0.826986
      6          7           0       -5.160182    0.475897    0.664582
      7          6           0       -4.288706   -0.712273    0.709564
      8          6           0       -2.838901   -0.395894    1.184741
      9          6           0       -2.978776    1.031956    1.604859
     10          6           0       -4.326751    1.450640    1.063969
     11          6           0       -2.834630    1.313300    3.065992
     12          6           0       -1.789568   -0.667729    0.154665
     13          6           0       -0.357236   -0.440930    0.627680
     14          6           0        0.583311   -0.683243   -0.514664
     15          8           0        0.286972   -1.135397   -1.635410
     16          8           0        1.868571   -0.331119   -0.236442
     17          7           0       -7.038520    2.591556    0.231642
     18          6           0       -6.019902    3.283506    0.791090
     19          6           0       -6.356258    4.743334    0.908319
     20          6           0       -7.692450    4.794693    0.478113
     21          6           0       -8.105777    3.470125    0.146162
     22          6           0       -5.531154    5.811022    1.352875
     23          6           0       -8.607272    5.912056    0.463951
     24          6           0       -8.308077    7.223652    0.093273
     25          7           0       -9.108579    0.663414   -0.536100
     26          6           0       -9.876951    1.743863   -0.672970
     27          6           0      -11.210065    1.427850   -1.064689
     28          6           0      -11.252531    0.095022   -1.178689
     29          6           0       -9.882161   -0.429193   -0.791242
     30          6           0      -12.290223    2.466675   -1.289515
     31          6           0      -12.461645   -0.871551   -1.634553
     32          6           0      -12.496717   -1.288592   -3.172088
     33          7           0       -7.143471   -1.295460   -0.137535
     34          6           0       -8.134513   -2.206319   -0.565453
     35          6           0       -7.763348   -3.542253   -0.518762
     36          6           0       -6.504796   -3.548474   -0.073889
     37          6           0       -6.135727   -2.125795    0.118495
     38          6           0       -8.684636   -4.703850   -0.787396
     39          6           0       -5.318953   -4.407402    0.292591
     40          8           0       -5.246548   -5.572356    0.179963
     41          6           0       -4.129836   -3.314509    0.500703
     42          6           0       -3.534520   -3.696365    1.796998
     43          8           0       -3.831858   -3.067731    2.846250
     44          8           0       -2.645039   -4.765320    1.784600
     45          6           0       -2.180292   -5.153305    3.056893
     46          6           0        2.892639   -0.588070   -1.220991
     47          6           0        4.191612   -0.287612   -0.558943
     48          6           0        5.090664    0.526840   -1.039420
     49          6           0        4.965344    1.319980   -2.242694
     50          6           0        6.385841    0.632909   -0.276346
     51          6           0        7.541468   -0.024608   -1.039411
     52          6           0        8.944592   -0.029333   -0.197789
     53          6           0       10.105850   -0.483521   -1.026309
     54          6           0       10.009670   -1.975375   -1.400552
     55          6           0       11.386498   -0.286842   -0.019534
     56          6           0       12.807709   -0.620006   -0.820253
     57          6           0       13.924994   -0.269203    0.221905
     58          6           0       15.206640   -0.219121   -0.564948
     59          6           0       15.652250   -1.730322   -0.960692
     60          6           0       16.406681    0.324533    0.393630
     61          6           0       17.865672    0.488723   -0.141085
     62          6           0       18.707713    1.335040    0.791263
     63          6           0       20.176268    1.226139    0.320403
     64          6           0       20.187902    2.133772   -0.945806
     65          6           0       21.054780    1.854960    1.445539
     66          1           0       -4.144952    3.639491    1.614573
     67          1           0       -9.990136    4.133992   -0.415651
     68          1           0      -10.258491   -2.362010   -1.174323
     69          1           0       -2.419109   -1.023555    1.929968
     70          1           0       -2.290787    1.804627    1.174246
     71          1           0       -1.949460    1.049771    3.387909
     72          1           0       -2.893639    2.466871    3.502583
     73          1           0       -3.716152    0.764306    3.510039
     74          1           0       -1.659623   -1.812862   -0.132044
     75          1           0       -1.729918   -0.063340   -0.833276
     76          1           0       -0.142122    0.532514    1.080442
     77          1           0       -0.029678   -1.145357    1.506215
     78          1           0       -5.187227    6.328674    0.501125
     79          1           0       -5.934962    6.810258    1.957284
     80          1           0       -4.809795    5.302212    2.061762
     81          1           0       -9.703690    5.803288    0.800609
     82          1           0       -8.989997    8.001311    0.242427
     83          1           0       -7.380059    7.251179   -0.497938
     84          1           0      -11.837724    3.384686   -1.903246
     85          1           0      -13.398911    2.099228   -1.789845
     86          1           0      -12.691231    2.897260   -0.304473
     87          1           0      -12.403696   -1.814178   -0.996910
     88          1           0      -13.286273   -0.304528   -1.505696
     89          1           0      -13.500894   -1.875445   -3.222026
     90          1           0      -12.721960   -0.460107   -3.854793
     91          1           0      -11.603557   -1.769024   -3.393600
     92          1           0       -8.926688   -4.640686   -1.751697
     93          1           0       -7.952662   -5.722069   -0.666991
     94          1           0       -9.660986   -4.852879   -0.107955
     95          1           0       -3.354778   -3.410787   -0.373243
     96          1           0       -1.453336   -4.224760    3.528298
     97          1           0       -2.993125   -5.252584    3.735304
     98          1           0       -1.491865   -6.078929    2.872370
     99          1           0        2.572189   -1.606605   -1.358885
    100          1           0        3.018230    0.102350   -2.088003
    101          1           0        4.526375   -0.802107    0.422188
    102          1           0        3.770654    1.160747   -2.510183
    103          1           0        4.936977    2.371672   -2.078843
    104          1           0        5.757424    1.250393   -2.953266
    105          1           0        6.673073    1.590068   -0.043836
    106          1           0        6.150146    0.244651    0.504267
    107          1           0        7.270468   -1.151469   -1.150616
    108          1           0        7.290111    0.246425   -2.177934
    109          1           0        9.082880    1.119878   -0.008095
    110          1           0        8.661051   -0.510526    0.816216
    111          1           0       10.374528    0.283645   -1.852667
    112          1           0        9.350189   -2.214846   -2.179987
    113          1           0       10.873293   -2.399451   -1.967087
    114          1           0       10.181029   -2.695048   -0.482103
    115          1           0       11.612718    0.801740    0.079537
    116          1           0       11.392419   -0.795897    0.901881
    117          1           0       12.842104   -1.558680   -1.169772
    118          1           0       13.182234    0.038647   -1.756041
    119          1           0       13.705522    0.735085    0.593877
    120          1           0       13.877103   -0.972470    1.118940
    121          1           0       14.916232    0.605736   -1.408342
    122          1           0       15.588154   -2.267440    0.228551
    123          1           0       14.850692   -2.250128   -1.491263
    124          1           0       16.447846   -1.659333   -1.566885
    125          1           0       16.072868    1.387355    0.696108
    126          1           0       16.484760   -0.421200    1.380196
    127          1           0       18.214967   -0.631303   -0.155473
    128          1           0       17.873595    0.740348   -1.248055
    129          1           0       18.276938    2.190811    1.026401
    130          1           0       18.549326    0.846776    1.788331
    131          1           0       20.364461    0.228043    0.175243
    132          1           0       20.074993    3.174063   -0.803329
    133          1           0       21.209133    2.199773   -1.386024
    134          1           0       19.727674    1.646364   -1.709484
    135          1           0       21.280501    1.193980    2.420971
    136          1           0       22.101232    2.227416    1.019629
    137          1           0       20.627337    2.744870    1.667574
 ---------------------------------------------------------------------

 SCF Done:  E(RCAM-B3LYP) =  -2932.51733618     A.U. after   18 cycles

 Excitation energies and oscillator strengths:

 Excited State   1:      Singlet-A      2.0617 eV  601.37 nm  f=0.2213  <S**2>=0.000
     240 -> 242       -0.10297
     240 -> 243        0.22266
     241 -> 242        0.65235
 This state for optimization and/or second-order correction.
 Total Energy, E(TD-HF/TD-KS) =  -2932.44157014
 Copying the excited state density for this state as the 1-particle RhoCI density.

 The electronic state is 1-A.
 Alpha  occ. eigenvalues --  -46.82847 -19.26748 -19.25510 -19.21269 -19.20743
 Alpha  occ. eigenvalues --  -19.20726 -14.42703 -14.39703 -14.39484 -14.38871
 Alpha  occ. eigenvalues --  -10.39763 -10.39443 -10.35667 -10.32741 -10.31980
 Alpha  occ. eigenvalues --  -10.31265 -10.30996 -10.30202 -10.30072 -10.29463
 Alpha  occ. eigenvalues --  -10.29395 -10.28906 -10.28623 -10.28505 -10.28494
 Alpha  occ. eigenvalues --  -10.28281 -10.28088 -10.27990 -10.27873 -10.27866
 Alpha  occ. eigenvalues --  -10.27834 -10.27800 -10.27794 -10.27674 -10.27580
 Alpha  occ. eigenvalues --  -10.27281 -10.27226 -10.26915 -10.26910 -10.26883
 Alpha  occ. eigenvalues --  -10.26815 -10.26751 -10.26664 -10.26608 -10.26436
 Alpha  occ. eigenvalues --  -10.26416 -10.26407 -10.26260 -10.26088 -10.26024
 Alpha  occ. eigenvalues --  -10.25924 -10.25903 -10.25885 -10.25749 -10.25746
 Alpha  occ. eigenvalues --  -10.25631 -10.25597 -10.25463 -10.25195 -10.25181
 Alpha  occ. eigenvalues --  -10.24876 -10.24230 -10.23642 -10.23429 -10.22592
 Alpha  occ. eigenvalues --   -3.12402  -1.87057  -1.86659  -1.86631  -1.17211
 Alpha  occ. eigenvalues --   -1.17002  -1.13957  -1.07724  -1.07654  -1.04575
 Alpha  occ. eigenvalues --   -1.03752  -1.03495  -1.02393  -0.92950  -0.92109
 Alpha  occ. eigenvalues --   -0.91600  -0.89874  -0.89348  -0.89059  -0.88504
 Alpha  occ. eigenvalues --   -0.87741  -0.87635  -0.87407  -0.87322  -0.86275
 Alpha  occ. eigenvalues --   -0.84873  -0.83825  -0.82807  -0.82686  -0.82328
 Alpha  occ. eigenvalues --   -0.81432  -0.80411  -0.80038  -0.79425  -0.78558
 Alpha  occ. eigenvalues --   -0.77772  -0.77041  -0.76030  -0.76010  -0.75592
 Alpha  occ. eigenvalues --   -0.74922  -0.74357  -0.74052  -0.73297  -0.72145
 Alpha  occ. eigenvalues --   -0.71803  -0.70254  -0.69568  -0.68853  -0.67543
 Alpha  occ. eigenvalues --   -0.66548  -0.66430  -0.65588  -0.65030  -0.64705
 Alpha  occ. eigenvalues --   -0.64338  -0.63627  -0.62988  -0.62487  -0.61939
 Alpha  occ. eigenvalues --   -0.60576  -0.60502  -0.60075  -0.59271  -0.59111
 Alpha  occ. eigenvalues --   -0.58732  -0.58556  -0.58019  -0.57608  -0.57031
 Alpha  occ. eigenvalues --   -0.56403  -0.55557  -0.55307  -0.55016  -0.54901
 Alpha  occ. eigenvalues --   -0.54295  -0.54185  -0.53430  -0.53180  -0.53072
 Alpha  occ. eigenvalues --   -0.52886  -0.52792  -0.52515  -0.52295  -0.52104
 Alpha  occ. eigenvalues --   -0.51500  -0.51253  -0.50935  -0.50634  -0.50452
 Alpha  occ. eigenvalues --   -0.50208  -0.49964  -0.49789  -0.49476  -0.49339
 Alpha  occ. eigenvalues --   -0.49277  -0.48975  -0.48712  -0.48493  -0.48278
 Alpha  occ. eigenvalues --   -0.47940  -0.47667  -0.47553  -0.47194  -0.47038
 Alpha  occ. eigenvalues --   -0.46774  -0.46580  -0.46343  -0.46274  -0.45991
 Alpha  occ. eigenvalues --   -0.45710  -0.45638  -0.45405  -0.45270  -0.44633
 Alpha  occ. eigenvalues --   -0.44563  -0.44316  -0.44219  -0.44086  -0.44036
 Alpha  occ. eigenvalues --   -0.43833  -0.43650  -0.43426  -0.43273  -0.43044
 Alpha  occ. eigenvalues --   -0.42623  -0.42460  -0.42279  -0.42129  -0.41975
 Alpha  occ. eigenvalues --   -0.41735  -0.41496  -0.41297  -0.41070  -0.40906
 Alpha  occ. eigenvalues --   -0.40878  -0.40727  -0.40545  -0.40480  -0.40142
 Alpha  occ. eigenvalues --   -0.39951  -0.39672  -0.39550  -0.39144  -0.39087
 Alpha  occ. eigenvalues --   -0.38881  -0.38612  -0.38396  -0.38049  -0.38038
 Alpha  occ. eigenvalues --   -0.37694  -0.37303  -0.37009  -0.36796  -0.36473
 Alpha  occ. eigenvalues --   -0.36337  -0.36090  -0.35574  -0.35354  -0.35147
 Alpha  occ. eigenvalues --   -0.34820  -0.34631  -0.34009  -0.33909  -0.33683
 Alpha  occ. eigenvalues --   -0.33368  -0.31709  -0.31691  -0.30917  -0.30269
 Alpha  occ. eigenvalues --   -0.30069  -0.29667  -0.28985  -0.27259  -0.23030
 Alpha  occ. eigenvalues --   -0.20683
 Alpha virt. eigenvalues --   -0.05867  -0.02629   0.01498   0.03539   0.05255
 Alpha virt. eigenvalues --    0.05359   0.06376   0.06537   0.06585   0.07001
 Alpha virt. eigenvalues --    0.07560   0.10549   0.10947   0.11093   0.11130

 Mulliken charges:
               1
     1  Mg   0.834804
     2  C    0.074702
     3  C   -0.230292
     4  C   -0.202466
     5  C   -0.105568
     6  N   -0.605978
     7  C    0.260773
     8  C   -0.112644
     9  C   -0.151953
    10  C    0.354011
    11  C   -0.287443
    12  C   -0.175096
    13  C   -0.277546
    14  C    0.614151
    15  O   -0.492657
    16  O   -0.492220
    17  N   -0.698558
    18  C    0.349223
    19  C    0.041585
    20  C    0.022885
    21  C    0.311950
    22  C   -0.378966
    23  C   -0.125022
    24  C   -0.239198
    25  N   -0.685332
    26  C    0.293073
    27  C    0.072040
    28  C   -0.028499
    29  C    0.270733
    30  C   -0.367405
    31  C   -0.221322
    32  C   -0.310637
    33  N   -0.741191
    34  C    0.201340
    35  C    0.034738
    36  C   -0.025553
    37  C    0.288474
    38  C   -0.362876
    39  C    0.375126
    40  O   -0.406992
    41  C   -0.331555
    42  C    0.629172
    43  O   -0.495333
    44  O   -0.455498
    45  C   -0.063594
    46  C    0.038763
    47  C   -0.126194
    48  C    0.106776
    49  C   -0.367368
    50  C   -0.165545
    51  C   -0.207366
    52  C   -0.151825
    53  C   -0.047767
    54  C   -0.317959
    55  C   -0.200333
    56  C   -0.190752
    57  C   -0.157875
    58  C   -0.080832
    59  C   -0.288007
    60  C   -0.160441
    61  C   -0.186576
    62  C   -0.157621
    63  C   -0.052216
    64  C   -0.317363
    65  C   -0.302742
    66  H    0.067583
    67  H    0.083012
    68  H    0.072968
    69  H    0.127828
    70  H    0.114027
    71  H    0.123469
    72  H    0.082754
    73  H    0.124378
    74  H    0.112904
    75  H    0.120391
    76  H    0.137147
    77  H    0.124566
    78  H    0.146258
    79  H    0.109750
    80  H    0.110732
    81  H    0.101003
    82  H    0.110450
    83  H    0.101032
    84  H    0.112536
    85  H    0.086171
    86  H    0.120386
    87  H    0.104279
    88  H    0.111766
    89  H    0.096069
    90  H    0.115165
    91  H    0.122356
    92  H    0.137716
    93  H    0.113806
    94  H    0.111003
    95  H    0.163663
    96  H    0.078475
    97  H    0.147460
    98  H    0.122067
    99  H    0.126645
   100  H    0.101490
   101  H    0.078945
   102  H    0.087525
   103  H    0.129734
   104  H    0.130517
   105  H    0.096330
   106  H    0.085356
   107  H    0.085698
   108  H    0.072749
   109  H    0.081399
   110  H    0.101951
   111  H    0.097709
   112  H    0.117193
   113  H    0.095151
   114  H    0.098050
   115  H    0.097514
   116  H    0.105548
   117  H    0.109293
   118  H    0.062170
   119  H    0.090342
   120  H    0.080394
   121  H    0.069112
   122  H    0.074018
   123  H    0.101641
   124  H    0.120070
   125  H    0.068478
   126  H    0.062593
   127  H    0.079725
   128  H    0.088667
   129  H    0.103033
   130  H    0.078692
   131  H    0.097897
   132  H    0.113200
   133  H    0.082116
   134  H    0.117878
   135  H    0.086974
   136  H    0.071495
   137  H    0.115400
 Sum of Mulliken charges =   0.00000

 Dipole moment (field-independent basis, Debye):
    X=              2.4321    Y=              5.0419    Z=              0.8001  Tot=              5.6547
 Quadrupole moment (field-independent basis, Debye-Ang):
   XX=           -349.8291   YY=           -391.9378   ZZ=           -398.1318
   XY=            -21.3698   XZ=              2.6245   YZ=             -1.7664

 Normal termination of Gaussian 09 at Thu Jun 27 07:15:36 2019.
