 Gaussian 09, Revision D.01,
 Gaussian 09:  ES64L-G09RevD.01 24-Apr-2013

 -------------------------------------
 # td=(NStates=1) CAM-B3LYP/6-31G(d,p)
 -------------------------------------

 --
 TD
 --
 Symbolic Z-matrix:
 Charge =  0 Multiplicity = 1

                         Standard orientation:
 ---------------------------------------------------------------------
 Center     Atomic      Atomic             Coordinates (Angstroms)
 Number     Number       Type             X           Y           Z
 ---------------------------------------------------------------------
      1         12           0       -7.117101    0.547578    0.077786
      2          6           0       -4.895821   -1.900555    0.596866
      3          6           0       -4.702718    2.719533    1.174396
      4          6           0       -9.449948    3.046752   -0.196863
      5          6           0       -9.570691   -1.706275   -0.880838
      6          7           0       -5.134319    0.431495    0.738095
      7          6           0       -4.327562   -0.728006    0.881506
      8          6           0       -2.896424   -0.471267    1.184741
      9          6           0       -2.981379    0.993520    1.640510
     10          6           0       -4.330699    1.486308    1.221300
     11          6           0       -2.973764    1.110916    3.237133
     12          6           0       -1.920986   -0.725936    0.069952
     13          6           0       -0.451052   -0.429596    0.515194
     14          6           0        0.545341   -0.728527   -0.561423
     15          8           0        0.321358   -1.120780   -1.669365
     16          8           0        1.837351   -0.335846   -0.317533
     17          7           0       -7.129097    2.535978    0.323514
     18          6           0       -6.004603    3.307639    0.691040
     19          6           0       -6.405863    4.682120    0.846390
     20          6           0       -7.652740    4.782502    0.382528
     21          6           0       -8.193303    3.398074    0.076821
     22          6           0       -5.515937    5.790190    1.479005
     23          6           0       -8.488757    5.967715    0.416287
     24          6           0       -8.183028    7.256883    0.239054
     25          7           0       -9.166077    0.676974   -0.468990
     26          6           0       -9.923284    1.838355   -0.676851
     27          6           0      -11.194233    1.533964   -1.159976
     28          6           0      -11.206010    0.114760   -1.259318
     29          6           0       -9.904503   -0.400377   -0.852712
     30          6           0      -12.281206    2.497805   -1.432630
     31          6           0      -12.381367   -0.689659   -1.760653
     32          6           0      -12.177414   -1.083623   -3.250975
     33          7           0       -7.273130   -1.368057   -0.155293
     34          6           0       -8.372745   -2.218167   -0.530373
     35          6           0       -7.825808   -3.627128   -0.536644
     36          6           0       -6.569499   -3.589732   -0.138072
     37          6           0       -6.155074   -2.165910    0.093733
     38          6           0       -8.645664   -4.818468   -0.869211
     39          6           0       -5.373480   -4.384807    0.105505
     40          8           0       -5.113227   -5.591169    0.052133
     41          6           0       -4.222182   -3.335829    0.597963
     42          6           0       -3.666297   -3.708205    1.994714
     43          8           0       -3.865223   -3.042404    2.984280
     44          8           0       -2.861312   -4.641657    1.782291
     45          6           0       -2.297692   -5.179933    2.997841
     46          6           0        2.775905   -0.543870   -1.253326
     47          6           0        4.094820   -0.393381   -0.573052
     48          6           0        5.142052    0.393002   -1.072027
     49          6           0        5.036982    1.216054   -2.315820
     50          6           0        6.472813    0.579290   -0.335470
     51          6           0        7.754121    0.248753   -1.131456
     52          6           0        9.027356    0.273896   -0.256034
     53          6           0       10.200138   -0.316221   -0.986467
     54          6           0        9.962509   -1.872748   -1.371803
     55          6           0       11.497279   -0.199691   -0.085248
     56          6           0       12.867611   -0.422493   -0.777304
     57          6           0       14.041948   -0.163789    0.117714
     58          6           0       15.413920   -0.160628   -0.515782
     59          6           0       15.635876   -1.691126   -1.041064
     60          6           0       16.507217    0.239886    0.436003
     61          6           0       17.898010    0.353167   -0.020331
     62          6           0       18.754733    1.121537    0.890248
     63          6           0       20.158647    1.187697    0.390506
     64          6           0       20.201594    1.986485   -0.918541
     65          6           0       21.096146    1.739853    1.335445
     66          1           0       -4.184665    3.476194    1.667903
     67          1           0      -10.024060    3.851792   -0.466330
     68          1           0      -10.410380   -2.341473   -1.304725
     69          1           0       -2.606145   -0.849170    2.042671
     70          1           0       -2.330400    1.704314    1.183647
     71          1           0       -1.999542    0.654457    3.666074
     72          1           0       -3.081450    2.209388    3.665939
     73          1           0       -3.763804    0.486228    3.599980
     74          1           0       -1.782428   -1.833182   -0.235898
     75          1           0       -2.047936   -0.099765   -0.843985
     76          1           0       -0.511394    0.689409    0.555032
     77          1           0       -0.291178   -0.753689    1.373536
     78          1           0       -4.652679    6.196509    0.701988
     79          1           0       -6.028756    6.658704    1.873539
     80          1           0       -4.875563    5.218483    2.120976
     81          1           0       -9.612709    5.761928    0.503976
     82          1           0       -8.923196    8.037739    0.404833
     83          1           0       -7.050202    7.259040    0.143720
     84          1           0      -11.911043    3.302124   -2.170981
     85          1           0      -13.121034    2.103827   -1.977122
     86          1           0      -12.657337    2.998298   -0.514327
     87          1           0      -12.479162   -1.590506   -1.204581
     88          1           0      -13.374150   -0.124985   -1.405641
     89          1           0      -12.918980   -2.032479   -3.235119
     90          1           0      -12.156346   -0.334760   -3.851486
     91          1           0      -11.095875   -1.602935   -3.203957
     92          1           0       -9.306903   -4.597612   -1.584355
     93          1           0       -8.030610   -5.563585   -0.919102
     94          1           0       -9.409341   -4.828723   -0.019522
     95          1           0       -3.353571   -3.734155   -0.011546
     96          1           0       -1.899966   -4.369732    3.653217
     97          1           0       -3.247044   -5.484934    3.447224
     98          1           0       -1.690208   -5.910218    2.793820
     99          1           0        2.766668   -1.647272   -1.475070
    100          1           0        2.658348    0.051044   -2.055897
    101          1           0        4.306982   -0.895449    0.276856
    102          1           0        3.826514    1.274439   -2.503782
    103          1           0        5.328554    2.088018   -2.176817
    104          1           0        5.450999    0.661512   -3.056589
    105          1           0        6.639328    1.580895   -0.058287
    106          1           0        6.399475    0.186711    0.582976
    107          1           0        7.620886   -0.664637   -1.358487
    108          1           0        7.975146    0.971999   -2.007458
    109          1           0        9.209571    1.351003    0.001374
    110          1           0        8.724008   -0.307748    0.577661
    111          1           0       10.274307    0.347971   -1.801495
    112          1           0        9.025959   -1.800656   -2.002789
    113          1           0       11.023445   -2.218778   -1.700858
    114          1           0        9.585698   -2.595250   -0.593874
    115          1           0       11.493305    0.820549    0.539977
    116          1           0       11.402899   -0.766565    0.897301
    117          1           0       12.953930   -1.505892   -1.082708
    118          1           0       12.777267    0.347205   -1.634310
    119          1           0       13.877176    0.812185    0.637383
    120          1           0       13.770556   -1.038206    0.910668
    121          1           0       15.469334    0.560478   -1.248749
    122          1           0       15.847391   -2.403140   -0.160144
    123          1           0       14.755371   -2.185361   -1.453599
    124          1           0       16.576492   -1.887329   -1.575506
    125          1           0       16.269975    1.298460    0.584679
    126          1           0       16.284979   -0.504915    1.432156
    127          1           0       18.400752   -0.653068   -0.276391
    128          1           0       17.919838    0.931769   -1.052463
    129          1           0       18.563251    2.275197    1.074625
    130          1           0       18.533574    0.685260    2.061665
    131          1           0       20.550778    0.074230    0.241131
    132          1           0       19.666501    2.977274   -0.811285
    133          1           0       21.358428    2.305486   -1.223557
    134          1           0       19.789098    1.325697   -1.863046
    135          1           0       20.928771    1.256653    2.303107
    136          1           0       22.109310    1.700298    1.062672
    137          1           0       20.825487    2.718333    1.777602
 ---------------------------------------------------------------------

 SCF Done:  E(RCAM-B3LYP) =  -2932.58249881     A.U. after   15 cycles

 Excitation energies and oscillator strengths:

 Excited State   1:      Singlet-A      2.0750 eV  597.53 nm  f=0.2591  <S**2>=0.000
     240 -> 243       -0.23828
     241 -> 242        0.65908
 This state for optimization and/or second-order correction.
 Total Energy, E(TD-HF/TD-KS) =  -2932.50624566
 Copying the excited state density for this state as the 1-particle RhoCI density.

 The electronic state is 1-A.
 Alpha  occ. eigenvalues --  -46.82490 -19.27976 -19.24880 -19.21092 -19.20715
 Alpha  occ. eigenvalues --  -19.20264 -14.40866 -14.39785 -14.39716 -14.37954
 Alpha  occ. eigenvalues --  -10.39469 -10.38444 -10.35648 -10.31191 -10.31090
 Alpha  occ. eigenvalues --  -10.30744 -10.30334 -10.29996 -10.29649 -10.29269
 Alpha  occ. eigenvalues --  -10.28964 -10.28759 -10.27951 -10.27856 -10.27698
 Alpha  occ. eigenvalues --  -10.27649 -10.27598 -10.27488 -10.27427 -10.27350
 Alpha  occ. eigenvalues --  -10.27286 -10.27146 -10.26981 -10.26954 -10.26923
 Alpha  occ. eigenvalues --  -10.26896 -10.26842 -10.26787 -10.26382 -10.26380
 Alpha  occ. eigenvalues --  -10.26319 -10.26266 -10.26235 -10.26170 -10.26169
 Alpha  occ. eigenvalues --  -10.26154 -10.26041 -10.25966 -10.25961 -10.25934
 Alpha  occ. eigenvalues --  -10.25834 -10.25810 -10.25761 -10.25709 -10.25259
 Alpha  occ. eigenvalues --  -10.25123 -10.25008 -10.24810 -10.24785 -10.24642
 Alpha  occ. eigenvalues --  -10.24529 -10.24413 -10.24152 -10.23777 -10.23280
 Alpha  occ. eigenvalues --   -3.11796  -1.86484  -1.86041  -1.85994  -1.22564
 Alpha  occ. eigenvalues --   -1.19745  -1.10253  -1.10115  -1.10055  -1.03056
 Alpha  occ. eigenvalues --   -1.02083  -1.01793  -1.00641  -0.91898  -0.91838
 Alpha  occ. eigenvalues --   -0.91537  -0.91055  -0.89852  -0.89223  -0.89016
 Alpha  occ. eigenvalues --   -0.88758  -0.88668  -0.87729  -0.87269  -0.86846
 Alpha  occ. eigenvalues --   -0.85792  -0.85513  -0.84266  -0.83641  -0.83001
 Alpha  occ. eigenvalues --   -0.82569  -0.81889  -0.80919  -0.80177  -0.79242
 Alpha  occ. eigenvalues --   -0.77654  -0.76692  -0.76369  -0.76006  -0.75671
 Alpha  occ. eigenvalues --   -0.75271  -0.74385  -0.74108  -0.73602  -0.73116
 Alpha  occ. eigenvalues --   -0.72152  -0.70913  -0.69741  -0.69247  -0.68741
 Alpha  occ. eigenvalues --   -0.67229  -0.66975  -0.66333  -0.65488  -0.64543
 Alpha  occ. eigenvalues --   -0.64242  -0.63816  -0.63252  -0.62604  -0.62276
 Alpha  occ. eigenvalues --   -0.61823  -0.61661  -0.60711  -0.60414  -0.59430
 Alpha  occ. eigenvalues --   -0.58953  -0.58604  -0.58189  -0.57737  -0.57295
 Alpha  occ. eigenvalues --   -0.56846  -0.56686  -0.55659  -0.55595  -0.55497
 Alpha  occ. eigenvalues --   -0.55343  -0.54911  -0.54799  -0.54135  -0.53810
 Alpha  occ. eigenvalues --   -0.53485  -0.53287  -0.53182  -0.52609  -0.52018
 Alpha  occ. eigenvalues --   -0.51915  -0.51573  -0.51154  -0.50931  -0.50740
 Alpha  occ. eigenvalues --   -0.50628  -0.50612  -0.50197  -0.49921  -0.49717
 Alpha  occ. eigenvalues --   -0.49592  -0.49500  -0.49150  -0.49013  -0.48919
 Alpha  occ. eigenvalues --   -0.48610  -0.48431  -0.47982  -0.47735  -0.47584
 Alpha  occ. eigenvalues --   -0.46962  -0.46658  -0.46315  -0.46269  -0.46117
 Alpha  occ. eigenvalues --   -0.45604  -0.45563  -0.45429  -0.45157  -0.45017
 Alpha  occ. eigenvalues --   -0.44752  -0.44578  -0.44338  -0.44182  -0.44137
 Alpha  occ. eigenvalues --   -0.43894  -0.43661  -0.43646  -0.43420  -0.43126
 Alpha  occ. eigenvalues --   -0.43068  -0.42947  -0.42871  -0.42583  -0.42474
 Alpha  occ. eigenvalues --   -0.41943  -0.41683  -0.41552  -0.41512  -0.41419
 Alpha  occ. eigenvalues --   -0.41050  -0.40552  -0.40505  -0.40216  -0.40033
 Alpha  occ. eigenvalues --   -0.39845  -0.39802  -0.39169  -0.39068  -0.39049
 Alpha  occ. eigenvalues --   -0.38933  -0.38409  -0.38187  -0.38063  -0.37880
 Alpha  occ. eigenvalues --   -0.37633  -0.37379  -0.36950  -0.36830  -0.36797
 Alpha  occ. eigenvalues --   -0.36475  -0.36172  -0.36142  -0.35882  -0.35401
 Alpha  occ. eigenvalues --   -0.35204  -0.34879  -0.34533  -0.34003  -0.33841
 Alpha  occ. eigenvalues --   -0.33116  -0.32692  -0.32109  -0.31722  -0.30256
 Alpha  occ. eigenvalues --   -0.29956  -0.28166  -0.27813  -0.26566  -0.23838
 Alpha  occ. eigenvalues --   -0.21075
 Alpha virt. eigenvalues --   -0.06103  -0.03325   0.01388   0.04684   0.05911
 Alpha virt. eigenvalues --    0.06634   0.06807   0.06879   0.07558   0.07678
 Alpha virt. eigenvalues --    0.08290   0.10757   0.11559   0.11762   0.11918

 Mulliken charges:
               1
     1  Mg   0.805546
     2  C    0.071192
     3  C   -0.226135
     4  C   -0.132144
     5  C   -0.172954
     6  N   -0.658904
     7  C    0.308231
     8  C   -0.086091
     9  C   -0.190060
    10  C    0.409883
    11  C   -0.317064
    12  C   -0.178519
    13  C   -0.256988
    14  C    0.585771
    15  O   -0.452302
    16  O   -0.462897
    17  N   -0.686215
    18  C    0.263321
    19  C    0.042557
    20  C   -0.012061
    21  C    0.303431
    22  C   -0.354508
    23  C   -0.089694
    24  C   -0.249796
    25  N   -0.692294
    26  C    0.247338
    27  C    0.053040
    28  C   -0.031583
    29  C    0.346574
    30  C   -0.384259
    31  C   -0.251823
    32  C   -0.273836
    33  N   -0.754824
    34  C    0.276063
    35  C   -0.023240
    36  C    0.056539
    37  C    0.259621
    38  C   -0.326900
    39  C    0.356969
    40  O   -0.473592
    41  C   -0.360750
    42  C    0.624618
    43  O   -0.494981
    44  O   -0.400082
    45  C   -0.092591
    46  C    0.050608
    47  C   -0.126505
    48  C    0.064139
    49  C   -0.322640
    50  C   -0.231107
    51  C   -0.182075
    52  C   -0.181763
    53  C   -0.041597
    54  C   -0.321276
    55  C   -0.186358
    56  C   -0.164565
    57  C   -0.160317
    58  C   -0.039166
    59  C   -0.336464
    60  C   -0.147332
    61  C   -0.167106
    62  C   -0.138450
    63  C   -0.034602
    64  C   -0.291539
    65  C   -0.308797
    66  H    0.061837
    67  H    0.086052
    68  H    0.095403
    69  H    0.126765
    70  H    0.110525
    71  H    0.094501
    72  H    0.104660
    73  H    0.145045
    74  H    0.120916
    75  H    0.124732
    76  H    0.141351
    77  H    0.130985
    78  H    0.095955
    79  H    0.136016
    80  H    0.120598
    81  H    0.078705
    82  H    0.116193
    83  H    0.096110
    84  H    0.108572
    85  H    0.118071
    86  H    0.122039
    87  H    0.105453
    88  H    0.084883
    89  H    0.092144
    90  H    0.126957
    91  H    0.086285
    92  H    0.131560
    93  H    0.143060
    94  H    0.125975
    95  H    0.157601
    96  H    0.139326
    97  H    0.139854
    98  H    0.133062
    99  H    0.105508
   100  H    0.107344
   101  H    0.077119
   102  H    0.069998
   103  H    0.119958
   104  H    0.136788
   105  H    0.103392
   106  H    0.097139
   107  H    0.110289
   108  H    0.082380
   109  H    0.084649
   110  H    0.094288
   111  H    0.092448
   112  H    0.105396
   113  H    0.103109
   114  H    0.103029
   115  H    0.061167
   116  H    0.079359
   117  H    0.095136
   118  H    0.080608
   119  H    0.081457
   120  H    0.070652
   121  H    0.092307
   122  H    0.086370
   123  H    0.105412
   124  H    0.101505
   125  H    0.090299
   126  H    0.062502
   127  H    0.090640
   128  H    0.083144
   129  H    0.074808
   130  H    0.058143
   131  H    0.071771
   132  H    0.104778
   133  H    0.075631
   134  H    0.089358
   135  H    0.096745
   136  H    0.109296
   137  H    0.088194
 Sum of Mulliken charges =   0.00000

 Dipole moment (field-independent basis, Debye):
    X=              1.6782    Y=              2.6937    Z=              1.6218  Tot=              3.5641
 Quadrupole moment (field-independent basis, Debye-Ang):
   XX=           -356.7327   YY=           -386.9724   ZZ=           -400.6321
   XY=             -6.6112   XZ=              7.1386   YZ=             -5.8244

 Normal termination of Gaussian 09 at Sun Jun 30 03:05:59 2019.
