 Gaussian 09, Revision D.01,
 Gaussian 09:  ES64L-G09RevD.01 24-Apr-2013

 -------------------------------------
 # td=(NStates=1) CAM-B3LYP/6-31G(d,p)
 -------------------------------------

 --
 TD
 --
 Symbolic Z-matrix:
 Charge =  0 Multiplicity = 1

                         Standard orientation:
 ---------------------------------------------------------------------
 Center     Atomic      Atomic             Coordinates (Angstroms)
 Number     Number       Type             X           Y           Z
 ---------------------------------------------------------------------
      1         12           0       -7.053467    0.571936    0.066359
      2          6           0       -4.863484   -1.986141    0.436051
      3          6           0       -4.804713    2.735860    1.251150
      4          6           0       -9.465099    3.103285   -0.199946
      5          6           0       -9.511507   -1.723086   -0.947862
      6          7           0       -5.121545    0.385150    0.707151
      7          6           0       -4.365489   -0.683594    0.806830
      8          6           0       -2.969180   -0.359018    1.176331
      9          6           0       -3.060589    1.021945    1.767914
     10          6           0       -4.421674    1.465927    1.207614
     11          6           0       -3.198457    1.105932    3.206834
     12          6           0       -1.981673   -0.662779    0.058197
     13          6           0       -0.477481   -0.354903    0.439133
     14          6           0        0.496970   -0.520977   -0.741505
     15          8           0        0.296422   -0.843110   -1.850660
     16          8           0        1.721730   -0.306169   -0.209191
     17          7           0       -7.016206    2.645125    0.312916
     18          6           0       -6.050472    3.363611    0.879425
     19          6           0       -6.425944    4.714150    1.046580
     20          6           0       -7.710996    4.763561    0.593438
     21          6           0       -8.138397    3.491229    0.159459
     22          6           0       -5.582016    5.780024    1.585015
     23          6           0       -8.540434    6.022803    0.432147
     24          6           0       -8.115715    7.238565    0.104497
     25          7           0       -9.103166    0.726426   -0.480350
     26          6           0       -9.872066    1.815784   -0.713564
     27          6           0      -11.179089    1.534278   -1.279454
     28          6           0      -11.172758    0.131478   -1.271525
     29          6           0       -9.904211   -0.343273   -0.770881
     30          6           0      -12.257192    2.457608   -1.633241
     31          6           0      -12.362274   -0.703287   -1.716450
     32          6           0      -12.344520   -1.204203   -3.186578
     33          7           0       -7.310269   -1.379489   -0.161698
     34          6           0       -8.304413   -2.208682   -0.610359
     35          6           0       -7.849414   -3.672540   -0.619867
     36          6           0       -6.463059   -3.525234   -0.164386
     37          6           0       -6.265435   -2.149147    0.055435
     38          6           0       -8.587063   -4.898995   -0.794054
     39          6           0       -5.387723   -4.319310    0.142819
     40          8           0       -5.250435   -5.601486    0.106180
     41          6           0       -4.149211   -3.340527    0.511251
     42          6           0       -3.573878   -3.746158    1.859771
     43          8           0       -3.781877   -3.269742    3.029947
     44          8           0       -2.776710   -4.865347    1.721196
     45          6           0       -2.266590   -5.399054    2.904946
     46          6           0        2.759802   -0.459526   -1.147236
     47          6           0        4.106308   -0.350843   -0.402225
     48          6           0        5.102432    0.463650   -0.929158
     49          6           0        4.920119    1.406933   -2.168862
     50          6           0        6.449787    0.522362   -0.200577
     51          6           0        7.677829    0.052956   -0.915211
     52          6           0        8.993586   -0.022992   -0.116840
     53          6           0       10.212103   -0.434893   -0.846887
     54          6           0       10.126545   -1.930585   -1.261172
     55          6           0       11.402604   -0.140748   -0.001520
     56          6           0       12.753294   -0.532528   -0.698147
     57          6           0       14.016834   -0.143284    0.117323
     58          6           0       15.365214   -0.176312   -0.545515
     59          6           0       15.604206   -1.630019   -1.214782
     60          6           0       16.438959    0.287494    0.348561
     61          6           0       17.882498    0.487859   -0.239487
     62          6           0       18.838552    1.136088    0.806340
     63          6           0       20.321003    1.155011    0.323498
     64          6           0       20.405662    2.169194   -0.911201
     65          6           0       21.285389    1.679421    1.332072
     66          1           0       -4.231506    3.599374    1.575437
     67          1           0      -10.112521    3.905134   -0.614484
     68          1           0      -10.269914   -2.508938   -1.455421
     69          1           0       -2.426132   -1.051035    1.961340
     70          1           0       -2.382423    1.803741    1.348308
     71          1           0       -2.301445    0.610391    3.664349
     72          1           0       -3.112852    2.183705    3.727587
     73          1           0       -4.303801    0.530869    3.519999
     74          1           0       -2.132671   -1.644273   -0.080770
     75          1           0       -2.186950    0.062412   -0.959638
     76          1           0       -0.215665    0.492600    0.999661
     77          1           0       -0.150630   -1.145157    1.164739
     78          1           0       -4.873595    6.130371    0.743533
     79          1           0       -6.033203    6.712444    1.879251
     80          1           0       -4.824246    5.615583    2.510896
     81          1           0       -9.615324    5.837862    0.552452
     82          1           0       -8.834861    8.092114   -0.080269
     83          1           0       -7.148323    7.473755   -0.351445
     84          1           0      -11.731420    3.411662   -2.341953
     85          1           0      -13.161612    1.979866   -2.093421
     86          1           0      -12.677492    2.939710   -0.735013
     87          1           0      -12.415004   -1.587820   -0.947422
     88          1           0      -13.344147   -0.126921   -1.661372
     89          1           0      -13.354041   -1.618684   -3.509714
     90          1           0      -12.030582   -0.310079   -3.835302
     91          1           0      -11.611769   -1.990417   -3.342012
     92          1           0       -8.819249   -5.090781   -1.679392
     93          1           0       -7.781228   -5.682725   -0.602025
     94          1           0       -9.484423   -4.888561   -0.206800
     95          1           0       -3.506968   -3.480806   -0.202280
     96          1           0       -1.861502   -4.593458    3.553826
     97          1           0       -2.978766   -5.608237    3.644412
     98          1           0       -1.548894   -6.192091    2.595947
     99          1           0        2.514490   -1.408912   -1.421408
    100          1           0        2.686748    0.435499   -1.860543
    101          1           0        4.432225   -0.918945    0.552887
    102          1           0        3.913027    1.492399   -2.717894
    103          1           0        5.128288    2.428407   -1.613596
    104          1           0        5.648978    1.054100   -3.066425
    105          1           0        6.548981    1.514272    0.233140
    106          1           0        6.213450   -0.231869    0.804333
    107          1           0        7.524059   -0.877240   -1.245407
    108          1           0        7.860109    0.473941   -1.792717
    109          1           0        9.089027    0.965518    0.363451
    110          1           0        8.882631   -0.766824    0.748844
    111          1           0       10.556822    0.174712   -1.704256
    112          1           0        9.348495   -2.454944   -1.975084
    113          1           0       11.004649   -2.167320   -1.971978
    114          1           0       10.058244   -2.478021   -0.328395
    115          1           0       11.524663    0.891097    0.323772
    116          1           0       11.368410   -0.832760    0.729130
    117          1           0       12.749961   -1.605105   -1.048372
    118          1           0       12.839328    0.054083   -1.642937
    119          1           0       13.912870    0.700335    0.603995
    120          1           0       14.012988   -0.956988    0.973070
    121          1           0       15.182795    0.486572   -1.417116
    122          1           0       15.620041   -2.387611   -0.393062
    123          1           0       14.767947   -1.994726   -1.821942
    124          1           0       16.446835   -1.656846   -1.604265
    125          1           0       16.280063    1.168841    0.926344
    126          1           0       16.496562   -0.436768    1.360611
    127          1           0       18.281195   -0.383109   -0.650438
    128          1           0       17.926186    1.060665   -1.221757
    129          1           0       18.607142    2.123400    1.028172
    130          1           0       18.826666    0.508972    1.657838
    131          1           0       20.653230    0.134354   -0.106696
    132          1           0       20.182734    3.216148   -0.831385
    133          1           0       21.488251    2.075983   -1.315469
    134          1           0       19.802517    1.909535   -1.827706
    135          1           0       21.265921    1.038606    2.273333
    136          1           0       22.394701    1.712514    0.995680
    137          1           0       21.023926    2.753322    1.614178
 ---------------------------------------------------------------------

 SCF Done:  E(RCAM-B3LYP) =  -2932.66660073     A.U. after   16 cycles

 Excitation energies and oscillator strengths:

 Excited State   1:      Singlet-A      2.0328 eV  609.93 nm  f=0.2488  <S**2>=0.000
     240 -> 243       -0.25464
     241 -> 242        0.65010
 This state for optimization and/or second-order correction.
 Total Energy, E(TD-HF/TD-KS) =  -2932.59189764
 Copying the excited state density for this state as the 1-particle RhoCI density.

 The electronic state is 1-A.
 Alpha  occ. eigenvalues --  -46.84895 -19.26106 -19.24851 -19.21477 -19.20842
 Alpha  occ. eigenvalues --  -19.20176 -14.41691 -14.40435 -14.39683 -14.39173
 Alpha  occ. eigenvalues --  -10.40027 -10.38758 -10.35297 -10.31464 -10.31099
 Alpha  occ. eigenvalues --  -10.30984 -10.30334 -10.30133 -10.30018 -10.29816
 Alpha  occ. eigenvalues --  -10.29221 -10.29201 -10.29166 -10.29015 -10.28999
 Alpha  occ. eigenvalues --  -10.28830 -10.28579 -10.28543 -10.28427 -10.28361
 Alpha  occ. eigenvalues --  -10.28044 -10.27919 -10.27891 -10.27584 -10.27556
 Alpha  occ. eigenvalues --  -10.27501 -10.27498 -10.27319 -10.27178 -10.27093
 Alpha  occ. eigenvalues --  -10.27012 -10.26899 -10.26716 -10.26378 -10.26298
 Alpha  occ. eigenvalues --  -10.26186 -10.26159 -10.26143 -10.26092 -10.26011
 Alpha  occ. eigenvalues --  -10.25983 -10.25883 -10.25861 -10.25719 -10.25399
 Alpha  occ. eigenvalues --  -10.25289 -10.25155 -10.25081 -10.25019 -10.24822
 Alpha  occ. eigenvalues --  -10.24354 -10.24014 -10.23988 -10.23090 -10.23050
 Alpha  occ. eigenvalues --   -3.13945  -1.88651  -1.88178  -1.88136  -1.19542
 Alpha  occ. eigenvalues --   -1.16854  -1.11089  -1.07357  -1.06215  -1.06024
 Alpha  occ. eigenvalues --   -1.05160  -1.03901  -1.02982  -0.93053  -0.91866
 Alpha  occ. eigenvalues --   -0.90878  -0.90127  -0.89563  -0.89318  -0.88828
 Alpha  occ. eigenvalues --   -0.88316  -0.88222  -0.88007  -0.87861  -0.86414
 Alpha  occ. eigenvalues --   -0.85389  -0.84358  -0.83957  -0.82907  -0.82459
 Alpha  occ. eigenvalues --   -0.82279  -0.81398  -0.80331  -0.79816  -0.78665
 Alpha  occ. eigenvalues --   -0.77643  -0.76949  -0.76351  -0.76267  -0.75486
 Alpha  occ. eigenvalues --   -0.75238  -0.74940  -0.74553  -0.73247  -0.72717
 Alpha  occ. eigenvalues --   -0.71408  -0.71049  -0.69520  -0.69160  -0.68976
 Alpha  occ. eigenvalues --   -0.67702  -0.66826  -0.65456  -0.65030  -0.64888
 Alpha  occ. eigenvalues --   -0.64244  -0.63831  -0.63235  -0.62764  -0.62367
 Alpha  occ. eigenvalues --   -0.62193  -0.61013  -0.60283  -0.59562  -0.59387
 Alpha  occ. eigenvalues --   -0.58655  -0.58411  -0.58365  -0.58071  -0.57563
 Alpha  occ. eigenvalues --   -0.56772  -0.56127  -0.55597  -0.55011  -0.54782
 Alpha  occ. eigenvalues --   -0.54343  -0.54085  -0.53747  -0.53398  -0.53290
 Alpha  occ. eigenvalues --   -0.52897  -0.52783  -0.52482  -0.52236  -0.51975
 Alpha  occ. eigenvalues --   -0.51807  -0.51424  -0.51171  -0.50699  -0.50645
 Alpha  occ. eigenvalues --   -0.50264  -0.50023  -0.49837  -0.49622  -0.49519
 Alpha  occ. eigenvalues --   -0.49434  -0.49309  -0.48650  -0.48576  -0.48397
 Alpha  occ. eigenvalues --   -0.48078  -0.47939  -0.47664  -0.47426  -0.47069
 Alpha  occ. eigenvalues --   -0.46997  -0.46625  -0.46539  -0.46309  -0.46166
 Alpha  occ. eigenvalues --   -0.46048  -0.45873  -0.45712  -0.45092  -0.44942
 Alpha  occ. eigenvalues --   -0.44674  -0.44519  -0.44423  -0.44263  -0.44081
 Alpha  occ. eigenvalues --   -0.43898  -0.43720  -0.43434  -0.43312  -0.43083
 Alpha  occ. eigenvalues --   -0.42933  -0.42715  -0.42622  -0.42509  -0.42457
 Alpha  occ. eigenvalues --   -0.42272  -0.42064  -0.41624  -0.41431  -0.41190
 Alpha  occ. eigenvalues --   -0.41023  -0.40872  -0.40555  -0.40298  -0.40227
 Alpha  occ. eigenvalues --   -0.39851  -0.39590  -0.39507  -0.39268  -0.39235
 Alpha  occ. eigenvalues --   -0.38863  -0.38457  -0.38407  -0.38406  -0.37721
 Alpha  occ. eigenvalues --   -0.37597  -0.37384  -0.36997  -0.36880  -0.36695
 Alpha  occ. eigenvalues --   -0.36621  -0.35962  -0.35838  -0.35748  -0.35263
 Alpha  occ. eigenvalues --   -0.35257  -0.34856  -0.34473  -0.34341  -0.34235
 Alpha  occ. eigenvalues --   -0.33843  -0.33284  -0.32311  -0.30972  -0.30201
 Alpha  occ. eigenvalues --   -0.29998  -0.29398  -0.28097  -0.27563  -0.23263
 Alpha  occ. eigenvalues --   -0.21771
 Alpha virt. eigenvalues --   -0.07043  -0.03797   0.00572   0.04411   0.04830
 Alpha virt. eigenvalues --    0.05332   0.06124   0.06256   0.06809   0.07521
 Alpha virt. eigenvalues --    0.08498   0.09738   0.10852   0.11093   0.11721

 Mulliken charges:
               1
     1  Mg   0.822409
     2  C   -0.054383
     3  C   -0.171683
     4  C   -0.152066
     5  C   -0.190823
     6  N   -0.663361
     7  C    0.384970
     8  C   -0.167232
     9  C   -0.126712
    10  C    0.329022
    11  C   -0.275266
    12  C   -0.140209
    13  C   -0.285675
    14  C    0.601709
    15  O   -0.450538
    16  O   -0.486129
    17  N   -0.702207
    18  C    0.287808
    19  C    0.076923
    20  C   -0.021460
    21  C    0.278698
    22  C   -0.402578
    23  C   -0.072260
    24  C   -0.251059
    25  N   -0.634200
    26  C    0.230826
    27  C    0.076100
    28  C   -0.001047
    29  C    0.269362
    30  C   -0.376508
    31  C   -0.240610
    32  C   -0.302539
    33  N   -0.747977
    34  C    0.271907
    35  C    0.050565
    36  C    0.042666
    37  C    0.391794
    38  C   -0.381593
    39  C    0.297856
    40  O   -0.506506
    41  C   -0.259642
    42  C    0.616432
    43  O   -0.511989
    44  O   -0.436324
    45  C   -0.080387
    46  C    0.046729
    47  C   -0.141359
    48  C    0.097093
    49  C   -0.346612
    50  C   -0.217219
    51  C   -0.159526
    52  C   -0.167473
    53  C   -0.066693
    54  C   -0.318003
    55  C   -0.162819
    56  C   -0.210583
    57  C   -0.152239
    58  C   -0.060744
    59  C   -0.306764
    60  C   -0.165947
    61  C   -0.190536
    62  C   -0.160907
    63  C   -0.060614
    64  C   -0.323202
    65  C   -0.293020
    66  H    0.070895
    67  H    0.096651
    68  H    0.103998
    69  H    0.110108
    70  H    0.111680
    71  H    0.102156
    72  H    0.099929
    73  H    0.103399
    74  H    0.123567
    75  H    0.086761
    76  H    0.143501
    77  H    0.132473
    78  H    0.112409
    79  H    0.133604
    80  H    0.101727
    81  H    0.095235
    82  H    0.098129
    83  H    0.108314
    84  H    0.086809
    85  H    0.118793
    86  H    0.131890
    87  H    0.090299
    88  H    0.095535
    89  H    0.100091
    90  H    0.106538
    91  H    0.106198
    92  H    0.143960
    93  H    0.159255
    94  H    0.139559
    95  H    0.164969
    96  H    0.112837
    97  H    0.134566
    98  H    0.121222
    99  H    0.126122
   100  H    0.107430
   101  H    0.092800
   102  H    0.115543
   103  H    0.112733
   104  H    0.111169
   105  H    0.103417
   106  H    0.057771
   107  H    0.109173
   108  H    0.103026
   109  H    0.083839
   110  H    0.077042
   111  H    0.082288
   112  H    0.094999
   113  H    0.098093
   114  H    0.107489
   115  H    0.100237
   116  H    0.100282
   117  H    0.097369
   118  H    0.073675
   119  H    0.091343
   120  H    0.061454
   121  H    0.082987
   122  H    0.090432
   123  H    0.102557
   124  H    0.106852
   125  H    0.102234
   126  H    0.054893
   127  H    0.102268
   128  H    0.083989
   129  H    0.101140
   130  H    0.096923
   131  H    0.083054
   132  H    0.108328
   133  H    0.082645
   134  H    0.090238
   135  H    0.089616
   136  H    0.095724
   137  H    0.096129
 Sum of Mulliken charges =   0.00000

 Dipole moment (field-independent basis, Debye):
    X=              1.1903    Y=              4.4297    Z=             -0.9268  Tot=              4.6795
 Quadrupole moment (field-independent basis, Debye-Ang):
   XX=           -337.6778   YY=           -395.4914   ZZ=           -401.8775
   XY=            -12.2829   XZ=             15.5491   YZ=              1.6992

 Normal termination of Gaussian 09 at Thu Jun 27 21:37:05 2019.
