 Gaussian 09, Revision D.01,
 Gaussian 09:  ES64L-G09RevD.01 24-Apr-2013

 -------------------------------------
 # td=(NStates=1) CAM-B3LYP/6-31G(d,p)
 -------------------------------------

 --
 TD
 --
 Symbolic Z-matrix:
 Charge =  0 Multiplicity = 1

                         Standard orientation:
 ---------------------------------------------------------------------
 Center     Atomic      Atomic             Coordinates (Angstroms)
 Number     Number       Type             X           Y           Z
 ---------------------------------------------------------------------
      1         12           0       -7.092445    0.656776    0.137150
      2          6           0       -4.839765   -1.835309    0.503251
      3          6           0       -4.828956    2.850726    1.131750
      4          6           0       -9.417663    2.985263   -0.291950
      5          6           0       -9.557070   -1.817433   -0.839216
      6          7           0       -5.094670    0.545781    0.584171
      7          6           0       -4.287943   -0.565084    0.672153
      8          6           0       -2.913992   -0.277756    1.194575
      9          6           0       -2.999861    1.122849    1.658714
     10          6           0       -4.315758    1.542601    1.179144
     11          6           0       -2.910099    1.344908    3.157577
     12          6           0       -1.792120   -0.541951    0.133735
     13          6           0       -0.446997   -0.339056    0.523387
     14          6           0        0.635130   -0.723279   -0.671818
     15          8           0        0.166043   -0.941473   -1.784927
     16          8           0        1.791711   -0.464569   -0.288647
     17          7           0       -7.155045    2.649872    0.383759
     18          6           0       -6.038030    3.383951    0.868733
     19          6           0       -6.428297    4.781219    0.812265
     20          6           0       -7.801875    4.803219    0.417995
     21          6           0       -8.230283    3.426041    0.172907
     22          6           0       -5.661170    5.986333    1.254382
     23          6           0       -8.749953    5.938773    0.349280
     24          6           0       -8.478880    7.211591    0.023290
     25          7           0       -9.127036    0.571016   -0.503469
     26          6           0       -9.894317    1.678888   -0.630711
     27          6           0      -11.199770    1.349079   -1.147490
     28          6           0      -11.313429   -0.038963   -1.306255
     29          6           0       -9.966065   -0.474046   -0.943060
     30          6           0      -12.281841    2.359515   -1.537476
     31          6           0      -12.469408   -0.938412   -1.679166
     32          6           0      -12.282574   -1.388870   -3.145203
     33          7           0       -7.176254   -1.409435   -0.141221
     34          6           0       -8.243798   -2.195508   -0.538310
     35          6           0       -7.816533   -3.595797   -0.446764
     36          6           0       -6.428377   -3.535156   -0.073077
     37          6           0       -6.121333   -2.194478    0.004412
     38          6           0       -8.562851   -4.786081   -0.687102
     39          6           0       -5.208557   -4.287871    0.222903
     40          8           0       -5.037859   -5.522360    0.243302
     41          6           0       -4.178219   -3.221484    0.497241
     42          6           0       -3.522127   -3.626272    1.909785
     43          8           0       -3.672086   -3.041967    2.887958
     44          8           0       -2.622624   -4.621174    1.826719
     45          6           0       -2.015001   -5.009157    3.000208
     46          6           0        2.824072   -0.821159   -1.223852
     47          6           0        4.086410   -0.499957   -0.567158
     48          6           0        5.166365    0.298712   -0.914108
     49          6           0        5.136641    1.248861   -2.053902
     50          6           0        6.443142    0.366942   -0.096560
     51          6           0        7.634964   -0.196574   -0.963259
     52          6           0        8.933990   -0.149629   -0.099022
     53          6           0       10.211389   -0.484516   -0.817528
     54          6           0       10.098628   -1.999963   -1.274382
     55          6           0       11.473945   -0.352297    0.098890
     56          6           0       12.743774   -0.532986   -0.628280
     57          6           0       13.937521   -0.068347    0.194404
     58          6           0       15.303913   -0.234139   -0.562983
     59          6           0       15.517422   -1.682094   -0.777186
     60          6           0       16.320030    0.395771    0.418822
     61          6           0       17.707350    0.661755   -0.238116
     62          6           0       18.704956    1.300957    0.737835
     63          6           0       20.218054    1.345592    0.109914
     64          6           0       20.422779    2.186125   -1.226912
     65          6           0       21.140373    1.833979    1.220617
     66          1           0       -4.102538    3.622618    1.766845
     67          1           0      -10.396525    3.593044   -0.072176
     68          1           0      -10.283294   -2.506103   -1.199507
     69          1           0       -2.868804   -0.951430    2.136815
     70          1           0       -2.256072    1.684612    1.041564
     71          1           0       -1.989378    1.157658    3.536929
     72          1           0       -3.267623    2.433436    3.352763
     73          1           0       -3.488464    0.766986    3.675669
     74          1           0       -1.911857   -1.549220   -0.342185
     75          1           0       -2.051843    0.283344   -0.685198
     76          1           0       -0.177749    0.694652    0.925717
     77          1           0       -0.312272   -1.092533    1.242459
     78          1           0       -4.976454    6.329443    0.544669
     79          1           0       -6.367700    6.654787    1.733393
     80          1           0       -4.816111    5.605965    1.956491
     81          1           0       -9.847297    5.778507    0.510334
     82          1           0       -9.429623    7.902550    0.141482
     83          1           0       -7.481332    7.475107   -0.357576
     84          1           0      -11.899306    2.864503   -2.408138
     85          1           0      -13.132310    2.065322   -1.713954
     86          1           0      -12.444213    3.164290   -0.766652
     87          1           0      -12.526674   -1.953096   -1.088300
     88          1           0      -13.450585   -0.401831   -1.585378
     89          1           0      -13.292744   -2.007949   -3.511126
     90          1           0      -12.400820   -0.653832   -4.013779
     91          1           0      -11.475905   -2.058617   -3.469546
     92          1           0       -8.529235   -5.004287   -1.911778
     93          1           0       -7.872616   -5.662298   -0.261981
     94          1           0       -9.577666   -4.879325   -0.319012
     95          1           0       -3.489897   -3.163325   -0.358943
     96          1           0       -1.466439   -4.202937    3.424279
     97          1           0       -2.795034   -5.321730    3.870134
     98          1           0       -1.410314   -5.902464    2.555723
     99          1           0        2.547635   -1.890097   -1.389252
    100          1           0        2.754742   -0.248965   -2.297636
    101          1           0        4.057047   -1.010863    0.347208
    102          1           0        4.035730    1.348405   -2.482098
    103          1           0        5.486691    2.067960   -1.601526
    104          1           0        5.616119    0.762278   -2.988747
    105          1           0        6.474610    1.448420    0.232365
    106          1           0        6.389711   -0.448427    0.697066
    107          1           0        7.442559   -1.067003   -1.374656
    108          1           0        7.897934    0.504703   -1.884291
    109          1           0        9.045968    0.892185    0.384660
    110          1           0        8.920425   -0.932294    0.714223
    111          1           0       10.016187    0.075485   -1.700592
    112          1           0        9.234476   -2.229507   -1.896577
    113          1           0       10.917242   -2.330530   -1.944572
    114          1           0       10.100252   -2.439414   -0.227366
    115          1           0       11.218298    0.587347    0.460485
    116          1           0       11.416573   -1.179704    0.898551
    117          1           0       12.712064   -1.661814   -0.905396
    118          1           0       12.800897   -0.124556   -1.625915
    119          1           0       13.670049    1.101623    0.582522
    120          1           0       13.994483   -0.463937    1.213663
    121          1           0       15.301682    0.476101   -1.634001
    122          1           0       15.804831   -2.165219    0.179972
    123          1           0       14.892739   -2.179295   -1.425869
    124          1           0       16.576314   -1.741621   -1.170555
    125          1           0       15.964346    1.289786    0.881896
    126          1           0       16.538538   -0.295336    1.273987
    127          1           0       18.062324   -0.474002   -0.376606
    128          1           0       17.719701    1.403161   -1.079838
    129          1           0       18.446058    2.332801    0.937393
    130          1           0       18.997789    0.859656    1.617338
    131          1           0       20.341610    0.267903   -0.048928
    132          1           0       19.734978    3.119811   -1.301180
    133          1           0       21.499157    2.365832   -1.242511
    134          1           0       19.925485    1.588462   -2.097143
    135          1           0       21.401739    1.186203    2.009448
    136          1           0       22.241210    1.942053    0.817801
    137          1           0       20.821773    2.906786    1.588978
 ---------------------------------------------------------------------

 SCF Done:  E(RCAM-B3LYP) =  -2932.65571648     A.U. after   18 cycles

 Excitation energies and oscillator strengths:

 Excited State   1:      Singlet-A      2.0403 eV  607.68 nm  f=0.2120  <S**2>=0.000
     240 -> 243       -0.25360
     241 -> 242        0.64382
 This state for optimization and/or second-order correction.
 Total Energy, E(TD-HF/TD-KS) =  -2932.58073780
 Copying the excited state density for this state as the 1-particle RhoCI density.

 The electronic state is 1-A.
 Alpha  occ. eigenvalues --  -46.83938 -19.28783 -19.25166 -19.21292 -19.20354
 Alpha  occ. eigenvalues --  -19.19043 -14.41926 -14.38991 -14.38588 -14.38219
 Alpha  occ. eigenvalues --  -10.39323 -10.38775 -10.33991 -10.33920 -10.31623
 Alpha  occ. eigenvalues --  -10.31428 -10.30201 -10.30197 -10.28847 -10.28839
 Alpha  occ. eigenvalues --  -10.28815 -10.28768 -10.28272 -10.28219 -10.28174
 Alpha  occ. eigenvalues --  -10.28164 -10.27738 -10.27589 -10.27523 -10.27509
 Alpha  occ. eigenvalues --  -10.27295 -10.27285 -10.27266 -10.27190 -10.27095
 Alpha  occ. eigenvalues --  -10.26963 -10.26940 -10.26869 -10.26850 -10.26801
 Alpha  occ. eigenvalues --  -10.26765 -10.26726 -10.26652 -10.26617 -10.26493
 Alpha  occ. eigenvalues --  -10.26438 -10.26423 -10.26318 -10.26316 -10.26161
 Alpha  occ. eigenvalues --  -10.26156 -10.26089 -10.26023 -10.26004 -10.25487
 Alpha  occ. eigenvalues --  -10.25460 -10.25292 -10.25174 -10.25092 -10.25030
 Alpha  occ. eigenvalues --  -10.24661 -10.24423 -10.24049 -10.24046 -10.23795
 Alpha  occ. eigenvalues --   -3.12941  -1.87654  -1.87215  -1.87080  -1.22950
 Alpha  occ. eigenvalues --   -1.20608  -1.11609  -1.09361  -1.08316  -1.04519
 Alpha  occ. eigenvalues --   -1.03183  -1.02619  -1.01483  -0.92219  -0.92211
 Alpha  occ. eigenvalues --   -0.91198  -0.90974  -0.89794  -0.89039  -0.88194
 Alpha  occ. eigenvalues --   -0.87866  -0.87726  -0.87482  -0.86938  -0.86625
 Alpha  occ. eigenvalues --   -0.85764  -0.84629  -0.83725  -0.82956  -0.82259
 Alpha  occ. eigenvalues --   -0.82070  -0.80748  -0.80623  -0.80308  -0.78732
 Alpha  occ. eigenvalues --   -0.77678  -0.76887  -0.76229  -0.75836  -0.75643
 Alpha  occ. eigenvalues --   -0.75346  -0.74864  -0.74632  -0.73935  -0.72082
 Alpha  occ. eigenvalues --   -0.71601  -0.70479  -0.69646  -0.68420  -0.67296
 Alpha  occ. eigenvalues --   -0.66801  -0.65775  -0.65253  -0.64654  -0.64553
 Alpha  occ. eigenvalues --   -0.64038  -0.63396  -0.63196  -0.62245  -0.61821
 Alpha  occ. eigenvalues --   -0.61804  -0.60891  -0.60588  -0.60094  -0.59001
 Alpha  occ. eigenvalues --   -0.58601  -0.58344  -0.57717  -0.57500  -0.57358
 Alpha  occ. eigenvalues --   -0.56034  -0.55845  -0.55775  -0.55323  -0.54944
 Alpha  occ. eigenvalues --   -0.54865  -0.54782  -0.54557  -0.54106  -0.53834
 Alpha  occ. eigenvalues --   -0.53492  -0.52695  -0.52627  -0.52406  -0.52029
 Alpha  occ. eigenvalues --   -0.51593  -0.51495  -0.51324  -0.50906  -0.50724
 Alpha  occ. eigenvalues --   -0.50487  -0.50253  -0.49842  -0.49553  -0.49421
 Alpha  occ. eigenvalues --   -0.49194  -0.49096  -0.49047  -0.48857  -0.48576
 Alpha  occ. eigenvalues --   -0.48290  -0.47838  -0.47699  -0.47267  -0.47101
 Alpha  occ. eigenvalues --   -0.47001  -0.46856  -0.46417  -0.46294  -0.45740
 Alpha  occ. eigenvalues --   -0.45598  -0.45298  -0.45219  -0.45062  -0.44859
 Alpha  occ. eigenvalues --   -0.44591  -0.44453  -0.44376  -0.43947  -0.43766
 Alpha  occ. eigenvalues --   -0.43658  -0.43451  -0.43353  -0.43167  -0.42852
 Alpha  occ. eigenvalues --   -0.42797  -0.42660  -0.42475  -0.42363  -0.42163
 Alpha  occ. eigenvalues --   -0.41930  -0.41913  -0.41641  -0.41405  -0.41088
 Alpha  occ. eigenvalues --   -0.40790  -0.40710  -0.40451  -0.40323  -0.40309
 Alpha  occ. eigenvalues --   -0.40049  -0.39776  -0.39668  -0.39433  -0.39013
 Alpha  occ. eigenvalues --   -0.38941  -0.38817  -0.38452  -0.37977  -0.37925
 Alpha  occ. eigenvalues --   -0.37870  -0.37832  -0.37418  -0.37291  -0.36723
 Alpha  occ. eigenvalues --   -0.36660  -0.36454  -0.36121  -0.35666  -0.35379
 Alpha  occ. eigenvalues --   -0.35322  -0.34721  -0.34532  -0.33801  -0.33147
 Alpha  occ. eigenvalues --   -0.32483  -0.32388  -0.32092  -0.30024  -0.29648
 Alpha  occ. eigenvalues --   -0.29356  -0.28070  -0.27373  -0.26779  -0.22609
 Alpha  occ. eigenvalues --   -0.21002
 Alpha virt. eigenvalues --   -0.06187  -0.03103   0.01883   0.03969   0.04314
 Alpha virt. eigenvalues --    0.05996   0.06815   0.07285   0.07516   0.07717
 Alpha virt. eigenvalues --    0.08623   0.10793   0.10924   0.11396   0.11633

 Mulliken charges:
               1
     1  Mg   0.819566
     2  C    0.043420
     3  C   -0.220158
     4  C   -0.184513
     5  C   -0.145596
     6  N   -0.614385
     7  C    0.297248
     8  C   -0.172671
     9  C   -0.137200
    10  C    0.312090
    11  C   -0.298758
    12  C   -0.155565
    13  C   -0.266350
    14  C    0.575878
    15  O   -0.481137
    16  O   -0.388942
    17  N   -0.753606
    18  C    0.339162
    19  C    0.012454
    20  C   -0.009217
    21  C    0.368747
    22  C   -0.371437
    23  C   -0.085351
    24  C   -0.247626
    25  N   -0.660892
    26  C    0.313406
    27  C   -0.042912
    28  C    0.082829
    29  C    0.218444
    30  C   -0.341133
    31  C   -0.240065
    32  C   -0.311971
    33  N   -0.696449
    34  C    0.282446
    35  C    0.022358
    36  C    0.034734
    37  C    0.263832
    38  C   -0.402087
    39  C    0.362013
    40  O   -0.494632
    41  C   -0.329646
    42  C    0.598133
    43  O   -0.420253
    44  O   -0.425960
    45  C   -0.079941
    46  C   -0.013517
    47  C   -0.125446
    48  C    0.086991
    49  C   -0.335750
    50  C   -0.223233
    51  C   -0.175407
    52  C   -0.161039
    53  C   -0.092465
    54  C   -0.308557
    55  C   -0.157775
    56  C   -0.170554
    57  C   -0.154712
    58  C   -0.038513
    59  C   -0.305099
    60  C   -0.180944
    61  C   -0.168104
    62  C   -0.181252
    63  C   -0.062114
    64  C   -0.309231
    65  C   -0.316319
    66  H    0.056218
    67  H    0.086789
    68  H    0.093035
    69  H    0.131273
    70  H    0.119708
    71  H    0.117990
    72  H    0.096135
    73  H    0.138346
    74  H    0.119087
    75  H    0.089871
    76  H    0.115687
    77  H    0.120990
    78  H    0.136002
    79  H    0.137333
    80  H    0.092342
    81  H    0.095176
    82  H    0.095804
    83  H    0.112100
    84  H    0.130579
    85  H    0.108093
    86  H    0.098165
    87  H    0.113480
    88  H    0.117382
    89  H    0.061463
    90  H    0.110722
    91  H    0.125152
    92  H    0.106077
    93  H    0.142671
    94  H    0.125146
    95  H    0.170967
    96  H    0.120787
    97  H    0.105149
    98  H    0.120458
    99  H    0.134900
   100  H    0.109382
   101  H    0.087053
   102  H    0.099187
   103  H    0.124690
   104  H    0.125883
   105  H    0.108859
   106  H    0.111664
   107  H    0.120410
   108  H    0.077296
   109  H    0.079315
   110  H    0.075551
   111  H    0.084944
   112  H    0.094363
   113  H    0.098887
   114  H    0.091013
   115  H    0.096272
   116  H    0.087723
   117  H    0.084720
   118  H    0.099937
   119  H    0.047843
   120  H    0.095087
   121  H    0.051174
   122  H    0.104735
   123  H    0.120271
   124  H    0.091927
   125  H    0.096833
   126  H    0.086312
   127  H    0.075013
   128  H    0.096430
   129  H    0.086942
   130  H    0.098298
   131  H    0.090035
   132  H    0.092385
   133  H    0.112610
   134  H    0.095959
   135  H    0.113493
   136  H    0.073680
   137  H    0.093479
 Sum of Mulliken charges =   0.00000

 Dipole moment (field-independent basis, Debye):
    X=              4.2034    Y=              4.2563    Z=              0.9103  Tot=              6.0510
 Quadrupole moment (field-independent basis, Debye-Ang):
   XX=           -334.5500   YY=           -406.2891   ZZ=           -397.0879
   XY=            -25.8538   XZ=             10.3290   YZ=              1.0995

 Normal termination of Gaussian 09 at Thu Jun 27 10:24:05 2019.
