 Gaussian 09, Revision D.01,
 Gaussian 09:  ES64L-G09RevD.01 24-Apr-2013

 -------------------------------------
 # td=(NStates=1) CAM-B3LYP/6-31G(d,p)
 -------------------------------------

 --
 TD
 --
 Symbolic Z-matrix:
 Charge =  0 Multiplicity = 1

                         Standard orientation:
 ---------------------------------------------------------------------
 Center     Atomic      Atomic             Coordinates (Angstroms)
 Number     Number       Type             X           Y           Z
 ---------------------------------------------------------------------
      1         12           0       -7.167523    0.621998    0.082190
      2          6           0       -4.906025   -2.013993    0.453778
      3          6           0       -4.784853    2.767681    1.155740
      4          6           0       -9.330116    3.128172   -0.374348
      5          6           0       -9.592053   -1.782599   -0.841180
      6          7           0       -5.026161    0.442362    0.663676
      7          6           0       -4.384760   -0.792232    0.796650
      8          6           0       -2.910095   -0.438091    1.232274
      9          6           0       -3.041752    1.048066    1.613960
     10          6           0       -4.430125    1.412786    1.229296
     11          6           0       -2.895208    1.294805    3.162773
     12          6           0       -1.970105   -0.725927    0.040741
     13          6           0       -0.474437   -0.457551    0.552290
     14          6           0        0.492261   -0.617217   -0.602717
     15          8           0        0.227813   -0.808796   -1.863000
     16          8           0        1.757588   -0.450288   -0.163566
     17          7           0       -7.051203    2.574517    0.411660
     18          6           0       -6.008120    3.319625    0.820186
     19          6           0       -6.417741    4.725376    0.939805
     20          6           0       -7.641650    4.822469    0.519726
     21          6           0       -8.122221    3.468674    0.152597
     22          6           0       -5.557316    5.848399    1.453571
     23          6           0       -8.483265    6.027417    0.370358
     24          6           0       -8.155997    7.283818    0.020626
     25          7           0       -9.104042    0.643339   -0.511225
     26          6           0       -9.879520    1.782598   -0.578356
     27          6           0      -11.139378    1.554110   -1.154422
     28          6           0      -11.286163    0.196159   -1.147620
     29          6           0       -9.993463   -0.490114   -0.748040
     30          6           0      -12.199432    2.511889   -1.272296
     31          6           0      -12.460757   -0.653228   -1.556117
     32          6           0      -12.457925   -1.132220   -3.134283
     33          7           0       -7.239073   -1.378408   -0.154636
     34          6           0       -8.317250   -2.271455   -0.479304
     35          6           0       -7.878437   -3.555815   -0.550231
     36          6           0       -6.566395   -3.565945   -0.188215
     37          6           0       -6.220704   -2.152328    0.137719
     38          6           0       -8.624595   -4.897741   -0.874588
     39          6           0       -5.394470   -4.393547    0.102128
     40          8           0       -5.184013   -5.611261    0.136186
     41          6           0       -4.207583   -3.362907    0.495658
     42          6           0       -3.552352   -3.771752    1.791607
     43          8           0       -3.835554   -3.214043    2.829173
     44          8           0       -2.715244   -4.777881    1.671460
     45          6           0       -1.919007   -5.270247    2.885397
     46          6           0        2.717866   -0.588737   -1.166847
     47          6           0        4.186618   -0.356652   -0.590502
     48          6           0        5.107539    0.421345   -1.054789
     49          6           0        5.031634    1.253665   -2.371893
     50          6           0        6.464082    0.384259   -0.296906
     51          6           0        7.713446   -0.036116   -1.076028
     52          6           0        8.885039   -0.091524   -0.178791
     53          6           0       10.178873   -0.511331   -0.901774
     54          6           0       10.154798   -2.006350   -1.115541
     55          6           0       11.440265   -0.188862   -0.023830
     56          6           0       12.772796   -0.236635   -0.655546
     57          6           0       13.982161    0.003578    0.147436
     58          6           0       15.324340   -0.251933   -0.474935
     59          6           0       15.550711   -1.731182   -0.838719
     60          6           0       16.487199    0.400672    0.388024
     61          6           0       17.808870    0.504164   -0.292795
     62          6           0       18.954996    1.085322    0.778012
     63          6           0       20.308431    1.204320    0.309558
     64          6           0       20.407464    2.032810   -1.048533
     65          6           0       21.140868    1.835148    1.371139
     66          1           0       -4.069623    3.462667    1.644173
     67          1           0       -9.920403    4.009867   -0.470096
     68          1           0      -10.585908   -2.564462   -0.854360
     69          1           0       -2.490470   -1.040124    2.072890
     70          1           0       -2.365506    1.710103    1.027848
     71          1           0       -1.809689    1.059756    3.664635
     72          1           0       -3.120109    2.324893    3.347506
     73          1           0       -3.711091    0.485495    3.551352
     74          1           0       -2.352556   -1.760075   -0.435834
     75          1           0       -2.045029   -0.168961   -0.792045
     76          1           0       -0.457064    0.413886    1.243890
     77          1           0       -0.211023   -1.208060    1.141967
     78          1           0       -4.906843    6.187617    0.618900
     79          1           0       -6.193514    6.565044    1.958221
     80          1           0       -4.808318    5.382053    2.168421
     81          1           0       -9.572890    5.951155    0.417754
     82          1           0       -8.925736    8.094761   -0.110810
     83          1           0       -7.052957    7.634913    0.045139
     84          1           0      -11.992656    3.367117   -2.118699
     85          1           0      -13.347706    2.250320   -1.400400
     86          1           0      -12.303237    3.408586   -0.524580
     87          1           0      -12.512833   -1.714953   -1.111210
     88          1           0      -13.527634   -0.337716   -1.631662
     89          1           0      -13.335217   -1.642089   -3.324755
     90          1           0      -12.672469   -0.217684   -3.795984
     91          1           0      -11.392718   -1.492779   -3.421528
     92          1           0       -9.096231   -4.774876   -1.854429
     93          1           0       -7.923345   -5.840520   -0.982146
     94          1           0       -9.338828   -4.982362   -0.008036
     95          1           0       -3.441960   -3.108938   -0.332083
     96          1           0       -1.417666   -4.367274    3.459793
     97          1           0       -2.777647   -5.590279    3.569705
     98          1           0       -1.345048   -5.980164    2.463737
     99          1           0        2.523609   -1.416246   -1.805736
    100          1           0        2.506897    0.366219   -1.781233
    101          1           0        4.314345   -0.787641    0.344582
    102          1           0        3.920143    1.426374   -2.703644
    103          1           0        5.514272    2.263526   -2.050409
    104          1           0        5.608229    0.832260   -3.107205
    105          1           0        6.497955    1.325211    0.037805
    106          1           0        6.486793   -0.164088    0.653636
    107          1           0        7.548561   -0.898653   -1.612846
    108          1           0        7.782215    0.842297   -1.899588
    109          1           0        9.006897    0.842729    0.228070
    110          1           0        8.659175   -0.743582    0.663342
    111          1           0       10.358610    0.142460   -1.928822
    112          1           0        9.081585   -2.278664   -1.698676
    113          1           0       10.862146   -2.591558   -1.870692
    114          1           0        9.930587   -2.506949   -0.224056
    115          1           0       11.337842    0.908843    0.462752
    116          1           0       11.445403   -1.044167    0.735159
    117          1           0       12.708585   -1.286474   -1.150795
    118          1           0       12.753658    0.439909   -1.558339
    119          1           0       13.768717    1.102094    0.796573
    120          1           0       13.835319   -0.526559    1.049641
    121          1           0       15.463366    0.296986   -1.430835
    122          1           0       15.415227   -2.103807    0.352835
    123          1           0       14.731323   -2.035448   -1.375284
    124          1           0       16.467249   -2.098411   -1.387880
    125          1           0       16.072066    1.408696    0.693396
    126          1           0       16.714830   -0.266289    1.388903
    127          1           0       18.421088   -0.425830   -0.744883
    128          1           0       17.720128    1.350400   -1.146671
    129          1           0       18.612105    2.202284    0.863119
    130          1           0       18.795380    0.707383    1.708858
    131          1           0       20.674530    0.067701    0.111743
    132          1           0       20.179112    3.227721   -0.849795
    133          1           0       21.493860    1.933095   -1.496970
    134          1           0       19.538932    1.782581   -1.576720
    135          1           0       20.947895    1.223388    2.391506
    136          1           0       22.101801    1.884503    1.151706
    137          1           0       20.730483    2.703680    1.814137
 ---------------------------------------------------------------------

 SCF Done:  E(RCAM-B3LYP) =  -2932.60983114     A.U. after   17 cycles

 Excitation energies and oscillator strengths:

 Excited State   1:      Singlet-A      2.2839 eV  542.87 nm  f=0.1902  <S**2>=0.000
     240 -> 242       -0.24818
     240 -> 243        0.23918
     241 -> 242        0.57676
     241 -> 243        0.20048
 This state for optimization and/or second-order correction.
 Total Energy, E(TD-HF/TD-KS) =  -2932.52590057
 Copying the excited state density for this state as the 1-particle RhoCI density.

 The electronic state is 1-A.
 Alpha  occ. eigenvalues --  -46.83883 -19.27293 -19.25717 -19.21037 -19.19302
 Alpha  occ. eigenvalues --  -19.19210 -14.41419 -14.39793 -14.39454 -14.39406
 Alpha  occ. eigenvalues --  -10.40405 -10.38207 -10.34652 -10.32932 -10.31597
 Alpha  occ. eigenvalues --  -10.30651 -10.30561 -10.30450 -10.30413 -10.30161
 Alpha  occ. eigenvalues --  -10.29439 -10.29202 -10.28311 -10.28274 -10.28149
 Alpha  occ. eigenvalues --  -10.28083 -10.28076 -10.28070 -10.28032 -10.28024
 Alpha  occ. eigenvalues --  -10.27938 -10.27805 -10.27628 -10.27591 -10.27505
 Alpha  occ. eigenvalues --  -10.27471 -10.27387 -10.27176 -10.27110 -10.27095
 Alpha  occ. eigenvalues --  -10.27091 -10.26820 -10.26783 -10.26771 -10.26747
 Alpha  occ. eigenvalues --  -10.26738 -10.26637 -10.26578 -10.26425 -10.26344
 Alpha  occ. eigenvalues --  -10.26338 -10.26313 -10.26234 -10.26121 -10.25914
 Alpha  occ. eigenvalues --  -10.25679 -10.25633 -10.25460 -10.25277 -10.25003
 Alpha  occ. eigenvalues --  -10.24927 -10.24836 -10.24550 -10.24124 -10.23539
 Alpha  occ. eigenvalues --   -3.13034  -1.87733  -1.87292  -1.87199  -1.18836
 Alpha  occ. eigenvalues --   -1.17042  -1.08671  -1.07808  -1.05897  -1.05676
 Alpha  occ. eigenvalues --   -1.03745  -1.03502  -1.01285  -0.92248  -0.91904
 Alpha  occ. eigenvalues --   -0.90709  -0.90346  -0.90010  -0.89753  -0.88942
 Alpha  occ. eigenvalues --   -0.88653  -0.88130  -0.87253  -0.87183  -0.86239
 Alpha  occ. eigenvalues --   -0.85543  -0.84580  -0.83334  -0.82965  -0.82806
 Alpha  occ. eigenvalues --   -0.81549  -0.81113  -0.80473  -0.79763  -0.78117
 Alpha  occ. eigenvalues --   -0.77581  -0.77062  -0.76535  -0.75941  -0.75758
 Alpha  occ. eigenvalues --   -0.75022  -0.74886  -0.74337  -0.73875  -0.72574
 Alpha  occ. eigenvalues --   -0.71875  -0.70657  -0.69370  -0.69113  -0.67932
 Alpha  occ. eigenvalues --   -0.67176  -0.66991  -0.65924  -0.65078  -0.64409
 Alpha  occ. eigenvalues --   -0.64137  -0.63393  -0.62756  -0.61657  -0.61469
 Alpha  occ. eigenvalues --   -0.61167  -0.60824  -0.60282  -0.59852  -0.59186
 Alpha  occ. eigenvalues --   -0.58383  -0.58188  -0.57783  -0.57189  -0.56677
 Alpha  occ. eigenvalues --   -0.56176  -0.55323  -0.55239  -0.54984  -0.54441
 Alpha  occ. eigenvalues --   -0.54312  -0.53905  -0.53572  -0.53291  -0.53131
 Alpha  occ. eigenvalues --   -0.52941  -0.52650  -0.52508  -0.52100  -0.51765
 Alpha  occ. eigenvalues --   -0.51629  -0.51206  -0.50964  -0.50781  -0.50531
 Alpha  occ. eigenvalues --   -0.50530  -0.50414  -0.50194  -0.50105  -0.49664
 Alpha  occ. eigenvalues --   -0.49198  -0.49165  -0.48733  -0.48655  -0.48474
 Alpha  occ. eigenvalues --   -0.48063  -0.47742  -0.47467  -0.47261  -0.47109
 Alpha  occ. eigenvalues --   -0.46935  -0.46784  -0.46694  -0.46169  -0.45974
 Alpha  occ. eigenvalues --   -0.45916  -0.45740  -0.45055  -0.45012  -0.44857
 Alpha  occ. eigenvalues --   -0.44696  -0.44591  -0.44245  -0.44102  -0.44031
 Alpha  occ. eigenvalues --   -0.43912  -0.43549  -0.43472  -0.43404  -0.42955
 Alpha  occ. eigenvalues --   -0.42629  -0.42527  -0.42184  -0.41914  -0.41743
 Alpha  occ. eigenvalues --   -0.41584  -0.41261  -0.41137  -0.41051  -0.41019
 Alpha  occ. eigenvalues --   -0.40749  -0.40702  -0.40663  -0.40518  -0.40223
 Alpha  occ. eigenvalues --   -0.39881  -0.39726  -0.39553  -0.39249  -0.39111
 Alpha  occ. eigenvalues --   -0.38948  -0.38289  -0.38229  -0.38006  -0.37770
 Alpha  occ. eigenvalues --   -0.37297  -0.37064  -0.36886  -0.36773  -0.36403
 Alpha  occ. eigenvalues --   -0.35829  -0.35636  -0.35443  -0.35336  -0.35244
 Alpha  occ. eigenvalues --   -0.34922  -0.34652  -0.34340  -0.33597  -0.33344
 Alpha  occ. eigenvalues --   -0.33160  -0.32702  -0.32305  -0.31146  -0.30701
 Alpha  occ. eigenvalues --   -0.29588  -0.29111  -0.28879  -0.27703  -0.23593
 Alpha  occ. eigenvalues --   -0.21555
 Alpha virt. eigenvalues --   -0.05739  -0.03218   0.01640   0.04119   0.04355
 Alpha virt. eigenvalues --    0.06139   0.06357   0.06936   0.07615   0.07943
 Alpha virt. eigenvalues --    0.08334   0.10253   0.10919   0.11488   0.11653

 Mulliken charges:
               1
     1  Mg   0.824470
     2  C    0.057281
     3  C   -0.221154
     4  C   -0.177021
     5  C   -0.168969
     6  N   -0.608453
     7  C    0.263218
     8  C   -0.148000
     9  C   -0.171239
    10  C    0.382207
    11  C   -0.295714
    12  C   -0.172885
    13  C   -0.274250
    14  C    0.601379
    15  O   -0.516027
    16  O   -0.452064
    17  N   -0.742397
    18  C    0.346973
    19  C    0.009511
    20  C    0.057763
    21  C    0.299615
    22  C   -0.366426
    23  C   -0.098803
    24  C   -0.241055
    25  N   -0.678068
    26  C    0.283926
    27  C    0.114887
    28  C    0.024423
    29  C    0.271382
    30  C   -0.401340
    31  C   -0.269411
    32  C   -0.325242
    33  N   -0.715212
    34  C    0.223237
    35  C    0.018105
    36  C   -0.005038
    37  C    0.318811
    38  C   -0.358552
    39  C    0.365073
    40  O   -0.483147
    41  C   -0.301386
    42  C    0.625928
    43  O   -0.489740
    44  O   -0.465174
    45  C   -0.082117
    46  C    0.012179
    47  C   -0.142065
    48  C    0.104044
    49  C   -0.355612
    50  C   -0.230954
    51  C   -0.161886
    52  C   -0.167020
    53  C   -0.050753
    54  C   -0.311114
    55  C   -0.161757
    56  C   -0.159918
    57  C   -0.155893
    58  C   -0.066927
    59  C   -0.290283
    60  C   -0.156044
    61  C   -0.179840
    62  C   -0.165802
    63  C   -0.036285
    64  C   -0.299694
    65  C   -0.286994
    66  H    0.068048
    67  H    0.076328
    68  H    0.100117
    69  H    0.120197
    70  H    0.113788
    71  H    0.085535
    72  H    0.115558
    73  H    0.115868
    74  H    0.088330
    75  H    0.138525
    76  H    0.148189
    77  H    0.153268
    78  H    0.133229
    79  H    0.133570
    80  H    0.107182
    81  H    0.098012
    82  H    0.110291
    83  H    0.097997
    84  H    0.090089
    85  H    0.117239
    86  H    0.113925
    87  H    0.102542
    88  H    0.110424
    89  H    0.117597
    90  H    0.094417
    91  H    0.113271
    92  H    0.122083
    93  H    0.141217
    94  H    0.126264
    95  H    0.149696
    96  H    0.129147
    97  H    0.151086
    98  H    0.149787
    99  H    0.144167
   100  H    0.101078
   101  H    0.088521
   102  H    0.111210
   103  H    0.100777
   104  H    0.142003
   105  H    0.112987
   106  H    0.089015
   107  H    0.111795
   108  H    0.067330
   109  H    0.105119
   110  H    0.095446
   111  H    0.066440
   112  H    0.061069
   113  H    0.107330
   114  H    0.123109
   115  H    0.059848
   116  H    0.078145
   117  H    0.080393
   118  H    0.081626
   119  H    0.047339
   120  H    0.102844
   121  H    0.082911
   122  H    0.066654
   123  H    0.117949
   124  H    0.109116
   125  H    0.101002
   126  H    0.060894
   127  H    0.085531
   128  H    0.077058
   129  H    0.067376
   130  H    0.100343
   131  H    0.058965
   132  H    0.069958
   133  H    0.098310
   134  H    0.116170
   135  H    0.062697
   136  H    0.107020
   137  H    0.110945
 Sum of Mulliken charges =   0.00000

 Dipole moment (field-independent basis, Debye):
    X=              1.1527    Y=              5.4817    Z=              1.7544  Tot=              5.8699
 Quadrupole moment (field-independent basis, Debye-Ang):
   XX=           -355.1778   YY=           -389.7049   ZZ=           -401.4055
   XY=            -36.1374   XZ=              7.4639   YZ=             -1.0718

 Normal termination of Gaussian 09 at Thu Jun 27 23:30:20 2019.
