 Gaussian 09, Revision D.01,
 Gaussian 09:  ES64L-G09RevD.01 24-Apr-2013

 -------------------------------------
 # td=(NStates=1) CAM-B3LYP/6-31G(d,p)
 -------------------------------------

 --
 TD
 --
 Symbolic Z-matrix:
 Charge =  0 Multiplicity = 1

                         Standard orientation:
 ---------------------------------------------------------------------
 Center     Atomic      Atomic             Coordinates (Angstroms)
 Number     Number       Type             X           Y           Z
 ---------------------------------------------------------------------
      1         12           0       -7.104778    0.590897    0.051307
      2          6           0       -4.877219   -1.955887    0.609284
      3          6           0       -4.851623    2.800959    1.312540
      4          6           0       -9.457750    3.153037   -0.329271
      5          6           0       -9.579155   -1.713497   -0.886121
      6          7           0       -5.072739    0.454193    0.816273
      7          6           0       -4.333379   -0.740577    0.861539
      8          6           0       -2.892731   -0.444178    1.207536
      9          6           0       -2.946174    0.968583    1.675480
     10          6           0       -4.356458    1.534998    1.150108
     11          6           0       -2.883735    1.110025    3.236538
     12          6           0       -1.927223   -0.693464    0.001464
     13          6           0       -0.551845   -0.523385    0.508637
     14          6           0        0.503539   -0.721223   -0.646517
     15          8           0        0.131985   -1.068678   -1.696752
     16          8           0        1.788919   -0.540025   -0.235761
     17          7           0       -7.129559    2.604734    0.303433
     18          6           0       -6.026741    3.373616    0.829138
     19          6           0       -6.432001    4.751565    0.830415
     20          6           0       -7.735649    4.854011    0.496565
     21          6           0       -8.182931    3.487778    0.014988
     22          6           0       -5.502682    5.922144    1.358611
     23          6           0       -8.538404    6.083918    0.403362
     24          6           0       -8.123282    7.301155   -0.013338
     25          7           0       -9.155513    0.668230   -0.514416
     26          6           0       -9.891254    1.787616   -0.641463
     27          6           0      -11.211929    1.479437   -1.084265
     28          6           0      -11.232429    0.112366   -1.210545
     29          6           0       -9.935725   -0.350353   -0.878523
     30          6           0      -12.316948    2.356253   -1.396117
     31          6           0      -12.333990   -0.754413   -1.733957
     32          6           0      -12.269483   -1.037343   -3.310527
     33          7           0       -7.260472   -1.329820   -0.098597
     34          6           0       -8.309597   -2.241233   -0.499774
     35          6           0       -7.873459   -3.571776   -0.488060
     36          6           0       -6.558332   -3.573471   -0.097404
     37          6           0       -6.155325   -2.168353    0.095476
     38          6           0       -8.655281   -4.736729   -0.816515
     39          6           0       -5.399716   -4.328627    0.190370
     40          8           0       -5.315918   -5.541127    0.069513
     41          6           0       -4.243085   -3.340968    0.554266
     42          6           0       -3.633669   -3.658499    1.972952
     43          8           0       -3.923758   -3.175379    2.974615
     44          8           0       -2.722253   -4.657747    1.816434
     45          6           0       -2.031170   -5.163219    3.023414
     46          6           0        2.869739   -0.865246   -1.293267
     47          6           0        4.166857   -0.484609   -0.502224
     48          6           0        5.097120    0.355343   -0.853658
     49          6           0        5.055818    1.302633   -2.077731
     50          6           0        6.442664    0.359033   -0.218275
     51          6           0        7.579877   -0.063353   -1.020956
     52          6           0        8.827520   -0.065948   -0.155720
     53          6           0       10.177824   -0.408094   -0.919796
     54          6           0       10.075560   -1.835762   -1.437613
     55          6           0       11.412633   -0.179810   -0.103128
     56          6           0       12.709537   -0.355102   -0.885732
     57          6           0       14.042669   -0.130344   -0.012702
     58          6           0       15.362426   -0.194346   -0.658734
     59          6           0       15.740940   -1.516099   -1.167915
     60          6           0       16.467853    0.194903    0.460170
     61          6           0       17.876183    0.416097   -0.165632
     62          6           0       18.852373    1.169240    0.759712
     63          6           0       20.304343    1.192808    0.443284
     64          6           0       20.471657    2.025981   -0.896559
     65          6           0       21.157192    1.951185    1.535704
     66          1           0       -4.035417    3.705885    1.416776
     67          1           0      -10.162734    3.777144   -0.658370
     68          1           0      -10.271023   -2.534382   -1.209157
     69          1           0       -2.541453   -1.046853    2.195972
     70          1           0       -2.243322    1.814907    1.296879
     71          1           0       -1.733414    0.833202    3.677716
     72          1           0       -3.176078    2.072313    3.648351
     73          1           0       -3.833096    0.343513    3.558096
     74          1           0       -2.319127   -1.537745   -0.512416
     75          1           0       -2.144597    0.131773   -0.624701
     76          1           0       -0.441830    0.595012    0.786894
     77          1           0       -0.174095   -1.104493    1.436266
     78          1           0       -4.994574    6.325662    0.610735
     79          1           0       -6.171920    6.659830    1.992794
     80          1           0       -4.871099    5.243228    2.092898
     81          1           0       -9.589642    5.871268    0.594910
     82          1           0       -8.708985    8.250827    0.246653
     83          1           0       -6.982385    7.590938   -0.152183
     84          1           0      -11.964159    2.754897   -2.426824
     85          1           0      -13.297988    1.845376   -1.672729
     86          1           0      -12.527977    3.105345   -0.663469
     87          1           0      -12.375987   -1.608271   -1.054259
     88          1           0      -13.366096   -0.122686   -1.692033
     89          1           0      -13.072977   -1.803486   -3.647394
     90          1           0      -12.458055   -0.168037   -3.864063
     91          1           0      -11.211886   -1.420492   -3.387309
     92          1           0       -8.988373   -4.755574   -1.948260
     93          1           0       -8.124814   -5.669549   -0.721039
     94          1           0       -9.593451   -4.859353   -0.313379
     95          1           0       -3.555653   -3.546245   -0.312422
     96          1           0       -1.541634   -4.297535    3.474585
     97          1           0       -2.783520   -5.516561    3.658392
     98          1           0       -1.334447   -5.918131    2.582827
     99          1           0        2.759736   -1.855481   -1.487265
    100          1           0        2.844007   -0.299801   -2.152665
    101          1           0        4.151133   -1.130151    0.539650
    102          1           0        3.924155    1.495555   -2.107721
    103          1           0        5.480984    2.271597   -1.592124
    104          1           0        5.534753    0.747730   -2.984484
    105          1           0        6.643005    1.483499    0.043734
    106          1           0        6.429261   -0.081774    0.780139
    107          1           0        7.471443   -0.932198   -1.316613
    108          1           0        7.796443    0.517454   -1.881377
    109          1           0        8.889824    0.985258    0.395919
    110          1           0        8.918273   -0.750295    0.619471
    111          1           0       10.078942    0.262584   -1.815395
    112          1           0        9.331391   -1.898063   -2.022527
    113          1           0       10.852303   -2.204902   -1.930997
    114          1           0        9.890751   -2.620220   -0.625427
    115          1           0       11.505326    0.757581    0.465511
    116          1           0       11.310489   -0.971436    0.715157
    117          1           0       12.714124   -1.444964   -1.397594
    118          1           0       12.829554    0.350825   -1.770960
    119          1           0       13.850495    0.717168    0.417550
    120          1           0       14.216660   -0.912662    0.769427
    121          1           0       15.489425    0.638538   -1.608517
    122          1           0       15.762214   -2.341566   -0.388238
    123          1           0       15.275156   -1.710287   -2.002214
    124          1           0       16.838161   -1.452216   -1.488271
    125          1           0       16.107188    1.219813    0.853016
    126          1           0       16.336962   -0.447887    1.306813
    127          1           0       18.413013   -0.462702   -0.529271
    128          1           0       17.604881    0.815685   -1.272400
    129          1           0       18.507211    2.276517    0.890669
    130          1           0       18.765127    0.589634    1.731992
    131          1           0       20.612101    0.334154    0.577036
    132          1           0       19.958122    2.943664   -0.481729
    133          1           0       21.486868    2.438373   -1.370542
    134          1           0       20.020137    1.544102   -1.675162
    135          1           0       20.864298    1.834206    2.597352
    136          1           0       22.254589    1.766087    0.854010
    137          1           0       21.123112    3.133712    1.569308
 ---------------------------------------------------------------------

 SCF Done:  E(RCAM-B3LYP) =  -2932.60416338     A.U. after   18 cycles

 Excitation energies and oscillator strengths:

 Excited State   1:      Singlet-A      2.1293 eV  582.28 nm  f=0.1969  <S**2>=0.000
     240 -> 242       -0.13459
     240 -> 243        0.26892
     241 -> 242        0.62553
     241 -> 243        0.10500
 This state for optimization and/or second-order correction.
 Total Energy, E(TD-HF/TD-KS) =  -2932.52591339
 Copying the excited state density for this state as the 1-particle RhoCI density.

 The electronic state is 1-A.
 Alpha  occ. eigenvalues --  -46.83659 -19.25634 -19.24631 -19.21422 -19.20713
 Alpha  occ. eigenvalues --  -19.19002 -14.41724 -14.39641 -14.39449 -14.38607
 Alpha  occ. eigenvalues --  -10.38717 -10.38326 -10.33802 -10.31719 -10.31584
 Alpha  occ. eigenvalues --  -10.31160 -10.31070 -10.30673 -10.30050 -10.29031
 Alpha  occ. eigenvalues --  -10.28728 -10.28723 -10.28632 -10.28625 -10.28616
 Alpha  occ. eigenvalues --  -10.28613 -10.28339 -10.28259 -10.28059 -10.28042
 Alpha  occ. eigenvalues --  -10.27961 -10.27767 -10.27456 -10.27375 -10.27242
 Alpha  occ. eigenvalues --  -10.27231 -10.27202 -10.27166 -10.27086 -10.27083
 Alpha  occ. eigenvalues --  -10.27033 -10.26853 -10.26807 -10.26653 -10.26372
 Alpha  occ. eigenvalues --  -10.26267 -10.26237 -10.26232 -10.25991 -10.25912
 Alpha  occ. eigenvalues --  -10.25899 -10.25835 -10.25773 -10.25691 -10.25479
 Alpha  occ. eigenvalues --  -10.25368 -10.25229 -10.24908 -10.24893 -10.24727
 Alpha  occ. eigenvalues --  -10.24423 -10.23919 -10.23628 -10.23439 -10.22512
 Alpha  occ. eigenvalues --   -3.12765  -1.87463  -1.86999  -1.86958  -1.18802
 Alpha  occ. eigenvalues --   -1.17481  -1.10050  -1.09744  -1.09358  -1.04313
 Alpha  occ. eigenvalues --   -1.03710  -1.01385  -1.00957  -0.92606  -0.92478
 Alpha  occ. eigenvalues --   -0.90869  -0.90402  -0.90005  -0.89189  -0.88683
 Alpha  occ. eigenvalues --   -0.88559  -0.88374  -0.87755  -0.86792  -0.86428
 Alpha  occ. eigenvalues --   -0.84717  -0.83946  -0.83017  -0.82844  -0.82085
 Alpha  occ. eigenvalues --   -0.81515  -0.80906  -0.80719  -0.80537  -0.77677
 Alpha  occ. eigenvalues --   -0.77227  -0.77126  -0.76788  -0.75951  -0.75810
 Alpha  occ. eigenvalues --   -0.75023  -0.74652  -0.74325  -0.73479  -0.72909
 Alpha  occ. eigenvalues --   -0.71405  -0.70582  -0.69651  -0.69339  -0.68119
 Alpha  occ. eigenvalues --   -0.67821  -0.66527  -0.65675  -0.65581  -0.64086
 Alpha  occ. eigenvalues --   -0.63986  -0.63420  -0.63295  -0.62776  -0.61612
 Alpha  occ. eigenvalues --   -0.61500  -0.60108  -0.59698  -0.59481  -0.58247
 Alpha  occ. eigenvalues --   -0.58009  -0.57836  -0.57253  -0.57085  -0.56787
 Alpha  occ. eigenvalues --   -0.56145  -0.55945  -0.55392  -0.55211  -0.54454
 Alpha  occ. eigenvalues --   -0.54297  -0.54254  -0.54093  -0.53596  -0.53410
 Alpha  occ. eigenvalues --   -0.52984  -0.52864  -0.52190  -0.51957  -0.51924
 Alpha  occ. eigenvalues --   -0.51673  -0.51401  -0.51198  -0.51079  -0.50965
 Alpha  occ. eigenvalues --   -0.50527  -0.50250  -0.50143  -0.49831  -0.49574
 Alpha  occ. eigenvalues --   -0.49333  -0.49020  -0.48830  -0.48715  -0.48470
 Alpha  occ. eigenvalues --   -0.48409  -0.48042  -0.47711  -0.47517  -0.47042
 Alpha  occ. eigenvalues --   -0.46980  -0.46926  -0.46642  -0.46439  -0.46077
 Alpha  occ. eigenvalues --   -0.45979  -0.45749  -0.45211  -0.45169  -0.44992
 Alpha  occ. eigenvalues --   -0.44761  -0.44651  -0.44564  -0.44426  -0.44081
 Alpha  occ. eigenvalues --   -0.43718  -0.43641  -0.43594  -0.43351  -0.43260
 Alpha  occ. eigenvalues --   -0.43066  -0.42842  -0.42579  -0.42292  -0.42156
 Alpha  occ. eigenvalues --   -0.42075  -0.42040  -0.41202  -0.41104  -0.40915
 Alpha  occ. eigenvalues --   -0.40540  -0.40317  -0.40176  -0.39988  -0.39772
 Alpha  occ. eigenvalues --   -0.39644  -0.39594  -0.39391  -0.39374  -0.39101
 Alpha  occ. eigenvalues --   -0.38763  -0.38721  -0.38171  -0.38046  -0.37652
 Alpha  occ. eigenvalues --   -0.37442  -0.37098  -0.36996  -0.36875  -0.36715
 Alpha  occ. eigenvalues --   -0.36686  -0.36535  -0.35904  -0.35857  -0.35330
 Alpha  occ. eigenvalues --   -0.35136  -0.35012  -0.34833  -0.34064  -0.33428
 Alpha  occ. eigenvalues --   -0.33339  -0.32935  -0.32316  -0.31222  -0.30480
 Alpha  occ. eigenvalues --   -0.29356  -0.29201  -0.28320  -0.27500  -0.23601
 Alpha  occ. eigenvalues --   -0.21493
 Alpha virt. eigenvalues --   -0.06230  -0.03765   0.01368   0.04025   0.05919
 Alpha virt. eigenvalues --    0.06028   0.06844   0.07255   0.07813   0.08468
 Alpha virt. eigenvalues --    0.08879   0.10361   0.11200   0.11299   0.11467

 Mulliken charges:
               1
     1  Mg   0.820996
     2  C    0.097344
     3  C   -0.216268
     4  C   -0.133109
     5  C   -0.169184
     6  N   -0.615801
     7  C    0.285846
     8  C   -0.166998
     9  C   -0.134281
    10  C    0.322907
    11  C   -0.285579
    12  C   -0.140012
    13  C   -0.272033
    14  C    0.598587
    15  O   -0.436894
    16  O   -0.508924
    17  N   -0.708808
    18  C    0.323917
    19  C   -0.018299
    20  C    0.002885
    21  C    0.310087
    22  C   -0.347699
    23  C   -0.072378
    24  C   -0.244256
    25  N   -0.679254
    26  C    0.260577
    27  C    0.024339
    28  C    0.033705
    29  C    0.307435
    30  C   -0.385489
    31  C   -0.247097
    32  C   -0.297560
    33  N   -0.739989
    34  C    0.244792
    35  C    0.068090
    36  C    0.056144
    37  C    0.225782
    38  C   -0.406174
    39  C    0.328814
    40  O   -0.474409
    41  C   -0.331706
    42  C    0.621854
    43  O   -0.420514
    44  O   -0.488224
    45  C   -0.086008
    46  C    0.008702
    47  C   -0.129452
    48  C    0.088137
    49  C   -0.349548
    50  C   -0.218084
    51  C   -0.142657
    52  C   -0.183368
    53  C   -0.082924
    54  C   -0.299255
    55  C   -0.156022
    56  C   -0.189718
    57  C   -0.138015
    58  C   -0.077482
    59  C   -0.278148
    60  C   -0.174992
    61  C   -0.176100
    62  C   -0.174855
    63  C   -0.043753
    64  C   -0.298291
    65  C   -0.305450
    66  H    0.072714
    67  H    0.082134
    68  H    0.104525
    69  H    0.116806
    70  H    0.091610
    71  H    0.084663
    72  H    0.122666
    73  H    0.100419
    74  H    0.126561
    75  H    0.121157
    76  H    0.124865
    77  H    0.122931
    78  H    0.140626
    79  H    0.120193
    80  H    0.104026
    81  H    0.100633
    82  H    0.105009
    83  H    0.095565
    84  H    0.116759
    85  H    0.111389
    86  H    0.122795
    87  H    0.109513
    88  H    0.073952
    89  H    0.096077
    90  H    0.119980
    91  H    0.106562
    92  H    0.106853
    93  H    0.153797
    94  H    0.129006
    95  H    0.165273
    96  H    0.126319
    97  H    0.145411
    98  H    0.134870
    99  H    0.142222
   100  H    0.128460
   101  H    0.082017
   102  H    0.114508
   103  H    0.118252
   104  H    0.130771
   105  H    0.071187
   106  H    0.102980
   107  H    0.112026
   108  H    0.100493
   109  H    0.064999
   110  H    0.098822
   111  H    0.073605
   112  H    0.108672
   113  H    0.111050
   114  H    0.081014
   115  H    0.090542
   116  H    0.083145
   117  H    0.073621
   118  H    0.088762
   119  H    0.097821
   120  H    0.077776
   121  H    0.040596
   122  H    0.091658
   123  H    0.111481
   124  H    0.086174
   125  H    0.081575
   126  H    0.096070
   127  H    0.096243
   128  H    0.076543
   129  H    0.077883
   130  H    0.085170
   131  H    0.095898
   132  H    0.104901
   133  H    0.080987
   134  H    0.115179
   135  H    0.107493
   136  H    0.078442
   137  H    0.079431
 Sum of Mulliken charges =   0.00000

 Dipole moment (field-independent basis, Debye):
    X=              2.6056    Y=              3.9876    Z=             -0.3129  Tot=              4.7736
 Quadrupole moment (field-independent basis, Debye-Ang):
   XX=           -368.3504   YY=           -394.1603   ZZ=           -396.5720
   XY=            -32.7838   XZ=              9.2303   YZ=             -1.1827

 Normal termination of Gaussian 09 at Sun Jun 30 04:26:26 2019.
