 Gaussian 09, Revision D.01,
 Gaussian 09:  ES64L-G09RevD.01 24-Apr-2013

 -------------------------------------
 # td=(NStates=1) CAM-B3LYP/6-31G(d,p)
 -------------------------------------

 --
 TD
 --
 Symbolic Z-matrix:
 Charge =  0 Multiplicity = 1

                         Standard orientation:
 ---------------------------------------------------------------------
 Center     Atomic      Atomic             Coordinates (Angstroms)
 Number     Number       Type             X           Y           Z
 ---------------------------------------------------------------------
      1         12           0       -7.164164    0.663459    0.030447
      2          6           0       -4.794299   -1.941689    0.521138
      3          6           0       -4.801011    2.843761    1.211695
      4          6           0       -9.374686    3.188594   -0.459078
      5          6           0       -9.498168   -1.689845   -0.849581
      6          7           0       -5.194110    0.531285    0.786745
      7          6           0       -4.344463   -0.703191    0.840814
      8          6           0       -2.903043   -0.391175    1.328638
      9          6           0       -3.046115    1.130153    1.701964
     10          6           0       -4.422447    1.567081    1.241600
     11          6           0       -2.863440    1.354341    3.269537
     12          6           0       -1.994108   -0.652443    0.222817
     13          6           0       -0.559731   -0.435230    0.589105
     14          6           0        0.463662   -0.761434   -0.487454
     15          8           0        0.209263   -1.150995   -1.620175
     16          8           0        1.729135   -0.568797   -0.152354
     17          7           0       -7.096188    2.649077    0.457498
     18          6           0       -6.072362    3.365472    0.775374
     19          6           0       -6.350845    4.749766    0.792403
     20          6           0       -7.711897    4.904008    0.353698
     21          6           0       -8.186517    3.553581    0.106212
     22          6           0       -5.422631    5.778678    1.354905
     23          6           0       -8.587411    6.084541    0.262439
     24          6           0       -8.242252    7.330218    0.090324
     25          7           0       -9.074559    0.698037   -0.569228
     26          6           0       -9.840284    1.895211   -0.682089
     27          6           0      -11.253045    1.547350   -1.186247
     28          6           0      -11.260926    0.112417   -1.288566
     29          6           0       -9.828360   -0.314128   -0.877216
     30          6           0      -12.384979    2.437397   -1.462161
     31          6           0      -12.372524   -0.770200   -1.706350
     32          6           0      -12.228170   -1.219258   -3.186148
     33          7           0       -7.192730   -1.385992   -0.146954
     34          6           0       -8.209851   -2.221600   -0.660481
     35          6           0       -7.792483   -3.600092   -0.635656
     36          6           0       -6.475740   -3.501776   -0.143467
     37          6           0       -6.187840   -2.137829    0.160781
     38          6           0       -8.521522   -4.885090   -0.893589
     39          6           0       -5.344274   -4.377639    0.227813
     40          8           0       -5.200290   -5.495850    0.244345
     41          6           0       -4.170042   -3.254151    0.566637
     42          6           0       -3.632934   -3.669707    1.959032
     43          8           0       -3.643952   -3.106459    3.041314
     44          8           0       -2.962500   -4.859303    1.775283
     45          6           0       -2.290779   -5.213013    3.018462
     46          6           0        2.826545   -0.719108   -1.185921
     47          6           0        4.046532   -0.435886   -0.412574
     48          6           0        5.067355    0.179022   -0.994559
     49          6           0        5.087864    0.981846   -2.287121
     50          6           0        6.361483    0.291035   -0.348095
     51          6           0        7.661741   -0.264433   -1.079946
     52          6           0        8.890662   -0.195578   -0.184048
     53          6           0       10.209889   -0.608305   -0.949034
     54          6           0       10.105870   -2.179030   -1.302328
     55          6           0       11.539686   -0.233571   -0.179378
     56          6           0       12.869729   -0.633617   -0.681599
     57          6           0       13.962335   -0.158774    0.061855
     58          6           0       15.323362   -0.182582   -0.533331
     59          6           0       15.763884   -1.513325   -1.028704
     60          6           0       16.409253    0.561666    0.294586
     61          6           0       17.851418    0.775213   -0.204891
     62          6           0       18.863199    1.250737    0.783480
     63          6           0       20.285460    1.404903    0.353928
     64          6           0       20.410649    2.267725   -1.064390
     65          6           0       21.040573    2.017684    1.510306
     66          1           0       -4.204126    3.675652    1.627522
     67          1           0      -10.229907    3.920816   -0.877527
     68          1           0      -10.202889   -2.424353   -1.140578
     69          1           0       -2.680825   -0.951987    2.289266
     70          1           0       -2.253410    1.808804    1.149696
     71          1           0       -1.747717    1.369749    3.524688
     72          1           0       -3.439045    2.328782    3.629082
     73          1           0       -3.465881    0.570107    3.820584
     74          1           0       -2.094746   -1.770760   -0.379826
     75          1           0       -2.163001    0.073495   -0.689526
     76          1           0       -0.482646    0.576718    0.878130
     77          1           0       -0.241187   -1.014194    1.304429
     78          1           0       -4.501808    6.104259    0.731524
     79          1           0       -6.037189    6.692793    1.768057
     80          1           0       -4.954123    5.562027    2.205596
     81          1           0       -9.695192    5.817160    0.136082
     82          1           0       -9.106247    8.111928   -0.017929
     83          1           0       -7.248097    7.597034    0.027552
     84          1           0      -12.317812    3.305765   -2.240327
     85          1           0      -13.189650    1.868706   -1.553040
     86          1           0      -12.780475    3.155127   -0.571884
     87          1           0      -12.100668   -1.655721   -0.893876
     88          1           0      -13.419210   -0.300831   -1.578928
     89          1           0      -13.108287   -1.698668   -3.510961
     90          1           0      -12.216342   -0.355856   -3.960068
     91          1           0      -11.329619   -1.682301   -3.426414
     92          1           0       -9.229079   -4.924517   -1.780962
     93          1           0       -7.900151   -5.794461   -1.208426
     94          1           0       -9.211279   -5.051501   -0.067502
     95          1           0       -3.383201   -3.683024    0.099308
     96          1           0       -1.598301   -4.462135    3.324535
     97          1           0       -3.241284   -5.510961    3.648427
     98          1           0       -1.692067   -6.189870    2.742406
     99          1           0        2.564766   -1.750025   -1.393449
    100          1           0        2.594279   -0.096730   -2.087074
    101          1           0        4.276796   -0.970651    0.539774
    102          1           0        4.108302    1.019204   -2.661681
    103          1           0        5.703450    2.017263   -2.327049
    104          1           0        5.760204    0.264279   -2.945667
    105          1           0        6.621327    1.365756   -0.099066
    106          1           0        6.317648   -0.127485    0.978768
    107          1           0        7.520164   -1.525198   -1.295622
    108          1           0        7.829866    0.248486   -2.018731
    109          1           0        8.904710    0.703310   -0.006506
    110          1           0        8.969035   -0.974798    0.595010
    111          1           0       10.408135   -0.193739   -2.093727
    112          1           0        9.104848   -2.543228   -1.881992
    113          1           0       10.758515   -2.526883   -2.053825
    114          1           0       10.140186   -2.730548   -0.337257
    115          1           0       11.314243    0.743852    0.171386
    116          1           0       11.552558   -0.679756    0.889564
    117          1           0       12.895613   -1.711909   -0.924760
    118          1           0       12.706309   -0.041601   -1.739841
    119          1           0       13.791977    0.890688    0.464697
    120          1           0       14.212010   -0.788842    1.125811
    121          1           0       15.333570    0.575558   -1.250135
    122          1           0       15.594042   -2.485953   -0.268232
    123          1           0       14.978457   -1.953456   -1.817969
    124          1           0       16.751907   -1.616730   -1.530391
    125          1           0       15.920817    1.550897    0.737264
    126          1           0       16.308951   -0.010644    1.191615
    127          1           0       18.031640   -0.232384   -0.594327
    128          1           0       17.877730    1.326995   -1.097972
    129          1           0       18.378259    2.174670    1.319112
    130          1           0       18.777006    0.599597    1.659679
    131          1           0       20.558286    0.455728    0.226797
    132          1           0       20.227988    3.455979   -0.869386
    133          1           0       21.455489    2.003283   -1.652535
    134          1           0       19.572103    1.797619   -1.584906
    135          1           0       20.909994    1.404257    2.405960
    136          1           0       22.243378    2.086848    1.457207
    137          1           0       20.878911    2.999146    1.518009
 ---------------------------------------------------------------------

 SCF Done:  E(RCAM-B3LYP) =  -2932.55177900     A.U. after   15 cycles

 Excitation energies and oscillator strengths:

 Excited State   1:      Singlet-A      1.9815 eV  625.71 nm  f=0.2943  <S**2>=0.000
     240 -> 243        0.19238
     241 -> 242        0.67239
 This state for optimization and/or second-order correction.
 Total Energy, E(TD-HF/TD-KS) =  -2932.47895984
 Copying the excited state density for this state as the 1-particle RhoCI density.

 The electronic state is 1-A.
 Alpha  occ. eigenvalues --  -46.83795 -19.24941 -19.24358 -19.21430 -19.20469
 Alpha  occ. eigenvalues --  -19.18750 -14.40728 -14.40629 -14.39503 -14.39123
 Alpha  occ. eigenvalues --  -10.38301 -10.37689 -10.34904 -10.32285 -10.31558
 Alpha  occ. eigenvalues --  -10.30633 -10.30075 -10.29879 -10.29531 -10.29506
 Alpha  occ. eigenvalues --  -10.29416 -10.28991 -10.28860 -10.28842 -10.28837
 Alpha  occ. eigenvalues --  -10.28773 -10.28681 -10.28578 -10.28235 -10.28201
 Alpha  occ. eigenvalues --  -10.27987 -10.27953 -10.27754 -10.27743 -10.27627
 Alpha  occ. eigenvalues --  -10.27523 -10.27518 -10.27459 -10.27279 -10.27240
 Alpha  occ. eigenvalues --  -10.27206 -10.27139 -10.27045 -10.26924 -10.26731
 Alpha  occ. eigenvalues --  -10.26670 -10.26529 -10.26386 -10.26267 -10.26248
 Alpha  occ. eigenvalues --  -10.26101 -10.25806 -10.25625 -10.25556 -10.25540
 Alpha  occ. eigenvalues --  -10.25409 -10.25372 -10.25245 -10.25232 -10.25201
 Alpha  occ. eigenvalues --  -10.24866 -10.24779 -10.24747 -10.24095 -10.24063
 Alpha  occ. eigenvalues --   -3.12936  -1.87638  -1.87182  -1.87114  -1.17218
 Alpha  occ. eigenvalues --   -1.16721  -1.16320  -1.07696  -1.06323  -1.04721
 Alpha  occ. eigenvalues --   -1.03605  -1.02722  -1.00090  -0.92311  -0.92243
 Alpha  occ. eigenvalues --   -0.92019  -0.90319  -0.90108  -0.89228  -0.89011
 Alpha  occ. eigenvalues --   -0.88640  -0.88310  -0.87432  -0.86495  -0.86354
 Alpha  occ. eigenvalues --   -0.84961  -0.84240  -0.83860  -0.83388  -0.83059
 Alpha  occ. eigenvalues --   -0.82043  -0.80631  -0.80353  -0.79798  -0.78147
 Alpha  occ. eigenvalues --   -0.77446  -0.77057  -0.76176  -0.75315  -0.75261
 Alpha  occ. eigenvalues --   -0.75162  -0.74670  -0.74264  -0.73529  -0.72958
 Alpha  occ. eigenvalues --   -0.71060  -0.70561  -0.69810  -0.69083  -0.67663
 Alpha  occ. eigenvalues --   -0.67040  -0.66747  -0.65123  -0.64680  -0.64191
 Alpha  occ. eigenvalues --   -0.63706  -0.63342  -0.62621  -0.62005  -0.61821
 Alpha  occ. eigenvalues --   -0.61037  -0.59850  -0.59642  -0.59057  -0.58625
 Alpha  occ. eigenvalues --   -0.58216  -0.58019  -0.57594  -0.56813  -0.56510
 Alpha  occ. eigenvalues --   -0.56269  -0.55930  -0.55234  -0.55004  -0.54972
 Alpha  occ. eigenvalues --   -0.54565  -0.54135  -0.53683  -0.53666  -0.53212
 Alpha  occ. eigenvalues --   -0.53059  -0.52521  -0.52054  -0.51965  -0.51526
 Alpha  occ. eigenvalues --   -0.51381  -0.51304  -0.50953  -0.50674  -0.50552
 Alpha  occ. eigenvalues --   -0.50210  -0.50171  -0.49923  -0.49756  -0.49582
 Alpha  occ. eigenvalues --   -0.49483  -0.49210  -0.49144  -0.48789  -0.48447
 Alpha  occ. eigenvalues --   -0.48259  -0.48194  -0.48099  -0.47376  -0.47069
 Alpha  occ. eigenvalues --   -0.46894  -0.46711  -0.46352  -0.45762  -0.45671
 Alpha  occ. eigenvalues --   -0.45601  -0.45419  -0.45243  -0.45054  -0.44970
 Alpha  occ. eigenvalues --   -0.44882  -0.44778  -0.44541  -0.44520  -0.44430
 Alpha  occ. eigenvalues --   -0.44241  -0.44175  -0.43841  -0.43583  -0.43217
 Alpha  occ. eigenvalues --   -0.43121  -0.42910  -0.42811  -0.42599  -0.42306
 Alpha  occ. eigenvalues --   -0.42219  -0.42009  -0.41713  -0.41484  -0.41198
 Alpha  occ. eigenvalues --   -0.41114  -0.40670  -0.40368  -0.40259  -0.40048
 Alpha  occ. eigenvalues --   -0.39631  -0.39443  -0.39395  -0.39271  -0.39107
 Alpha  occ. eigenvalues --   -0.38669  -0.38629  -0.38139  -0.37697  -0.37567
 Alpha  occ. eigenvalues --   -0.37489  -0.36498  -0.36423  -0.36377  -0.36355
 Alpha  occ. eigenvalues --   -0.36050  -0.36016  -0.35374  -0.35332  -0.35102
 Alpha  occ. eigenvalues --   -0.34980  -0.34588  -0.33453  -0.33409  -0.33115
 Alpha  occ. eigenvalues --   -0.33046  -0.32105  -0.31878  -0.30658  -0.29924
 Alpha  occ. eigenvalues --   -0.29586  -0.29201  -0.28018  -0.27061  -0.23093
 Alpha  occ. eigenvalues --   -0.21366
 Alpha virt. eigenvalues --   -0.07092  -0.02314   0.03093   0.04963   0.05132
 Alpha virt. eigenvalues --    0.05652   0.06704   0.07247   0.07729   0.08127
 Alpha virt. eigenvalues --    0.08695   0.10805   0.10951   0.11293   0.11561

 Mulliken charges:
               1
     1  Mg   0.821680
     2  C    0.118130
     3  C   -0.211803
     4  C   -0.166037
     5  C   -0.147455
     6  N   -0.651365
     7  C    0.240200
     8  C   -0.132411
     9  C   -0.154488
    10  C    0.404463
    11  C   -0.314849
    12  C   -0.171000
    13  C   -0.235228
    14  C    0.571063
    15  O   -0.500592
    16  O   -0.499060
    17  N   -0.708045
    18  C    0.364007
    19  C    0.001261
    20  C    0.019757
    21  C    0.246668
    22  C   -0.391283
    23  C   -0.058222
    24  C   -0.240446
    25  N   -0.684302
    26  C    0.238934
    27  C    0.038142
    28  C    0.017318
    29  C    0.325033
    30  C   -0.378080
    31  C   -0.241701
    32  C   -0.309260
    33  N   -0.710955
    34  C    0.211714
    35  C    0.061516
    36  C   -0.075657
    37  C    0.335578
    38  C   -0.391694
    39  C    0.373222
    40  O   -0.370179
    41  C   -0.362889
    42  C    0.600423
    43  O   -0.488796
    44  O   -0.468683
    45  C   -0.068934
    46  C    0.003906
    47  C   -0.115282
    48  C    0.146051
    49  C   -0.348461
    50  C   -0.217598
    51  C   -0.178408
    52  C   -0.122273
    53  C   -0.083977
    54  C   -0.317389
    55  C   -0.176056
    56  C   -0.146719
    57  C   -0.155448
    58  C   -0.038255
    59  C   -0.314194
    60  C   -0.201848
    61  C   -0.184960
    62  C   -0.170096
    63  C   -0.052336
    64  C   -0.308834
    65  C   -0.296082
    66  H    0.071263
    67  H    0.109934
    68  H    0.096707
    69  H    0.142162
    70  H    0.096631
    71  H    0.107716
    72  H    0.098734
    73  H    0.128329
    74  H    0.099484
    75  H    0.108591
    76  H    0.133748
    77  H    0.136125
    78  H    0.110405
    79  H    0.104252
    80  H    0.138148
    81  H    0.084759
    82  H    0.096394
    83  H    0.109407
    84  H    0.116407
    85  H    0.121651
    86  H    0.093936
    87  H    0.092802
    88  H    0.106444
    89  H    0.113963
    90  H    0.097638
    91  H    0.123858
    92  H    0.110072
    93  H    0.144091
    94  H    0.141324
    95  H    0.169065
    96  H    0.136642
    97  H    0.129916
    98  H    0.105841
    99  H    0.146036
   100  H    0.135280
   101  H    0.105431
   102  H    0.114539
   103  H    0.113749
   104  H    0.118150
   105  H    0.103764
   106  H    0.028564
   107  H    0.066354
   108  H    0.109298
   109  H    0.093143
   110  H    0.112573
   111  H    0.050979
   112  H    0.076840
   113  H    0.112140
   114  H    0.101405
   115  H    0.101617
   116  H    0.061839
   117  H    0.112065
   118  H    0.066639
   119  H    0.091956
   120  H    0.050947
   121  H    0.105274
   122  H    0.074744
   123  H    0.088054
   124  H    0.113015
   125  H    0.060410
   126  H    0.088737
   127  H    0.090662
   128  H    0.105204
   129  H    0.071991
   130  H    0.096576
   131  H    0.103482
   132  H    0.091392
   133  H    0.088879
   134  H    0.111025
   135  H    0.101927
   136  H    0.063299
   137  H    0.118140
 Sum of Mulliken charges =   0.00000

 Dipole moment (field-independent basis, Debye):
    X=              0.6020    Y=              3.3288    Z=             -1.1369  Tot=              3.5687
 Quadrupole moment (field-independent basis, Debye-Ang):
   XX=           -324.0796   YY=           -391.2399   ZZ=           -400.5883
   XY=            -14.5067   XZ=             13.5144   YZ=             -0.3846

 Normal termination of Gaussian 09 at Fri Jun 28 03:52:28 2019.
