 Gaussian 09, Revision D.01,
 Gaussian 09:  ES64L-G09RevD.01 24-Apr-2013

 -------------------------------------
 # td=(NStates=1) CAM-B3LYP/6-31G(d,p)
 -------------------------------------

 --
 TD
 --
 Symbolic Z-matrix:
 Charge =  0 Multiplicity = 1

                         Standard orientation:
 ---------------------------------------------------------------------
 Center     Atomic      Atomic             Coordinates (Angstroms)
 Number     Number       Type             X           Y           Z
 ---------------------------------------------------------------------
      1         12           0       -7.119774    0.581872    0.094706
      2          6           0       -4.904952   -2.028367    0.485069
      3          6           0       -4.759400    2.868102    1.142578
      4          6           0       -9.374354    3.186809   -0.331479
      5          6           0       -9.603380   -1.739857   -0.803010
      6          7           0       -5.053208    0.474943    0.694022
      7          6           0       -4.292675   -0.760711    0.709180
      8          6           0       -2.779980   -0.459462    1.220601
      9          6           0       -2.956642    1.120665    1.659159
     10          6           0       -4.317398    1.532705    1.280633
     11          6           0       -2.759477    1.233303    3.189694
     12          6           0       -1.873449   -0.781197    0.200308
     13          6           0       -0.435365   -0.299341    0.592345
     14          6           0        0.522029   -0.714148   -0.559845
     15          8           0        0.181449   -1.162155   -1.705717
     16          8           0        1.838866   -0.420195   -0.254762
     17          7           0       -7.032104    2.639575    0.377804
     18          6           0       -6.055450    3.365240    0.827879
     19          6           0       -6.430506    4.783346    0.983689
     20          6           0       -7.775064    4.915646    0.525858
     21          6           0       -8.143091    3.439530    0.251325
     22          6           0       -5.638952    5.879873    1.525795
     23          6           0       -8.582070    5.980554    0.347433
     24          6           0       -8.187331    7.291953    0.174534
     25          7           0       -9.061859    0.696251   -0.513744
     26          6           0       -9.900934    1.878286   -0.629599
     27          6           0      -11.112728    1.565373   -1.245310
     28          6           0      -11.143865    0.215194   -1.342369
     29          6           0       -9.945476   -0.361261   -0.960602
     30          6           0      -12.223807    2.491260   -1.563433
     31          6           0      -12.233823   -0.648209   -1.893287
     32          6           0      -12.118272   -0.898418   -3.389808
     33          7           0       -7.257109   -1.338470   -0.152552
     34          6           0       -8.353193   -2.252174   -0.487179
     35          6           0       -7.906951   -3.616434   -0.473595
     36          6           0       -6.552066   -3.525134   -0.127447
     37          6           0       -6.182844   -2.263791    0.096629
     38          6           0       -8.831352   -4.724469   -0.674751
     39          6           0       -5.375983   -4.356734    0.153910
     40          8           0       -5.221806   -5.537739    0.257749
     41          6           0       -4.203734   -3.330962    0.614117
     42          6           0       -3.494616   -3.756065    1.825261
     43          8           0       -3.691526   -3.275925    2.968545
     44          8           0       -2.736922   -4.796350    1.644009
     45          6           0       -2.209123   -5.349582    2.903436
     46          6           0        2.827199   -0.674001   -1.226004
     47          6           0        4.142852   -0.429748   -0.644396
     48          6           0        5.132058    0.347467   -1.047883
     49          6           0        5.121543    1.147332   -2.326416
     50          6           0        6.378565    0.358665   -0.285982
     51          6           0        7.591670   -0.202766   -1.018780
     52          6           0        8.756728   -0.135601   -0.188289
     53          6           0       10.057632   -0.661349   -0.863228
     54          6           0        9.957933   -2.253403   -1.044065
     55          6           0       11.300605   -0.297714   -0.091044
     56          6           0       12.725204   -0.572681   -0.666029
     57          6           0       13.898774   -0.237662    0.213952
     58          6           0       15.346577   -0.176999   -0.581894
     59          6           0       15.834615   -1.590203   -1.020872
     60          6           0       16.333451    0.543460    0.429273
     61          6           0       17.711991    0.630454   -0.224611
     62          6           0       18.702445    1.460033    0.616293
     63          6           0       20.161830    1.419839    0.356867
     64          6           0       20.432305    2.209719   -0.979810
     65          6           0       21.046080    1.930635    1.310646
     66          1           0       -4.144307    3.539625    1.801188
     67          1           0      -10.020116    3.924723   -0.368575
     68          1           0      -10.369370   -2.416473   -0.875785
     69          1           0       -2.674781   -1.068710    2.037676
     70          1           0       -2.097973    1.819809    1.164097
     71          1           0       -1.690428    1.292664    3.386314
     72          1           0       -3.034482    2.245953    3.563194
     73          1           0       -3.434516    0.569501    3.840344
     74          1           0       -1.964119   -1.888462   -0.071478
     75          1           0       -2.432550   -0.301639   -0.774752
     76          1           0       -0.370602    0.795904    0.841010
     77          1           0       -0.015663   -0.850284    1.564313
     78          1           0       -4.927201    6.147623    0.621773
     79          1           0       -5.975554    6.678692    2.129291
     80          1           0       -4.812111    5.425200    2.128003
     81          1           0       -9.711485    5.683658    0.364779
     82          1           0       -8.997511    7.937577    0.051655
     83          1           0       -7.155542    7.544349    0.402194
     84          1           0      -11.915870    3.121879   -2.401989
     85          1           0      -13.131507    2.058072   -1.643316
     86          1           0      -12.506791    3.113948   -0.723792
     87          1           0      -12.385326   -1.518448   -1.258477
     88          1           0      -13.140606   -0.193443   -1.864215
     89          1           0      -12.794294   -1.804788   -3.486503
     90          1           0      -12.469239   -0.059359   -4.016887
     91          1           0      -11.216445   -1.353973   -3.477932
     92          1           0       -9.442384   -4.896735   -1.707015
     93          1           0       -8.271940   -5.606794   -0.757333
     94          1           0       -9.546354   -4.830569    0.160997
     95          1           0       -3.445468   -3.376540   -0.271965
     96          1           0       -1.683755   -4.601032    3.415129
     97          1           0       -3.062690   -5.602280    3.668726
     98          1           0       -1.567493   -6.104933    2.597124
     99          1           0        2.786761   -1.805905   -1.612468
    100          1           0        2.650875   -0.059306   -2.120375
    101          1           0        4.286782   -1.017801    0.179047
    102          1           0        4.029252    1.314329   -2.586104
    103          1           0        5.695887    2.127511   -2.287987
    104          1           0        5.735753    0.642648   -3.094562
    105          1           0        6.616441    1.333006    0.030651
    106          1           0        5.918175   -0.282665    0.484785
    107          1           0        7.327648   -1.199629   -1.346430
    108          1           0        7.846761    0.433109   -1.919437
    109          1           0        9.105892    0.855573    0.078960
    110          1           0        8.630882   -0.723573    0.706580
    111          1           0       10.247003   -0.202634   -1.834993
    112          1           0        8.972144   -2.689584   -1.490182
    113          1           0       10.764985   -2.843287   -1.528209
    114          1           0        9.983250   -2.767383    0.014336
    115          1           0       11.281786    0.851207    0.065770
    116          1           0       11.368172   -0.816328    0.943673
    117          1           0       13.005492   -1.715111   -0.692279
    118          1           0       13.046663   -0.139897   -1.619645
    119          1           0       13.649804    0.872764    0.598061
    120          1           0       13.892795   -0.919874    0.994497
    121          1           0       15.341321    0.329369   -1.420313
    122          1           0       15.960886   -2.167224   -0.148273
    123          1           0       15.296723   -2.062263   -1.949534
    124          1           0       16.863792   -1.674073   -1.380880
    125          1           0       15.966309    1.523607    0.450896
    126          1           0       16.355741   -0.098296    1.330068
    127          1           0       18.115026   -0.222736   -0.269023
    128          1           0       17.680084    1.027354   -1.214227
    129          1           0       18.500394    2.479120    0.954116
    130          1           0       18.619029    1.021953    1.788098
    131          1           0       20.337087    0.293642    0.022682
    132          1           0       20.455161    3.386415   -0.649985
    133          1           0       21.566702    2.038570   -1.409375
    134          1           0       19.821146    2.071357   -1.677021
    135          1           0       21.192795    1.150395    1.979863
    136          1           0       22.257209    2.319429    0.943125
    137          1           0       20.599944    2.979870    1.721832
 ---------------------------------------------------------------------

 SCF Done:  E(RCAM-B3LYP) =  -2932.62308705     A.U. after   18 cycles

 Excitation energies and oscillator strengths:

 Excited State   1:      Singlet-A      2.0497 eV  604.90 nm  f=0.1746  <S**2>=0.000
     240 -> 243       -0.29521
     241 -> 242        0.62492
 This state for optimization and/or second-order correction.
 Total Energy, E(TD-HF/TD-KS) =  -2932.54776325
 Copying the excited state density for this state as the 1-particle RhoCI density.

 The electronic state is 1-A.
 Alpha  occ. eigenvalues --  -46.82958 -19.26961 -19.26586 -19.21261 -19.20719
 Alpha  occ. eigenvalues --  -19.19266 -14.41606 -14.40019 -14.38660 -14.38498
 Alpha  occ. eigenvalues --  -10.40457 -10.38568 -10.35399 -10.31941 -10.31563
 Alpha  occ. eigenvalues --  -10.31410 -10.31071 -10.30672 -10.30359 -10.29878
 Alpha  occ. eigenvalues --  -10.29476 -10.28822 -10.28725 -10.28628 -10.28216
 Alpha  occ. eigenvalues --  -10.28160 -10.28060 -10.27714 -10.27613 -10.27504
 Alpha  occ. eigenvalues --  -10.27428 -10.26996 -10.26819 -10.26756 -10.26714
 Alpha  occ. eigenvalues --  -10.26700 -10.26655 -10.26603 -10.26514 -10.26503
 Alpha  occ. eigenvalues --  -10.26307 -10.26292 -10.26227 -10.26096 -10.26065
 Alpha  occ. eigenvalues --  -10.25998 -10.25937 -10.25891 -10.25871 -10.25617
 Alpha  occ. eigenvalues --  -10.25379 -10.25336 -10.25327 -10.25037 -10.25021
 Alpha  occ. eigenvalues --  -10.24958 -10.24752 -10.24717 -10.24656 -10.24568
 Alpha  occ. eigenvalues --  -10.24557 -10.24438 -10.24410 -10.24323 -10.23830
 Alpha  occ. eigenvalues --   -3.12096  -1.86789  -1.86354  -1.86271  -1.18966
 Alpha  occ. eigenvalues --   -1.16899  -1.12362  -1.06920  -1.06386  -1.04738
 Alpha  occ. eigenvalues --   -1.01734  -1.00127  -0.99641  -0.92853  -0.92808
 Alpha  occ. eigenvalues --   -0.91245  -0.90533  -0.90252  -0.90049  -0.88887
 Alpha  occ. eigenvalues --   -0.88847  -0.87781  -0.87361  -0.86761  -0.86296
 Alpha  occ. eigenvalues --   -0.85499  -0.84513  -0.84258  -0.83507  -0.83046
 Alpha  occ. eigenvalues --   -0.82142  -0.81516  -0.80526  -0.80097  -0.78688
 Alpha  occ. eigenvalues --   -0.78131  -0.77205  -0.76838  -0.76373  -0.75633
 Alpha  occ. eigenvalues --   -0.75303  -0.75049  -0.74164  -0.73073  -0.72465
 Alpha  occ. eigenvalues --   -0.72249  -0.70464  -0.69991  -0.69303  -0.68786
 Alpha  occ. eigenvalues --   -0.67649  -0.67130  -0.65216  -0.65101  -0.64559
 Alpha  occ. eigenvalues --   -0.64083  -0.63953  -0.63040  -0.62581  -0.61758
 Alpha  occ. eigenvalues --   -0.61360  -0.60871  -0.60718  -0.59292  -0.58899
 Alpha  occ. eigenvalues --   -0.58879  -0.58328  -0.57580  -0.57141  -0.56560
 Alpha  occ. eigenvalues --   -0.56339  -0.55847  -0.55454  -0.55318  -0.54946
 Alpha  occ. eigenvalues --   -0.54541  -0.54291  -0.54060  -0.53883  -0.53708
 Alpha  occ. eigenvalues --   -0.53564  -0.52990  -0.52770  -0.51948  -0.51785
 Alpha  occ. eigenvalues --   -0.51471  -0.51394  -0.51157  -0.51096  -0.51056
 Alpha  occ. eigenvalues --   -0.50934  -0.50527  -0.50152  -0.49630  -0.49462
 Alpha  occ. eigenvalues --   -0.49350  -0.49157  -0.48777  -0.48549  -0.48418
 Alpha  occ. eigenvalues --   -0.48221  -0.47870  -0.47788  -0.47623  -0.47216
 Alpha  occ. eigenvalues --   -0.47030  -0.46845  -0.46470  -0.46370  -0.46181
 Alpha  occ. eigenvalues --   -0.45752  -0.45715  -0.45457  -0.45330  -0.44682
 Alpha  occ. eigenvalues --   -0.44572  -0.44473  -0.44305  -0.44128  -0.44008
 Alpha  occ. eigenvalues --   -0.43887  -0.43665  -0.43505  -0.43176  -0.42977
 Alpha  occ. eigenvalues --   -0.42707  -0.42661  -0.42358  -0.42262  -0.42228
 Alpha  occ. eigenvalues --   -0.42127  -0.41836  -0.41782  -0.41683  -0.41517
 Alpha  occ. eigenvalues --   -0.41432  -0.41264  -0.40802  -0.40564  -0.40234
 Alpha  occ. eigenvalues --   -0.40010  -0.39842  -0.39739  -0.39319  -0.39132
 Alpha  occ. eigenvalues --   -0.38676  -0.38554  -0.38301  -0.38173  -0.37787
 Alpha  occ. eigenvalues --   -0.37720  -0.37384  -0.37319  -0.36773  -0.36561
 Alpha  occ. eigenvalues --   -0.36509  -0.35833  -0.35634  -0.35453  -0.35342
 Alpha  occ. eigenvalues --   -0.35181  -0.34640  -0.33955  -0.33702  -0.33522
 Alpha  occ. eigenvalues --   -0.33065  -0.32690  -0.32037  -0.30703  -0.29868
 Alpha  occ. eigenvalues --   -0.29794  -0.28801  -0.27255  -0.26194  -0.22880
 Alpha  occ. eigenvalues --   -0.21567
 Alpha virt. eigenvalues --   -0.06518  -0.03962   0.01015   0.03313   0.04248
 Alpha virt. eigenvalues --    0.05624   0.06412   0.06790   0.07115   0.07424
 Alpha virt. eigenvalues --    0.07941   0.10699   0.11311   0.11819   0.12152

 Mulliken charges:
               1
     1  Mg   0.811294
     2  C    0.100339
     3  C   -0.197993
     4  C   -0.117832
     5  C   -0.155698
     6  N   -0.612402
     7  C    0.203626
     8  C   -0.104671
     9  C   -0.167995
    10  C    0.332578
    11  C   -0.317229
    12  C   -0.151795
    13  C   -0.270505
    14  C    0.615121
    15  O   -0.487573
    16  O   -0.474541
    17  N   -0.668076
    18  C    0.346971
    19  C    0.005239
    20  C    0.074357
    21  C    0.265357
    22  C   -0.398126
    23  C   -0.122604
    24  C   -0.243796
    25  N   -0.680535
    26  C    0.230013
    27  C    0.034546
    28  C    0.021736
    29  C    0.276665
    30  C   -0.372179
    31  C   -0.256756
    32  C   -0.298220
    33  N   -0.746480
    34  C    0.254208
    35  C    0.063338
    36  C    0.018940
    37  C    0.305745
    38  C   -0.399288
    39  C    0.347369
    40  O   -0.433294
    41  C   -0.354760
    42  C    0.636063
    43  O   -0.529472
    44  O   -0.429922
    45  C   -0.083065
    46  C    0.018962
    47  C   -0.133500
    48  C    0.129447
    49  C   -0.365273
    50  C   -0.217961
    51  C   -0.167548
    52  C   -0.157064
    53  C   -0.055516
    54  C   -0.323429
    55  C   -0.163260
    56  C   -0.177679
    57  C   -0.174678
    58  C   -0.070097
    59  C   -0.335262
    60  C   -0.170484
    61  C   -0.164172
    62  C   -0.170589
    63  C   -0.035507
    64  C   -0.270851
    65  C   -0.273717
    66  H    0.072315
    67  H    0.063716
    68  H    0.089361
    69  H    0.137294
    70  H    0.098767
    71  H    0.108109
    72  H    0.101496
    73  H    0.134998
    74  H    0.118358
    75  H    0.109682
    76  H    0.145486
    77  H    0.131888
    78  H    0.119394
    79  H    0.139995
    80  H    0.108099
    81  H    0.090128
    82  H    0.106967
    83  H    0.110478
    84  H    0.125296
    85  H    0.119803
    86  H    0.115365
    87  H    0.102970
    88  H    0.103307
    89  H    0.089009
    90  H    0.117275
    91  H    0.122866
    92  H    0.107175
    93  H    0.148418
    94  H    0.137837
    95  H    0.152481
    96  H    0.140263
    97  H    0.137296
    98  H    0.129735
    99  H    0.107662
   100  H    0.111609
   101  H    0.088430
   102  H    0.106668
   103  H    0.102647
   104  H    0.127936
   105  H    0.104135
   106  H    0.091947
   107  H    0.105220
   108  H    0.085103
   109  H    0.090861
   110  H    0.099158
   111  H    0.089022
   112  H    0.089042
   113  H    0.109563
   114  H    0.079892
   115  H    0.075543
   116  H    0.080213
   117  H    0.079230
   118  H    0.088609
   119  H    0.057184
   120  H    0.100497
   121  H    0.094244
   122  H    0.107135
   123  H    0.097146
   124  H    0.101972
   125  H    0.110358
   126  H    0.098391
   127  H    0.109229
   128  H    0.097311
   129  H    0.088043
   130  H    0.035984
   131  H    0.063817
   132  H    0.063305
   133  H    0.071668
   134  H    0.101863
   135  H    0.114363
   136  H    0.062825
   137  H    0.086029
 Sum of Mulliken charges =   0.00000

 Dipole moment (field-independent basis, Debye):
    X=              0.8317    Y=              3.5583    Z=              1.0568  Tot=              3.8040
 Quadrupole moment (field-independent basis, Debye-Ang):
   XX=           -344.8153   YY=           -387.6802   ZZ=           -400.1001
   XY=            -24.4817   XZ=              2.3954   YZ=              0.5598

 Normal termination of Gaussian 09 at Mon Jul  1 01:26:10 2019.
