 Gaussian 09, Revision D.01,
 Gaussian 09:  ES64L-G09RevD.01 24-Apr-2013

 -------------------------------------
 # td=(NStates=1) CAM-B3LYP/6-31G(d,p)
 -------------------------------------

 --
 TD
 --
 Symbolic Z-matrix:
 Charge =  0 Multiplicity = 1

                         Standard orientation:
 ---------------------------------------------------------------------
 Center     Atomic      Atomic             Coordinates (Angstroms)
 Number     Number       Type             X           Y           Z
 ---------------------------------------------------------------------
      1         12           0       -7.216605    0.632026    0.139907
      2          6           0       -4.893077   -1.888410    0.533696
      3          6           0       -4.830719    2.811285    1.175019
      4          6           0       -9.391806    3.127847   -0.327513
      5          6           0       -9.615149   -1.752789   -0.861237
      6          7           0       -5.089475    0.410361    0.792044
      7          6           0       -4.313795   -0.680705    0.751500
      8          6           0       -2.919566   -0.375905    1.338129
      9          6           0       -3.063202    1.087285    1.688848
     10          6           0       -4.384390    1.460756    1.192126
     11          6           0       -2.868182    1.209802    3.268191
     12          6           0       -1.934500   -0.661045    0.022939
     13          6           0       -0.439316   -0.444136    0.444566
     14          6           0        0.461088   -0.462698   -0.717737
     15          8           0        0.203935   -0.679281   -1.880170
     16          8           0        1.729344   -0.371187   -0.199392
     17          7           0       -7.197844    2.647580    0.469094
     18          6           0       -6.127546    3.408209    0.805113
     19          6           0       -6.449661    4.815264    0.913578
     20          6           0       -7.800500    4.817174    0.510622
     21          6           0       -8.185888    3.522144    0.154872
     22          6           0       -5.599880    5.895279    1.343308
     23          6           0       -8.588818    6.066432    0.341009
     24          6           0       -8.234060    7.187105   -0.172475
     25          7           0       -9.201921    0.670510   -0.460066
     26          6           0       -9.821967    1.807128   -0.513395
     27          6           0      -11.203492    1.435398   -1.049801
     28          6           0      -11.232897    0.087154   -1.220779
     29          6           0      -10.038770   -0.409132   -0.815415
     30          6           0      -12.291199    2.439722   -1.338470
     31          6           0      -12.367548   -0.747899   -1.888682
     32          6           0      -12.147633   -1.018682   -3.368305
     33          7           0       -7.324068   -1.312704    0.014688
     34          6           0       -8.301138   -2.233893   -0.462535
     35          6           0       -7.871281   -3.670463   -0.480812
     36          6           0       -6.589488   -3.553580   -0.024274
     37          6           0       -6.233165   -2.157275    0.179307
     38          6           0       -8.552046   -4.901168   -0.949807
     39          6           0       -5.319971   -4.388513    0.191563
     40          8           0       -5.117086   -5.547112    0.170770
     41          6           0       -4.246764   -3.338823    0.512503
     42          6           0       -3.568535   -3.646866    1.860898
     43          8           0       -3.762847   -3.212910    2.931774
     44          8           0       -2.718857   -4.678827    1.621035
     45          6           0       -2.250936   -5.353364    2.892983
     46          6           0        2.767251   -0.644967   -1.131487
     47          6           0        4.087912   -0.477697   -0.514796
     48          6           0        5.090818    0.270199   -0.889648
     49          6           0        5.072044    1.097606   -2.222091
     50          6           0        6.452335    0.443729   -0.139670
     51          6           0        7.678405   -0.125316   -0.820564
     52          6           0        8.971619   -0.255503   -0.013050
     53          6           0       10.275805   -0.675772   -0.844334
     54          6           0       10.170022   -2.025803   -1.436870
     55          6           0       11.467844   -0.478374    0.055661
     56          6           0       12.815670   -0.470110   -0.713076
     57          6           0       14.037987   -0.102225    0.089129
     58          6           0       15.345881   -0.164684   -0.623194
     59          6           0       15.833910   -1.710074   -0.950958
     60          6           0       16.477966    0.411978    0.293373
     61          6           0       17.834059    0.562812   -0.341795
     62          6           0       18.780102    1.291773    0.773804
     63          6           0       20.293636    1.456140    0.321216
     64          6           0       20.465982    2.177382   -1.076323
     65          6           0       21.044746    2.100186    1.486986
     66          1           0       -4.062277    3.714796    1.484015
     67          1           0      -10.125745    3.993061   -0.716775
     68          1           0      -10.321575   -2.454724   -1.398244
     69          1           0       -2.481721   -0.998348    2.178499
     70          1           0       -2.345540    1.792338    1.376492
     71          1           0       -1.787575    1.104530    3.493440
     72          1           0       -3.126151    2.269778    3.853201
     73          1           0       -3.141680    0.206484    4.010855
     74          1           0       -2.247418   -1.585303   -0.310514
     75          1           0       -2.040762   -0.023936   -0.764801
     76          1           0       -0.339495    0.396432    1.083741
     77          1           0       -0.170430   -1.377124    1.093603
     78          1           0       -5.050846    6.206983    0.348464
     79          1           0       -6.315098    6.616686    2.097455
     80          1           0       -4.665624    5.383444    1.917905
     81          1           0       -9.638421    5.440204    0.531103
     82          1           0       -8.915177    7.972106   -0.221756
     83          1           0       -7.215556    7.352113   -0.491831
     84          1           0      -12.251809    2.934925   -2.405655
     85          1           0      -13.248501    1.800934   -1.607215
     86          1           0      -12.684680    3.208149   -0.527911
     87          1           0      -12.605543   -1.671872   -1.367858
     88          1           0      -13.210562    0.013152   -1.828509
     89          1           0      -12.857183   -1.741688   -3.778333
     90          1           0      -12.279857   -0.035028   -3.898046
     91          1           0      -11.224881   -1.575958   -3.504383
     92          1           0       -8.884214   -4.770943   -2.069192
     93          1           0       -7.999375   -5.770114   -0.693155
     94          1           0       -9.596392   -5.041704   -0.446917
     95          1           0       -3.559501   -3.640461   -0.322398
     96          1           0       -1.622778   -4.618618    3.661078
     97          1           0       -3.270365   -5.653379    3.383376
     98          1           0       -1.693347   -6.256561    2.615374
     99          1           0        2.687067   -1.626050   -1.494920
    100          1           0        2.661394    0.013840   -2.142615
    101          1           0        4.572751   -1.313530    0.181987
    102          1           0        4.107959    1.166879   -2.676054
    103          1           0        5.351955    2.160457   -2.087176
    104          1           0        5.648488    0.567249   -2.948754
    105          1           0        6.450310    1.514884    0.111468
    106          1           0        6.275512   -0.075774    0.743500
    107          1           0        7.410510   -1.175947   -1.179335
    108          1           0        7.956214    0.606152   -1.793711
    109          1           0        9.318938    0.716502    0.336928
    110          1           0        8.826290   -1.040535    0.882013
    111          1           0       10.261820   -0.000829   -1.815300
    112          1           0        9.292027   -2.125430   -2.027087
    113          1           0       11.116856   -2.547944   -1.985824
    114          1           0        9.997675   -2.605003   -0.612089
    115          1           0       11.395051    0.323087    0.692077
    116          1           0       11.596621   -1.362518    0.842983
    117          1           0       12.960723   -1.573006   -1.342342
    118          1           0       12.654614    0.313990   -1.673369
    119          1           0       13.964517    0.958762    0.607441
    120          1           0       14.199341   -0.933633    0.985749
    121          1           0       15.462757    0.433440   -1.379452
    122          1           0       15.655507   -2.091657   -0.037768
    123          1           0       15.205003   -2.165374   -1.637696
    124          1           0       16.838488   -1.782067   -1.476664
    125          1           0       16.090872    1.409162    0.750787
    126          1           0       16.722279   -0.337011    1.136726
    127          1           0       18.582534   -0.357868   -0.604352
    128          1           0       17.777331    1.175454   -1.236228
    129          1           0       18.456809    2.242930    0.869832
    130          1           0       18.759317    0.577408    1.640701
    131          1           0       20.716020    0.486907    0.122421
    132          1           0       20.224759    3.233911   -0.817561
    133          1           0       21.568992    1.969742   -1.397237
    134          1           0       19.890987    1.615403   -1.806394
    135          1           0       20.958040    1.463256    2.286417
    136          1           0       22.051649    2.366936    1.229366
    137          1           0       20.439408    2.983955    2.044014
 ---------------------------------------------------------------------

 SCF Done:  E(RCAM-B3LYP) =  -2932.62560668     A.U. after   18 cycles

 Excitation energies and oscillator strengths:

 Excited State   1:      Singlet-A      2.0374 eV  608.53 nm  f=0.1911  <S**2>=0.000
     240 -> 242       -0.11838
     240 -> 243        0.27210
     241 -> 242        0.62925
     241 -> 243        0.10493
 This state for optimization and/or second-order correction.
 Total Energy, E(TD-HF/TD-KS) =  -2932.55073250
 Copying the excited state density for this state as the 1-particle RhoCI density.

 The electronic state is 1-A.
 Alpha  occ. eigenvalues --  -46.84586 -19.25941 -19.25514 -19.21833 -19.21267
 Alpha  occ. eigenvalues --  -19.21239 -14.41501 -14.40202 -14.39143 -14.38756
 Alpha  occ. eigenvalues --  -10.39358 -10.38728 -10.35521 -10.33255 -10.31846
 Alpha  occ. eigenvalues --  -10.30804 -10.30454 -10.30345 -10.30199 -10.29483
 Alpha  occ. eigenvalues --  -10.29483 -10.28812 -10.28794 -10.28701 -10.28697
 Alpha  occ. eigenvalues --  -10.28583 -10.28496 -10.28359 -10.28181 -10.27936
 Alpha  occ. eigenvalues --  -10.27824 -10.27782 -10.27716 -10.27716 -10.27642
 Alpha  occ. eigenvalues --  -10.27624 -10.27605 -10.27586 -10.27435 -10.27256
 Alpha  occ. eigenvalues --  -10.26999 -10.26895 -10.26857 -10.26677 -10.26520
 Alpha  occ. eigenvalues --  -10.26186 -10.25983 -10.25970 -10.25965 -10.25954
 Alpha  occ. eigenvalues --  -10.25856 -10.25768 -10.25760 -10.25578 -10.25528
 Alpha  occ. eigenvalues --  -10.25454 -10.25190 -10.25140 -10.25015 -10.24939
 Alpha  occ. eigenvalues --  -10.24699 -10.24636 -10.24259 -10.24005 -10.23633
 Alpha  occ. eigenvalues --   -3.13621  -1.88318  -1.87865  -1.87799  -1.18256
 Alpha  occ. eigenvalues --   -1.18113  -1.13993  -1.09913  -1.09234  -1.05848
 Alpha  occ. eigenvalues --   -1.04593  -1.03419  -1.01809  -0.91542  -0.91180
 Alpha  occ. eigenvalues --   -0.90402  -0.89698  -0.89541  -0.89307  -0.89228
 Alpha  occ. eigenvalues --   -0.87986  -0.87618  -0.87486  -0.86747  -0.85742
 Alpha  occ. eigenvalues --   -0.85010  -0.84279  -0.83308  -0.82926  -0.82334
 Alpha  occ. eigenvalues --   -0.81014  -0.80441  -0.79827  -0.79778  -0.78124
 Alpha  occ. eigenvalues --   -0.77263  -0.76810  -0.76552  -0.75784  -0.75663
 Alpha  occ. eigenvalues --   -0.75605  -0.74278  -0.73911  -0.73364  -0.72053
 Alpha  occ. eigenvalues --   -0.71180  -0.70400  -0.69263  -0.69075  -0.67930
 Alpha  occ. eigenvalues --   -0.66700  -0.66062  -0.65824  -0.64607  -0.63469
 Alpha  occ. eigenvalues --   -0.63351  -0.62877  -0.62673  -0.62197  -0.61763
 Alpha  occ. eigenvalues --   -0.61348  -0.60239  -0.59924  -0.58868  -0.58553
 Alpha  occ. eigenvalues --   -0.58437  -0.57698  -0.57205  -0.56778  -0.56717
 Alpha  occ. eigenvalues --   -0.56412  -0.55268  -0.54959  -0.54838  -0.54607
 Alpha  occ. eigenvalues --   -0.54563  -0.53913  -0.53708  -0.53426  -0.53226
 Alpha  occ. eigenvalues --   -0.52864  -0.52688  -0.52186  -0.52156  -0.51800
 Alpha  occ. eigenvalues --   -0.51374  -0.51085  -0.50917  -0.50683  -0.50520
 Alpha  occ. eigenvalues --   -0.50324  -0.50255  -0.49992  -0.49773  -0.49325
 Alpha  occ. eigenvalues --   -0.49162  -0.48876  -0.48761  -0.48686  -0.48264
 Alpha  occ. eigenvalues --   -0.47885  -0.47495  -0.47334  -0.47245  -0.47198
 Alpha  occ. eigenvalues --   -0.46769  -0.46488  -0.46156  -0.45954  -0.45899
 Alpha  occ. eigenvalues --   -0.45635  -0.45279  -0.45140  -0.45115  -0.45009
 Alpha  occ. eigenvalues --   -0.44883  -0.44732  -0.44560  -0.44286  -0.44203
 Alpha  occ. eigenvalues --   -0.44096  -0.43549  -0.43331  -0.43258  -0.43051
 Alpha  occ. eigenvalues --   -0.42889  -0.42679  -0.42638  -0.42513  -0.42446
 Alpha  occ. eigenvalues --   -0.42209  -0.41818  -0.41750  -0.41563  -0.41537
 Alpha  occ. eigenvalues --   -0.41142  -0.41039  -0.40645  -0.40568  -0.40468
 Alpha  occ. eigenvalues --   -0.40013  -0.39496  -0.39224  -0.38983  -0.38719
 Alpha  occ. eigenvalues --   -0.38594  -0.38193  -0.38173  -0.37419  -0.37289
 Alpha  occ. eigenvalues --   -0.37268  -0.36810  -0.36670  -0.36512  -0.36267
 Alpha  occ. eigenvalues --   -0.36143  -0.36047  -0.35863  -0.35727  -0.35431
 Alpha  occ. eigenvalues --   -0.35345  -0.35275  -0.34767  -0.34461  -0.34031
 Alpha  occ. eigenvalues --   -0.33168  -0.32933  -0.31851  -0.31134  -0.30583
 Alpha  occ. eigenvalues --   -0.30348  -0.30161  -0.27930  -0.27437  -0.22734
 Alpha  occ. eigenvalues --   -0.20944
 Alpha virt. eigenvalues --   -0.06105  -0.03177   0.01849   0.04859   0.05483
 Alpha virt. eigenvalues --    0.05760   0.06524   0.06738   0.07280   0.07393
 Alpha virt. eigenvalues --    0.08612   0.10264   0.10948   0.11196   0.11343

 Mulliken charges:
               1
     1  Mg   0.833644
     2  C    0.063026
     3  C   -0.224359
     4  C   -0.218271
     5  C   -0.182508
     6  N   -0.625786
     7  C    0.275348
     8  C   -0.163514
     9  C   -0.120775
    10  C    0.380998
    11  C   -0.319522
    12  C   -0.189520
    13  C   -0.279626
    14  C    0.621902
    15  O   -0.468486
    16  O   -0.476471
    17  N   -0.715441
    18  C    0.298630
    19  C    0.059612
    20  C   -0.051610
    21  C    0.386148
    22  C   -0.377580
    23  C   -0.034246
    24  C   -0.257531
    25  N   -0.712125
    26  C    0.348360
    27  C   -0.014480
    28  C    0.054536
    29  C    0.275622
    30  C   -0.394519
    31  C   -0.234248
    32  C   -0.297551
    33  N   -0.706609
    34  C    0.211785
    35  C    0.072577
    36  C   -0.042121
    37  C    0.282099
    38  C   -0.383433
    39  C    0.384024
    40  O   -0.423300
    41  C   -0.328311
    42  C    0.628020
    43  O   -0.449213
    44  O   -0.473080
    45  C   -0.082434
    46  C    0.021097
    47  C   -0.130426
    48  C    0.088798
    49  C   -0.362667
    50  C   -0.207879
    51  C   -0.163980
    52  C   -0.172068
    53  C   -0.058973
    54  C   -0.297325
    55  C   -0.158708
    56  C   -0.149111
    57  C   -0.150213
    58  C   -0.059655
    59  C   -0.316127
    60  C   -0.166334
    61  C   -0.193299
    62  C   -0.169947
    63  C   -0.078659
    64  C   -0.307369
    65  C   -0.304037
    66  H    0.057512
    67  H    0.113336
    68  H    0.094430
    69  H    0.129734
    70  H    0.119340
    71  H    0.108493
    72  H    0.094719
    73  H    0.098906
    74  H    0.126076
    75  H    0.129012
    76  H    0.144148
    77  H    0.137014
    78  H    0.129246
    79  H    0.126689
    80  H    0.098295
    81  H    0.077188
    82  H    0.111049
    83  H    0.111479
    84  H    0.109214
    85  H    0.091910
    86  H    0.115384
    87  H    0.106481
    88  H    0.094378
    89  H    0.103469
    90  H    0.107884
    91  H    0.108324
    92  H    0.122804
    93  H    0.155162
    94  H    0.115378
    95  H    0.164562
    96  H    0.114634
    97  H    0.132812
    98  H    0.135533
    99  H    0.127046
   100  H    0.105088
   101  H    0.071982
   102  H    0.107408
   103  H    0.106164
   104  H    0.130942
   105  H    0.111126
   106  H    0.102792
   107  H    0.096177
   108  H    0.069055
   109  H    0.100802
   110  H    0.074836
   111  H    0.070834
   112  H    0.104710
   113  H    0.084936
   114  H    0.106378
   115  H    0.102146
   116  H    0.073836
   117  H    0.067077
   118  H    0.059719
   119  H    0.080649
   120  H    0.062402
   121  H    0.090609
   122  H    0.112084
   123  H    0.104470
   124  H    0.102573
   125  H    0.078538
   126  H    0.077124
   127  H    0.077119
   128  H    0.093784
   129  H    0.102672
   130  H    0.092330
   131  H    0.083576
   132  H    0.105298
   133  H    0.086007
   134  H    0.111177
   135  H    0.115148
   136  H    0.103805
   137  H    0.070206
 Sum of Mulliken charges =   0.00000

 Dipole moment (field-independent basis, Debye):
    X=              2.0815    Y=              2.7212    Z=             -0.1065  Tot=              3.4277
 Quadrupole moment (field-independent basis, Debye-Ang):
   XX=           -368.3863   YY=           -386.4104   ZZ=           -400.2376
   XY=            -14.9616   XZ=             18.1034   YZ=             -1.2390

 Normal termination of Gaussian 09 at Thu Jun 27 08:48:10 2019.
