 Gaussian 09, Revision D.01,
 Gaussian 09:  ES64L-G09RevD.01 24-Apr-2013

 -------------------------------------
 # td=(NStates=1) CAM-B3LYP/6-31G(d,p)
 -------------------------------------

 --
 TD
 --
 Symbolic Z-matrix:
 Charge =  0 Multiplicity = 1

                         Standard orientation:
 ---------------------------------------------------------------------
 Center     Atomic      Atomic             Coordinates (Angstroms)
 Number     Number       Type             X           Y           Z
 ---------------------------------------------------------------------
      1         12           0       -7.107021    0.599406    0.085537
      2          6           0       -4.903035   -1.867555    0.498991
      3          6           0       -4.961097    2.843113    1.295537
      4          6           0       -9.442640    3.083732   -0.381229
      5          6           0       -9.514837   -1.808325   -0.899460
      6          7           0       -5.073900    0.449391    0.630505
      7          6           0       -4.270729   -0.682121    0.801762
      8          6           0       -2.852438   -0.307992    1.126947
      9          6           0       -3.039609    1.144170    1.738256
     10          6           0       -4.429379    1.547674    1.160984
     11          6           0       -2.918593    1.406968    3.259468
     12          6           0       -1.902726   -0.499362    0.000401
     13          6           0       -0.401341   -0.427833    0.623437
     14          6           0        0.515329   -0.758271   -0.447525
     15          8           0        0.146662   -1.075265   -1.549248
     16          8           0        1.840382   -0.457397   -0.142786
     17          7           0       -7.167475    2.536025    0.331916
     18          6           0       -6.140700    3.342976    0.748124
     19          6           0       -6.515609    4.717982    0.769992
     20          6           0       -7.792988    4.807690    0.347653
     21          6           0       -8.183052    3.459512    0.117913
     22          6           0       -5.673208    5.888002    1.313004
     23          6           0       -8.652805    6.057443    0.099507
     24          6           0       -8.262966    7.261163    0.013552
     25          7           0       -9.151615    0.674958   -0.438111
     26          6           0       -9.851477    1.728802   -0.519428
     27          6           0      -11.215657    1.387013   -1.071553
     28          6           0      -11.286076    0.063123   -1.127678
     29          6           0       -9.931406   -0.469314   -0.814313
     30          6           0      -12.345495    2.336842   -1.392894
     31          6           0      -12.407423   -0.857588   -1.625417
     32          6           0      -12.173898   -1.337268   -3.123301
     33          7           0       -7.218620   -1.409712   -0.243786
     34          6           0       -8.267473   -2.272374   -0.576331
     35          6           0       -7.763469   -3.603167   -0.610874
     36          6           0       -6.488411   -3.508035   -0.156706
     37          6           0       -6.177263   -2.157684    0.053553
     38          6           0       -8.396627   -4.916604   -0.794869
     39          6           0       -5.311129   -4.312725    0.227945
     40          8           0       -5.148175   -5.559529    0.122563
     41          6           0       -4.108440   -3.229007    0.614082
     42          6           0       -3.559317   -3.588221    1.927621
     43          8           0       -3.643672   -3.024357    3.003781
     44          8           0       -2.762674   -4.687036    1.771431
     45          6           0       -2.157801   -5.162395    2.993937
     46          6           0        2.764057   -0.619893   -1.194111
     47          6           0        4.056067   -0.357836   -0.501839
     48          6           0        5.133744    0.324894   -0.981968
     49          6           0        5.060844    1.174741   -2.317478
     50          6           0        6.409969    0.404636   -0.177058
     51          6           0        7.595627   -0.112826   -1.045695
     52          6           0        8.912084   -0.135064   -0.141231
     53          6           0       10.124797   -0.454835   -0.806706
     54          6           0       10.198809   -1.866411   -1.536795
     55          6           0       11.464182   -0.318712   -0.002821
     56          6           0       12.800569   -0.573513   -0.680155
     57          6           0       14.017733   -0.160270    0.134237
     58          6           0       15.284117   -0.230474   -0.470480
     59          6           0       15.617510   -1.681685   -1.036823
     60          6           0       16.499884    0.224978    0.475006
     61          6           0       17.789349    0.550345   -0.192370
     62          6           0       18.790753    1.245688    0.826274
     63          6           0       20.201032    1.331088    0.338013
     64          6           0       20.223277    2.102411   -0.970760
     65          6           0       21.158555    1.986881    1.270699
     66          1           0       -4.265542    3.631420    1.668655
     67          1           0      -10.171271    3.599431   -0.460689
     68          1           0      -10.385148   -2.660890   -1.256170
     69          1           0       -2.570285   -0.866034    2.090791
     70          1           0       -2.334457    1.776503    1.399060
     71          1           0       -1.891324    1.144658    3.649055
     72          1           0       -3.171908    2.344597    3.349834
     73          1           0       -3.578066    0.949605    3.737533
     74          1           0       -2.081909   -1.518615   -0.521297
     75          1           0       -1.899459    0.322078   -0.814637
     76          1           0       -0.145811    0.662405    1.147673
     77          1           0       -0.426877   -1.135748    1.566724
     78          1           0       -5.102275    6.378290    0.451664
     79          1           0       -6.165837    6.715646    1.705662
     80          1           0       -4.912679    5.607416    2.019735
     81          1           0       -9.801660    5.845264    0.306500
     82          1           0       -8.999404    8.172181   -0.460320
     83          1           0       -7.261698    7.393568   -0.097094
     84          1           0      -12.091298    2.807868   -2.550735
     85          1           0      -13.185176    1.533015   -1.537995
     86          1           0      -12.474178    3.189319   -0.629855
     87          1           0      -12.300626   -1.756384   -1.158295
     88          1           0      -13.383408   -0.333512   -1.446711
     89          1           0      -12.888623   -1.962524   -3.583754
     90          1           0      -12.139061   -0.374321   -3.674478
     91          1           0      -10.992972   -1.580973   -3.347727
     92          1           0       -8.757659   -5.122282   -1.776622
     93          1           0       -7.616032   -5.533243   -0.627757
     94          1           0       -9.319772   -5.060268   -0.131592
     95          1           0       -3.305127   -3.233591   -0.148485
     96          1           0       -1.657127   -4.312526    3.295135
     97          1           0       -2.995832   -5.478626    3.615644
     98          1           0       -1.565920   -5.890284    2.640086
     99          1           0        2.808189   -1.537585   -1.705315
    100          1           0        2.519639    0.313946   -1.886718
    101          1           0        4.196836   -0.741020    0.436892
    102          1           0        4.032155    1.237725   -2.797824
    103          1           0        5.601459    2.182012   -2.221504
    104          1           0        5.609174    0.670239   -3.007787
    105          1           0        6.473875    1.414881    0.242926
    106          1           0        6.358782   -0.293126    0.641139
    107          1           0        7.420891   -0.988920   -1.403920
    108          1           0        7.682072    0.474681   -1.901554
    109          1           0        9.023796    0.884835    0.348459
    110          1           0        8.984307   -0.923058    0.647953
    111          1           0       10.044419    0.113088   -1.792621
    112          1           0        9.275979   -2.138963   -2.150692
    113          1           0       11.187879   -2.125268   -2.102736
    114          1           0       10.184130   -2.664559   -0.717410
    115          1           0       11.449831    0.732123    0.302269
    116          1           0       11.450149   -0.846229    0.932461
    117          1           0       12.804595   -1.639274   -0.962899
    118          1           0       12.883275    0.130584   -1.601824
    119          1           0       13.783030    0.855593    0.350753
    120          1           0       14.095114   -0.737609    0.995229
    121          1           0       15.503936    0.416656   -1.555399
    122          1           0       15.703073   -2.530458   -0.330943
    123          1           0       14.829146   -1.839768   -1.639158
    124          1           0       16.425325   -1.648774   -1.718331
    125          1           0       16.165964    0.993130    1.145595
    126          1           0       16.600827   -0.642528    1.083302
    127          1           0       18.526339   -0.248119   -0.753876
    128          1           0       17.578310    1.240186   -0.920115
    129          1           0       18.366712    2.342695    0.872760
    130          1           0       18.627738    0.833880    1.834465
    131          1           0       20.619496    0.332173    0.264601
    132          1           0       20.129574    3.109088   -0.938408
    133          1           0       21.152170    2.179695   -1.244508
    134          1           0       19.692826    1.826100   -1.720869
    135          1           0       21.284117    1.495297    2.437939
    136          1           0       22.100235    1.991527    0.917554
    137          1           0       20.853348    3.135809    1.490388
 ---------------------------------------------------------------------

 SCF Done:  E(RCAM-B3LYP) =  -2932.60663695     A.U. after   18 cycles

 Excitation energies and oscillator strengths:

 Excited State   1:      Singlet-A      2.0881 eV  593.78 nm  f=0.2633  <S**2>=0.000
     240 -> 242        0.10137
     240 -> 243       -0.23031
     241 -> 242        0.65277
 This state for optimization and/or second-order correction.
 Total Energy, E(TD-HF/TD-KS) =  -2932.52990211
 Copying the excited state density for this state as the 1-particle RhoCI density.

 The electronic state is 1-A.
 Alpha  occ. eigenvalues --  -46.84107 -19.25882 -19.24400 -19.21706 -19.20429
 Alpha  occ. eigenvalues --  -19.20307 -14.41867 -14.39849 -14.39496 -14.38962
 Alpha  occ. eigenvalues --  -10.39434 -10.38442 -10.35687 -10.31743 -10.31612
 Alpha  occ. eigenvalues --  -10.30390 -10.30263 -10.30076 -10.30019 -10.29148
 Alpha  occ. eigenvalues --  -10.29090 -10.28856 -10.28838 -10.28705 -10.28694
 Alpha  occ. eigenvalues --  -10.28662 -10.28588 -10.28132 -10.28132 -10.27930
 Alpha  occ. eigenvalues --  -10.27588 -10.27495 -10.27266 -10.27218 -10.26944
 Alpha  occ. eigenvalues --  -10.26785 -10.26750 -10.26656 -10.26627 -10.26594
 Alpha  occ. eigenvalues --  -10.26257 -10.26143 -10.26112 -10.26096 -10.25833
 Alpha  occ. eigenvalues --  -10.25829 -10.25779 -10.25689 -10.25685 -10.25623
 Alpha  occ. eigenvalues --  -10.25580 -10.25448 -10.25106 -10.25065 -10.25007
 Alpha  occ. eigenvalues --  -10.24994 -10.24662 -10.24466 -10.24298 -10.24255
 Alpha  occ. eigenvalues --  -10.24163 -10.23699 -10.23632 -10.22684 -10.20684
 Alpha  occ. eigenvalues --   -3.13256  -1.87955  -1.87478  -1.87463  -1.18116
 Alpha  occ. eigenvalues --   -1.16992  -1.10340  -1.08185  -1.07925  -1.04957
 Alpha  occ. eigenvalues --   -1.04443  -1.03487  -1.02547  -0.91800  -0.91659
 Alpha  occ. eigenvalues --   -0.90836  -0.90210  -0.90098  -0.89872  -0.89180
 Alpha  occ. eigenvalues --   -0.89009  -0.88300  -0.87914  -0.87401  -0.86267
 Alpha  occ. eigenvalues --   -0.85453  -0.84920  -0.84367  -0.83752  -0.82692
 Alpha  occ. eigenvalues --   -0.81953  -0.81681  -0.80864  -0.79948  -0.78846
 Alpha  occ. eigenvalues --   -0.78695  -0.77809  -0.76964  -0.76510  -0.76271
 Alpha  occ. eigenvalues --   -0.75542  -0.74790  -0.74679  -0.74079  -0.72932
 Alpha  occ. eigenvalues --   -0.72199  -0.70984  -0.70141  -0.69255  -0.68211
 Alpha  occ. eigenvalues --   -0.67837  -0.66612  -0.65593  -0.65477  -0.65102
 Alpha  occ. eigenvalues --   -0.63910  -0.63292  -0.63081  -0.62135  -0.61490
 Alpha  occ. eigenvalues --   -0.61147  -0.60833  -0.60474  -0.59583  -0.59117
 Alpha  occ. eigenvalues --   -0.58684  -0.58261  -0.58092  -0.57283  -0.57015
 Alpha  occ. eigenvalues --   -0.56244  -0.56077  -0.55740  -0.55314  -0.55001
 Alpha  occ. eigenvalues --   -0.54854  -0.53887  -0.53873  -0.53505  -0.53278
 Alpha  occ. eigenvalues --   -0.53243  -0.52567  -0.52487  -0.51934  -0.51602
 Alpha  occ. eigenvalues --   -0.51330  -0.51268  -0.51170  -0.50914  -0.50769
 Alpha  occ. eigenvalues --   -0.50577  -0.50378  -0.50137  -0.50028  -0.49738
 Alpha  occ. eigenvalues --   -0.49500  -0.49058  -0.48981  -0.48582  -0.48440
 Alpha  occ. eigenvalues --   -0.48337  -0.48259  -0.48174  -0.48003  -0.47735
 Alpha  occ. eigenvalues --   -0.47612  -0.47034  -0.46755  -0.46539  -0.46033
 Alpha  occ. eigenvalues --   -0.45958  -0.45563  -0.45384  -0.45163  -0.45130
 Alpha  occ. eigenvalues --   -0.45007  -0.44792  -0.44597  -0.44380  -0.44250
 Alpha  occ. eigenvalues --   -0.43853  -0.43730  -0.43665  -0.43429  -0.43356
 Alpha  occ. eigenvalues --   -0.42911  -0.42854  -0.42456  -0.42332  -0.42311
 Alpha  occ. eigenvalues --   -0.42259  -0.42163  -0.41880  -0.41814  -0.41689
 Alpha  occ. eigenvalues --   -0.41539  -0.41354  -0.41270  -0.40775  -0.40662
 Alpha  occ. eigenvalues --   -0.40586  -0.40547  -0.40068  -0.39690  -0.39338
 Alpha  occ. eigenvalues --   -0.39307  -0.38953  -0.38397  -0.38271  -0.37805
 Alpha  occ. eigenvalues --   -0.37635  -0.37617  -0.37317  -0.37192  -0.37105
 Alpha  occ. eigenvalues --   -0.36464  -0.36407  -0.36021  -0.35792  -0.35661
 Alpha  occ. eigenvalues --   -0.35053  -0.34803  -0.34420  -0.33847  -0.33544
 Alpha  occ. eigenvalues --   -0.33274  -0.33188  -0.32663  -0.31280  -0.29786
 Alpha  occ. eigenvalues --   -0.29497  -0.29276  -0.28971  -0.28516  -0.23308
 Alpha  occ. eigenvalues --   -0.21190
 Alpha virt. eigenvalues --   -0.06418  -0.02574   0.01393   0.04179   0.04474
 Alpha virt. eigenvalues --    0.05997   0.06335   0.06654   0.07129   0.07293
 Alpha virt. eigenvalues --    0.08055   0.10341   0.10893   0.11265   0.11852

 Mulliken charges:
               1
     1  Mg   0.817505
     2  C    0.014659
     3  C   -0.213692
     4  C   -0.057063
     5  C   -0.181850
     6  N   -0.627543
     7  C    0.292838
     8  C   -0.152602
     9  C   -0.152682
    10  C    0.326825
    11  C   -0.293579
    12  C   -0.158030
    13  C   -0.289739
    14  C    0.638210
    15  O   -0.455001
    16  O   -0.495421
    17  N   -0.714286
    18  C    0.323016
    19  C   -0.001520
    20  C    0.032442
    21  C    0.266675
    22  C   -0.383330
    23  C   -0.012342
    24  C   -0.257565
    25  N   -0.661038
    26  C    0.292914
    27  C   -0.006965
    28  C    0.030027
    29  C    0.241986
    30  C   -0.349424
    31  C   -0.225315
    32  C   -0.327022
    33  N   -0.746644
    34  C    0.261714
    35  C    0.012454
    36  C    0.015780
    37  C    0.352629
    38  C   -0.377128
    39  C    0.357476
    40  O   -0.476146
    41  C   -0.316776
    42  C    0.620953
    43  O   -0.490522
    44  O   -0.475788
    45  C   -0.061160
    46  C    0.038221
    47  C   -0.142659
    48  C    0.093679
    49  C   -0.368776
    50  C   -0.230414
    51  C   -0.185627
    52  C   -0.159289
    53  C   -0.055777
    54  C   -0.324848
    55  C   -0.181122
    56  C   -0.186977
    57  C   -0.148753
    58  C   -0.069443
    59  C   -0.323440
    60  C   -0.176981
    61  C   -0.173318
    62  C   -0.158210
    63  C   -0.057179
    64  C   -0.308497
    65  C   -0.292117
    66  H    0.078453
    67  H    0.013698
    68  H    0.103701
    69  H    0.129899
    70  H    0.107375
    71  H    0.099339
    72  H    0.116608
    73  H    0.133830
    74  H    0.130140
    75  H    0.121515
    76  H    0.126014
    77  H    0.135237
    78  H    0.114182
    79  H    0.138128
    80  H    0.117790
    81  H    0.088868
    82  H    0.095776
    83  H    0.103640
    84  H    0.092573
    85  H    0.103286
    86  H    0.118846
    87  H    0.118675
    88  H    0.100408
    89  H    0.118772
    90  H    0.107385
    91  H    0.100851
    92  H    0.120282
    93  H    0.155886
    94  H    0.114470
    95  H    0.166849
    96  H    0.127522
    97  H    0.133653
    98  H    0.129373
    99  H    0.141304
   100  H    0.100672
   101  H    0.087932
   102  H    0.104840
   103  H    0.106290
   104  H    0.133473
   105  H    0.108164
   106  H    0.107192
   107  H    0.115903
   108  H    0.103386
   109  H    0.088790
   110  H    0.083540
   111  H    0.074000
   112  H    0.089418
   113  H    0.104796
   114  H    0.077591
   115  H    0.085063
   116  H    0.093882
   117  H    0.099513
   118  H    0.083895
   119  H    0.098371
   120  H    0.097251
   121  H    0.030467
   122  H    0.091556
   123  H    0.112974
   124  H    0.106660
   125  H    0.092931
   126  H    0.098082
   127  H    0.070732
   128  H    0.109706
   129  H    0.068650
   130  H    0.086275
   131  H    0.092423
   132  H    0.104562
   133  H    0.099411
   134  H    0.110187
   135  H    0.059607
   136  H    0.116062
   137  H    0.075014
 Sum of Mulliken charges =   0.00000

 Dipole moment (field-independent basis, Debye):
    X=              1.6425    Y=              5.6496    Z=              0.3451  Tot=              5.8936
 Quadrupole moment (field-independent basis, Debye-Ang):
   XX=           -352.6276   YY=           -393.6417   ZZ=           -397.3267
   XY=            -24.4100   XZ=              4.8566   YZ=             -2.4028

 Normal termination of Gaussian 09 at Sun Jun 30 23:19:23 2019.
