 Gaussian 09, Revision D.01,
 Gaussian 09:  ES64L-G09RevD.01 24-Apr-2013

 -------------------------------------
 # td=(NStates=1) CAM-B3LYP/6-31G(d,p)
 -------------------------------------

 --
 TD
 --
 Symbolic Z-matrix:
 Charge =  0 Multiplicity = 1

                         Standard orientation:
 ---------------------------------------------------------------------
 Center     Atomic      Atomic             Coordinates (Angstroms)
 Number     Number       Type             X           Y           Z
 ---------------------------------------------------------------------
      1         12           0       -7.130011    0.604341   -0.015811
      2          6           0       -4.853653   -1.907940    0.574296
      3          6           0       -4.820114    2.868334    1.127724
      4          6           0       -9.427178    3.005848   -0.295672
      5          6           0       -9.536364   -1.775793   -0.929683
      6          7           0       -4.994014    0.523123    0.559039
      7          6           0       -4.340663   -0.633799    0.669785
      8          6           0       -2.878967   -0.338171    1.222652
      9          6           0       -3.052898    1.147060    1.574357
     10          6           0       -4.337316    1.573042    1.078912
     11          6           0       -2.924786    1.304584    3.127672
     12          6           0       -1.909082   -0.565993    0.031135
     13          6           0       -0.498802   -0.429373    0.479847
     14          6           0        0.446605   -0.721169   -0.670640
     15          8           0        0.104624   -1.328266   -1.696475
     16          8           0        1.754943   -0.335498   -0.320951
     17          7           0       -7.062087    2.628262    0.345269
     18          6           0       -6.103535    3.400859    0.766792
     19          6           0       -6.464854    4.735322    0.850383
     20          6           0       -7.835235    4.800764    0.538205
     21          6           0       -8.175544    3.380596    0.153420
     22          6           0       -5.507312    5.903559    1.210096
     23          6           0       -8.651425    5.894184    0.452325
     24          6           0       -8.476615    7.223991    0.263248
     25          7           0       -9.096976    0.649149   -0.571831
     26          6           0       -9.867782    1.716349   -0.645085
     27          6           0      -11.180173    1.459940   -1.062404
     28          6           0      -11.227799    0.014325   -1.245608
     29          6           0       -9.935459   -0.424520   -0.922219
     30          6           0      -12.366903    2.325557   -1.378127
     31          6           0      -12.414599   -0.821258   -1.606040
     32          6           0      -12.304939   -1.270744   -3.119253
     33          7           0       -7.231735   -1.357770   -0.047334
     34          6           0       -8.235274   -2.225877   -0.571658
     35          6           0       -7.752065   -3.613756   -0.506842
     36          6           0       -6.545962   -3.563283   -0.018819
     37          6           0       -6.196339   -2.170070    0.124312
     38          6           0       -8.594402   -4.902815   -0.648018
     39          6           0       -5.287807   -4.374354    0.356624
     40          8           0       -5.123103   -5.577890    0.435604
     41          6           0       -4.143599   -3.278541    0.563276
     42          6           0       -3.427995   -3.497810    1.869607
     43          8           0       -3.634535   -2.984559    2.948448
     44          8           0       -2.581727   -4.517021    1.668941
     45          6           0       -2.117758   -5.067413    2.971973
     46          6           0        2.809363   -0.754882   -1.292934
     47          6           0        4.107010   -0.437566   -0.550423
     48          6           0        5.100996    0.409896   -1.025911
     49          6           0        5.026501    1.051417   -2.493404
     50          6           0        6.389421    0.444877   -0.346311
     51          6           0        7.628837   -0.130285   -1.007372
     52          6           0        8.908784   -0.157784   -0.167371
     53          6           0       10.269610   -0.514226   -0.958688
     54          6           0       10.207503   -1.971369   -1.225879
     55          6           0       11.493085   -0.174390    0.074898
     56          6           0       12.722729   -0.410536   -0.654277
     57          6           0       13.948585   -0.064163    0.143561
     58          6           0       15.313818   -0.012632   -0.478009
     59          6           0       15.582788   -1.467757   -1.091174
     60          6           0       16.369511    0.450814    0.503693
     61          6           0       17.906484    0.449375   -0.012414
     62          6           0       18.904347    1.128435    0.920599
     63          6           0       20.185437    1.265825    0.259282
     64          6           0       20.368406    2.117398   -1.052542
     65          6           0       21.228162    1.649744    1.306892
     66          1           0       -3.992195    3.639624    1.389992
     67          1           0       -9.951989    3.937228   -0.502335
     68          1           0      -10.468538   -2.359666   -1.341974
     69          1           0       -2.543774   -1.056461    1.878990
     70          1           0       -2.107256    1.613959    1.029646
     71          1           0       -1.849846    1.106050    3.342366
     72          1           0       -2.986753    2.342708    3.370667
     73          1           0       -3.691250    0.580832    3.703262
     74          1           0       -1.868457   -1.437878   -0.324917
     75          1           0       -2.303915    0.295309   -0.793412
     76          1           0       -0.160623    0.559819    0.640323
     77          1           0       -0.202528   -1.162960    1.257425
     78          1           0       -4.919318    6.221095    0.344312
     79          1           0       -6.065926    6.839591    1.515922
     80          1           0       -4.841267    5.760042    2.219550
     81          1           0       -9.711774    5.535527    0.559267
     82          1           0       -9.333559    7.778863    0.356310
     83          1           0       -7.466730    7.627109    0.063554
     84          1           0      -12.050269    3.031729   -1.993716
     85          1           0      -13.266367    1.960926   -1.833941
     86          1           0      -12.704078    2.846635   -0.542738
     87          1           0      -12.369637   -1.704637   -1.041687
     88          1           0      -13.406543   -0.542225   -1.433229
     89          1           0      -12.987230   -2.033645   -3.404006
     90          1           0      -12.568576   -0.446997   -3.884546
     91          1           0      -11.214419   -1.625965   -3.210501
     92          1           0       -9.378361   -4.766028   -1.554836
     93          1           0       -8.085448   -5.820444   -0.735474
     94          1           0       -9.212082   -5.042372    0.289947
     95          1           0       -3.447913   -3.606129   -0.190771
     96          1           0       -1.999822   -4.117582    3.686213
     97          1           0       -2.980030   -5.650188    3.577459
     98          1           0       -1.295399   -5.600746    2.679358
     99          1           0        2.642810   -1.672403   -1.618312
    100          1           0        2.578818   -0.117431   -2.282650
    101          1           0        3.969314   -0.875992    0.442539
    102          1           0        3.929408    1.132781   -2.637129
    103          1           0        5.272977    2.189439   -2.366545
    104          1           0        5.775285    0.706938   -3.195055
    105          1           0        6.535375    1.414035   -0.178483
    106          1           0        6.309531   -0.153885    0.626712
    107          1           0        7.467146   -1.187234   -1.451891
    108          1           0        7.806119    0.385789   -2.150581
    109          1           0        8.873249    0.869024    0.332775
    110          1           0        8.704781   -0.948586    0.764770
    111          1           0       10.453550    0.181317   -1.757625
    112          1           0        9.029873   -2.198378   -1.648115
    113          1           0       11.045781   -2.330053   -1.857634
    114          1           0       10.221428   -2.598805   -0.292604
    115          1           0       11.220321    0.773438    0.521986
    116          1           0       11.284986   -0.728775    0.994691
    117          1           0       12.508824   -1.520135   -0.820059
    118          1           0       12.797432    0.206534   -1.704037
    119          1           0       13.778088    1.027295    0.395387
    120          1           0       14.094074   -0.794228    1.102212
    121          1           0       15.116432    0.802881   -1.145159
    122          1           0       15.306136   -2.272024   -0.259605
    123          1           0       15.080299   -1.649408   -2.122416
    124          1           0       16.726486   -1.553739   -1.252278
    125          1           0       16.016088    1.496041    0.920739
    126          1           0       16.451611   -0.281719    1.357776
    127          1           0       18.218081   -0.591674   -0.275510
    128          1           0       17.718080    1.128607   -0.857092
    129          1           0       18.516778    2.145328    1.084117
    130          1           0       19.148995    0.616991    1.897185
    131          1           0       20.466215    0.297769   -0.051944
    132          1           0       20.098477    3.097611   -0.860589
    133          1           0       21.357037    2.089101   -1.377491
    134          1           0       19.540328    2.025480   -1.808921
    135          1           0       20.972803    1.217626    2.398618
    136          1           0       22.312908    1.487391    1.082539
    137          1           0       21.029419    2.811390    1.409669
 ---------------------------------------------------------------------

 SCF Done:  E(RCAM-B3LYP) =  -2932.67070609     A.U. after   15 cycles

 Excitation energies and oscillator strengths:

 Excited State   1:      Singlet-A      2.1578 eV  574.59 nm  f=0.1828  <S**2>=0.000
     240 -> 242       -0.13322
     240 -> 243        0.28176
     241 -> 242        0.61684
     241 -> 243        0.10367
 This state for optimization and/or second-order correction.
 Total Energy, E(TD-HF/TD-KS) =  -2932.59140886
 Copying the excited state density for this state as the 1-particle RhoCI density.

 The electronic state is 1-A.
 Alpha  occ. eigenvalues --  -46.84400 -19.26458 -19.25985 -19.21910 -19.21406
 Alpha  occ. eigenvalues --  -19.21111 -14.40663 -14.40099 -14.39167 -14.38522
 Alpha  occ. eigenvalues --  -10.39352 -10.38848 -10.36879 -10.32030 -10.31725
 Alpha  occ. eigenvalues --  -10.30332 -10.30112 -10.29995 -10.29425 -10.29209
 Alpha  occ. eigenvalues --  -10.29076 -10.28767 -10.28677 -10.28668 -10.28398
 Alpha  occ. eigenvalues --  -10.28014 -10.27827 -10.27796 -10.27726 -10.27724
 Alpha  occ. eigenvalues --  -10.27531 -10.27288 -10.27248 -10.27122 -10.27000
 Alpha  occ. eigenvalues --  -10.26935 -10.26865 -10.26850 -10.26818 -10.26737
 Alpha  occ. eigenvalues --  -10.26686 -10.26606 -10.26557 -10.26515 -10.26265
 Alpha  occ. eigenvalues --  -10.26136 -10.26047 -10.26006 -10.26002 -10.25827
 Alpha  occ. eigenvalues --  -10.25744 -10.25734 -10.25714 -10.25667 -10.25662
 Alpha  occ. eigenvalues --  -10.25647 -10.25641 -10.25566 -10.25461 -10.25379
 Alpha  occ. eigenvalues --  -10.24817 -10.24774 -10.24589 -10.23794 -10.23682
 Alpha  occ. eigenvalues --   -3.13466  -1.88169  -1.87729  -1.87625  -1.18306
 Alpha  occ. eigenvalues --   -1.15245  -1.11948  -1.09045  -1.07955  -1.05560
 Alpha  occ. eigenvalues --   -1.04664  -1.03962  -1.02903  -0.91686  -0.91350
 Alpha  occ. eigenvalues --   -0.90897  -0.90606  -0.90213  -0.89853  -0.89010
 Alpha  occ. eigenvalues --   -0.88372  -0.88276  -0.87500  -0.86860  -0.85995
 Alpha  occ. eigenvalues --   -0.85103  -0.84068  -0.83423  -0.82873  -0.82726
 Alpha  occ. eigenvalues --   -0.81110  -0.80780  -0.80037  -0.79484  -0.77691
 Alpha  occ. eigenvalues --   -0.77543  -0.76982  -0.76400  -0.76043  -0.75906
 Alpha  occ. eigenvalues --   -0.75334  -0.74148  -0.73716  -0.72937  -0.72459
 Alpha  occ. eigenvalues --   -0.71768  -0.70722  -0.69956  -0.69503  -0.69095
 Alpha  occ. eigenvalues --   -0.67334  -0.66185  -0.65157  -0.65015  -0.63898
 Alpha  occ. eigenvalues --   -0.63306  -0.63175  -0.62994  -0.62834  -0.62138
 Alpha  occ. eigenvalues --   -0.61079  -0.60926  -0.60288  -0.59745  -0.59098
 Alpha  occ. eigenvalues --   -0.58751  -0.58366  -0.57713  -0.57172  -0.56717
 Alpha  occ. eigenvalues --   -0.56143  -0.55530  -0.55187  -0.55099  -0.54567
 Alpha  occ. eigenvalues --   -0.54323  -0.54226  -0.53790  -0.53575  -0.53001
 Alpha  occ. eigenvalues --   -0.52602  -0.52507  -0.52395  -0.52114  -0.52084
 Alpha  occ. eigenvalues --   -0.51592  -0.51179  -0.50701  -0.50440  -0.50311
 Alpha  occ. eigenvalues --   -0.50255  -0.49995  -0.49937  -0.49800  -0.49513
 Alpha  occ. eigenvalues --   -0.49427  -0.49261  -0.48687  -0.48395  -0.48294
 Alpha  occ. eigenvalues --   -0.48020  -0.47641  -0.47464  -0.47203  -0.47041
 Alpha  occ. eigenvalues --   -0.46688  -0.46378  -0.46336  -0.46005  -0.45889
 Alpha  occ. eigenvalues --   -0.45612  -0.45381  -0.45140  -0.44975  -0.44714
 Alpha  occ. eigenvalues --   -0.44594  -0.44491  -0.44463  -0.44352  -0.43915
 Alpha  occ. eigenvalues --   -0.43804  -0.43692  -0.43503  -0.43370  -0.43232
 Alpha  occ. eigenvalues --   -0.42911  -0.42705  -0.42568  -0.42378  -0.42321
 Alpha  occ. eigenvalues --   -0.42064  -0.41773  -0.41668  -0.41509  -0.41398
 Alpha  occ. eigenvalues --   -0.41275  -0.41063  -0.40908  -0.40685  -0.40672
 Alpha  occ. eigenvalues --   -0.40306  -0.40172  -0.39708  -0.39572  -0.39126
 Alpha  occ. eigenvalues --   -0.38526  -0.38440  -0.38384  -0.38353  -0.37836
 Alpha  occ. eigenvalues --   -0.37612  -0.37350  -0.37263  -0.36950  -0.36330
 Alpha  occ. eigenvalues --   -0.36178  -0.36044  -0.35891  -0.35669  -0.35494
 Alpha  occ. eigenvalues --   -0.35475  -0.35376  -0.34245  -0.33735  -0.33648
 Alpha  occ. eigenvalues --   -0.32929  -0.32584  -0.31949  -0.31599  -0.30766
 Alpha  occ. eigenvalues --   -0.30453  -0.29495  -0.27264  -0.26888  -0.22744
 Alpha  occ. eigenvalues --   -0.21471
 Alpha virt. eigenvalues --   -0.05947  -0.03444   0.01782   0.03721   0.04881
 Alpha virt. eigenvalues --    0.05677   0.05817   0.06011   0.07039   0.07554
 Alpha virt. eigenvalues --    0.08713   0.10880   0.11255   0.11477   0.11705

 Mulliken charges:
               1
     1  Mg   0.837463
     2  C    0.077419
     3  C   -0.220330
     4  C   -0.161066
     5  C   -0.167978
     6  N   -0.641539
     7  C    0.297125
     8  C   -0.135965
     9  C   -0.179072
    10  C    0.382920
    11  C   -0.294974
    12  C   -0.145193
    13  C   -0.269432
    14  C    0.595947
    15  O   -0.477998
    16  O   -0.512039
    17  N   -0.718514
    18  C    0.337607
    19  C    0.020590
    20  C    0.029509
    21  C    0.304614
    22  C   -0.376480
    23  C   -0.121010
    24  C   -0.230139
    25  N   -0.713903
    26  C    0.327518
    27  C   -0.002756
    28  C    0.022202
    29  C    0.269215
    30  C   -0.371726
    31  C   -0.254539
    32  C   -0.311810
    33  N   -0.707315
    34  C    0.224581
    35  C   -0.025154
    36  C    0.047702
    37  C    0.265291
    38  C   -0.358880
    39  C    0.398486
    40  O   -0.441944
    41  C   -0.318572
    42  C    0.640454
    43  O   -0.485597
    44  O   -0.464008
    45  C   -0.097388
    46  C    0.012455
    47  C   -0.122664
    48  C    0.078504
    49  C   -0.355603
    50  C   -0.197532
    51  C   -0.163834
    52  C   -0.174088
    53  C   -0.052114
    54  C   -0.299046
    55  C   -0.179412
    56  C   -0.151634
    57  C   -0.153954
    58  C   -0.052021
    59  C   -0.306211
    60  C   -0.177150
    61  C   -0.187099
    62  C   -0.156539
    63  C   -0.043488
    64  C   -0.325168
    65  C   -0.307205
    66  H    0.077283
    67  H    0.092642
    68  H    0.102596
    69  H    0.111671
    70  H    0.095531
    71  H    0.102523
    72  H    0.111638
    73  H    0.122769
    74  H    0.123312
    75  H    0.082164
    76  H    0.136772
    77  H    0.143382
    78  H    0.131876
    79  H    0.114416
    80  H    0.101374
    81  H    0.081285
    82  H    0.106127
    83  H    0.103849
    84  H    0.129561
    85  H    0.118249
    86  H    0.120043
    87  H    0.115542
    88  H    0.112509
    89  H    0.106034
    90  H    0.100131
    91  H    0.100649
    92  H    0.096071
    93  H    0.148141
    94  H    0.131974
    95  H    0.172221
    96  H    0.142412
    97  H    0.125930
    98  H    0.132542
    99  H    0.143973
   100  H    0.102756
   101  H    0.108856
   102  H    0.123207
   103  H    0.096125
   104  H    0.138800
   105  H    0.112973
   106  H    0.093096
   107  H    0.088800
   108  H    0.046104
   109  H    0.085025
   110  H    0.068452
   111  H    0.101217
   112  H    0.070839
   113  H    0.110598
   114  H    0.109550
   115  H    0.084853
   116  H    0.094372
   117  H    0.096711
   118  H    0.066718
   119  H    0.076157
   120  H    0.063234
   121  H    0.082325
   122  H    0.091207
   123  H    0.103664
   124  H    0.089943
   125  H    0.074715
   126  H    0.080788
   127  H    0.098033
   128  H    0.098628
   129  H    0.085665
   130  H    0.089652
   131  H    0.092346
   132  H    0.104151
   133  H    0.114840
   134  H    0.096799
   135  H    0.080988
   136  H    0.100041
   137  H    0.081066
 Sum of Mulliken charges =   0.00000

 Dipole moment (field-independent basis, Debye):
    X=              1.7690    Y=              3.4944    Z=             -0.1677  Tot=              3.9203
 Quadrupole moment (field-independent basis, Debye-Ang):
   XX=           -339.6184   YY=           -390.1428   ZZ=           -401.6645
   XY=            -12.8372   XZ=              7.6189   YZ=             -6.0002

 Normal termination of Gaussian 09 at Thu Jun 27 11:55:03 2019.
