 Gaussian 09, Revision D.01,
 Gaussian 09:  ES64L-G09RevD.01 24-Apr-2013

 -------------------------------------
 # td=(NStates=1) CAM-B3LYP/6-31G(d,p)
 -------------------------------------

 --
 TD
 --
 Symbolic Z-matrix:
 Charge =  0 Multiplicity = 1

                         Standard orientation:
 ---------------------------------------------------------------------
 Center     Atomic      Atomic             Coordinates (Angstroms)
 Number     Number       Type             X           Y           Z
 ---------------------------------------------------------------------
      1         12           0       -7.111142    0.541871    0.168908
      2          6           0       -4.880975   -1.927456    0.477567
      3          6           0       -4.900559    2.791493    1.183053
      4          6           0       -9.464441    3.061606   -0.458069
      5          6           0       -9.561643   -1.757706   -0.765936
      6          7           0       -5.063443    0.451364    0.734585
      7          6           0       -4.366110   -0.709644    0.763282
      8          6           0       -2.998545   -0.423189    1.208000
      9          6           0       -3.069782    1.112557    1.682072
     10          6           0       -4.410388    1.516675    1.139835
     11          6           0       -2.839449    1.235501    3.213412
     12          6           0       -1.956097   -0.612809    0.091099
     13          6           0       -0.578627   -0.493287    0.681463
     14          6           0        0.476325   -0.682096   -0.475674
     15          8           0        0.233306   -0.891440   -1.644305
     16          8           0        1.714575   -0.473419   -0.107214
     17          7           0       -7.273799    2.600226    0.349989
     18          6           0       -6.151669    3.388284    0.789071
     19          6           0       -6.640812    4.749524    0.815661
     20          6           0       -7.896892    4.700871    0.375046
     21          6           0       -8.256388    3.451412    0.146121
     22          6           0       -5.680035    5.833801    1.266952
     23          6           0       -8.859932    5.889787    0.350568
     24          6           0       -8.458443    7.125250    0.176705
     25          7           0       -9.183120    0.631949   -0.500784
     26          6           0       -9.936165    1.850087   -0.684145
     27          6           0      -11.217344    1.473369   -1.150158
     28          6           0      -11.275061    0.032201   -1.205949
     29          6           0      -10.009407   -0.416214   -0.685153
     30          6           0      -12.268335    2.435417   -1.466046
     31          6           0      -12.449133   -0.860506   -1.787171
     32          6           0      -12.314133   -1.078738   -3.239280
     33          7           0       -7.240050   -1.451702   -0.123562
     34          6           0       -8.228941   -2.277399   -0.494553
     35          6           0       -7.714677   -3.630612   -0.530471
     36          6           0       -6.408403   -3.478827   -0.290184
     37          6           0       -6.142806   -2.113207    0.039574
     38          6           0       -8.604773   -4.844579   -0.785257
     39          6           0       -5.250763   -4.342315    0.097645
     40          8           0       -5.043371   -5.536797    0.130289
     41          6           0       -4.162544   -3.201150    0.504435
     42          6           0       -3.422570   -3.623037    1.772270
     43          8           0       -3.696662   -3.153404    2.878866
     44          8           0       -2.702627   -4.712746    1.667017
     45          6           0       -2.152288   -5.203573    2.877635
     46          6           0        2.804923   -0.558829   -1.055682
     47          6           0        4.177579   -0.345121   -0.378654
     48          6           0        5.067433    0.446686   -0.879422
     49          6           0        5.104579    1.286785   -2.190920
     50          6           0        6.421289    0.529479   -0.042277
     51          6           0        7.649699   -0.051590   -0.895063
     52          6           0        9.062518   -0.046631   -0.139808
     53          6           0       10.258009   -0.503074   -0.804424
     54          6           0       10.129223   -2.131466   -1.136717
     55          6           0       11.507163   -0.296938    0.011785
     56          6           0       12.841968   -0.667517   -0.778094
     57          6           0       14.138931   -0.183362   -0.004503
     58          6           0       15.425007   -0.249103   -0.655777
     59          6           0       15.632835   -1.643200   -1.150832
     60          6           0       16.481967    0.330566    0.322871
     61          6           0       17.920842    0.629649   -0.326587
     62          6           0       18.830025    1.297672    0.743327
     63          6           0       20.346214    1.386629    0.238232
     64          6           0       20.384522    2.263537   -0.917281
     65          6           0       21.271496    1.934516    1.408073
     66          1           0       -4.316731    3.548649    1.612261
     67          1           0      -10.153286    3.828638   -0.675214
     68          1           0      -10.231600   -2.467470   -1.043831
     69          1           0       -2.853823   -1.049416    2.057176
     70          1           0       -2.324003    1.753229    1.297124
     71          1           0       -1.968954    0.876678    3.620840
     72          1           0       -2.966942    2.198661    3.563923
     73          1           0       -3.565975    0.645472    3.708349
     74          1           0       -1.983826   -1.506539   -0.475551
     75          1           0       -1.964757    0.156224   -0.641369
     76          1           0       -0.541788    0.520833    0.921500
     77          1           0       -0.434261   -1.347657    1.443803
     78          1           0       -5.180564    6.361511    0.434547
     79          1           0       -6.237597    6.537516    2.024907
     80          1           0       -4.744378    5.201052    1.826149
     81          1           0       -9.974909    5.650243    0.499331
     82          1           0       -9.110756    7.945925   -0.008224
     83          1           0       -7.559279    7.568792    0.109581
     84          1           0      -11.821440    3.062168   -2.356027
     85          1           0      -13.232634    1.801593   -1.658633
     86          1           0      -12.670665    3.292280   -0.813944
     87          1           0      -12.357781   -1.939103   -1.320072
     88          1           0      -13.302520   -0.154631   -1.470573
     89          1           0      -12.959882   -1.659683   -3.759034
     90          1           0      -12.421280   -0.083574   -3.972045
     91          1           0      -11.281217   -1.309741   -3.604319
     92          1           0       -9.113939   -4.853015   -1.731543
     93          1           0       -7.877171   -5.704935   -0.649175
     94          1           0       -9.386418   -5.109782   -0.156771
     95          1           0       -3.213147   -3.282896   -0.200563
     96          1           0       -1.611774   -4.476608    3.353169
     97          1           0       -2.769031   -5.469998    3.462847
     98          1           0       -1.464441   -6.090011    2.649838
     99          1           0        2.412839   -1.405618   -1.848515
    100          1           0        2.788342    0.186780   -1.901087
    101          1           0        4.391166   -1.080125    0.511522
    102          1           0        3.931208    1.527512   -2.416511
    103          1           0        5.855790    1.977319   -1.954569
    104          1           0        5.387452    0.535975   -3.096467
    105          1           0        6.567266    1.518755    0.328784
    106          1           0        6.350365   -0.151675    0.951421
    107          1           0        7.555470   -1.243249   -0.973441
    108          1           0        7.713700    0.418542   -1.709039
    109          1           0        9.335355    0.903746    0.144750
    110          1           0        8.757543   -0.537434    0.846415
    111          1           0       10.575811   -0.001274   -1.653183
    112          1           0        9.258590   -2.262540   -1.605366
    113          1           0       10.807517   -2.515098   -1.854833
    114          1           0       10.190608   -2.448692   -0.145728
    115          1           0       11.504120    0.805432    0.279597
    116          1           0       11.452283   -0.945311    1.032035
    117          1           0       13.040518   -1.687451   -1.207718
    118          1           0       12.664216    0.043616   -1.808860
    119          1           0       14.016141    0.896328    0.098882
    120          1           0       14.240301   -0.789606    0.997216
    121          1           0       15.437834    0.633164   -1.461511
    122          1           0       15.359054   -2.292865   -0.283171
    123          1           0       14.960092   -1.736078   -2.197715
    124          1           0       16.872170   -1.785818   -1.441350
    125          1           0       16.084127    1.262175    0.891270
    126          1           0       16.615368   -0.442263    1.049955
    127          1           0       18.320775   -0.322856   -0.693323
    128          1           0       17.825502    1.122973   -1.133464
    129          1           0       18.556849    2.164588    1.006306
    130          1           0       18.862845    0.715788    1.665595
    131          1           0       20.511603    0.325452   -0.048393
    132          1           0       20.081249    3.339732   -0.910838
    133          1           0       21.225495    2.310776   -1.280812
    134          1           0       19.798543    2.030791   -1.769727
    135          1           0       21.089049    1.375861    2.363443
    136          1           0       22.336377    1.693854    1.127687
    137          1           0       21.051554    3.030454    1.396584
 ---------------------------------------------------------------------

 SCF Done:  E(RCAM-B3LYP) =  -2932.54260109     A.U. after   18 cycles

 Excitation energies and oscillator strengths:

 Excited State   1:      Singlet-A      2.0314 eV  610.33 nm  f=0.2474  <S**2>=0.000
     240 -> 243        0.23481
     241 -> 242        0.65380
 This state for optimization and/or second-order correction.
 Total Energy, E(TD-HF/TD-KS) =  -2932.46794734
 Copying the excited state density for this state as the 1-particle RhoCI density.

 The electronic state is 1-A.
 Alpha  occ. eigenvalues --  -46.84787 -19.26959 -19.26163 -19.21928 -19.20167
 Alpha  occ. eigenvalues --  -19.19831 -14.41440 -14.39380 -14.38214 -14.38027
 Alpha  occ. eigenvalues --  -10.39070 -10.38784 -10.36547 -10.33010 -10.30121
 Alpha  occ. eigenvalues --  -10.30014 -10.29580 -10.29255 -10.29214 -10.29092
 Alpha  occ. eigenvalues --  -10.29028 -10.28767 -10.28642 -10.28583 -10.28502
 Alpha  occ. eigenvalues --  -10.28045 -10.28029 -10.27852 -10.27756 -10.27687
 Alpha  occ. eigenvalues --  -10.27642 -10.27615 -10.27527 -10.27390 -10.27345
 Alpha  occ. eigenvalues --  -10.27227 -10.26958 -10.26874 -10.26735 -10.26686
 Alpha  occ. eigenvalues --  -10.26669 -10.26538 -10.26240 -10.25991 -10.25918
 Alpha  occ. eigenvalues --  -10.25835 -10.25713 -10.25701 -10.25652 -10.25616
 Alpha  occ. eigenvalues --  -10.25540 -10.25494 -10.25408 -10.25398 -10.25299
 Alpha  occ. eigenvalues --  -10.25217 -10.25143 -10.24755 -10.24638 -10.24182
 Alpha  occ. eigenvalues --  -10.23799 -10.23749 -10.22979 -10.22671 -10.21634
 Alpha  occ. eigenvalues --   -3.13616  -1.88349  -1.87817  -1.87802  -1.19872
 Alpha  occ. eigenvalues --   -1.19135  -1.12123  -1.08479  -1.08086  -1.07053
 Alpha  occ. eigenvalues --   -1.05329  -1.03609  -1.01131  -0.94054  -0.91308
 Alpha  occ. eigenvalues --   -0.90810  -0.90537  -0.89842  -0.89205  -0.88947
 Alpha  occ. eigenvalues --   -0.88591  -0.88146  -0.87486  -0.87179  -0.85755
 Alpha  occ. eigenvalues --   -0.84909  -0.84300  -0.83935  -0.82949  -0.82573
 Alpha  occ. eigenvalues --   -0.82327  -0.81562  -0.80924  -0.79247  -0.78800
 Alpha  occ. eigenvalues --   -0.78085  -0.78020  -0.76829  -0.76479  -0.76096
 Alpha  occ. eigenvalues --   -0.75642  -0.75202  -0.74485  -0.73791  -0.73178
 Alpha  occ. eigenvalues --   -0.72484  -0.70766  -0.69688  -0.69221  -0.69097
 Alpha  occ. eigenvalues --   -0.67815  -0.66844  -0.66684  -0.65956  -0.65368
 Alpha  occ. eigenvalues --   -0.65281  -0.64025  -0.63601  -0.63180  -0.62726
 Alpha  occ. eigenvalues --   -0.61215  -0.60679  -0.60348  -0.59919  -0.59304
 Alpha  occ. eigenvalues --   -0.58567  -0.58366  -0.57735  -0.57574  -0.57075
 Alpha  occ. eigenvalues --   -0.56682  -0.56174  -0.55293  -0.55160  -0.54942
 Alpha  occ. eigenvalues --   -0.54640  -0.54380  -0.54274  -0.54052  -0.53671
 Alpha  occ. eigenvalues --   -0.53353  -0.53093  -0.52071  -0.51950  -0.51848
 Alpha  occ. eigenvalues --   -0.51687  -0.51426  -0.51172  -0.51019  -0.50884
 Alpha  occ. eigenvalues --   -0.50459  -0.50233  -0.50057  -0.49904  -0.49736
 Alpha  occ. eigenvalues --   -0.49386  -0.49250  -0.49147  -0.48754  -0.48483
 Alpha  occ. eigenvalues --   -0.48154  -0.48094  -0.47730  -0.47703  -0.47477
 Alpha  occ. eigenvalues --   -0.47244  -0.47005  -0.46856  -0.46337  -0.46261
 Alpha  occ. eigenvalues --   -0.46155  -0.45972  -0.45749  -0.45556  -0.45191
 Alpha  occ. eigenvalues --   -0.44980  -0.44899  -0.44704  -0.44632  -0.44381
 Alpha  occ. eigenvalues --   -0.44197  -0.43992  -0.43617  -0.43568  -0.43549
 Alpha  occ. eigenvalues --   -0.43188  -0.42987  -0.42797  -0.42685  -0.42499
 Alpha  occ. eigenvalues --   -0.42188  -0.42059  -0.42001  -0.41738  -0.41519
 Alpha  occ. eigenvalues --   -0.41226  -0.40865  -0.40440  -0.40238  -0.40134
 Alpha  occ. eigenvalues --   -0.39936  -0.39732  -0.39526  -0.39334  -0.39139
 Alpha  occ. eigenvalues --   -0.38993  -0.38700  -0.38148  -0.38046  -0.37840
 Alpha  occ. eigenvalues --   -0.37440  -0.36900  -0.36875  -0.36583  -0.36269
 Alpha  occ. eigenvalues --   -0.36168  -0.36078  -0.35489  -0.35421  -0.35140
 Alpha  occ. eigenvalues --   -0.35079  -0.34545  -0.34426  -0.33539  -0.33331
 Alpha  occ. eigenvalues --   -0.32825  -0.32415  -0.31897  -0.31603  -0.30854
 Alpha  occ. eigenvalues --   -0.30658  -0.30512  -0.27574  -0.26516  -0.23067
 Alpha  occ. eigenvalues --   -0.21137
 Alpha virt. eigenvalues --   -0.06732  -0.02817   0.01618   0.04823   0.05829
 Alpha virt. eigenvalues --    0.05934   0.06263   0.06623   0.07290   0.07457
 Alpha virt. eigenvalues --    0.08695   0.10566   0.10903   0.11225   0.11346

 Mulliken charges:
               1
     1  Mg   0.808091
     2  C    0.181376
     3  C   -0.188069
     4  C   -0.164347
     5  C   -0.156325
     6  N   -0.673274
     7  C    0.320719
     8  C   -0.192956
     9  C   -0.160628
    10  C    0.374430
    11  C   -0.324953
    12  C   -0.178226
    13  C   -0.257206
    14  C    0.576221
    15  O   -0.483259
    16  O   -0.447960
    17  N   -0.710104
    18  C    0.247130
    19  C    0.035689
    20  C    0.005036
    21  C    0.327132
    22  C   -0.357221
    23  C   -0.074252
    24  C   -0.243115
    25  N   -0.672867
    26  C    0.312783
    27  C    0.038627
    28  C   -0.022828
    29  C    0.306684
    30  C   -0.378241
    31  C   -0.207796
    32  C   -0.298776
    33  N   -0.751130
    34  C    0.249840
    35  C    0.039375
    36  C   -0.062077
    37  C    0.334690
    38  C   -0.385617
    39  C    0.414430
    40  O   -0.445296
    41  C   -0.363334
    42  C    0.596205
    43  O   -0.503137
    44  O   -0.427109
    45  C   -0.056493
    46  C   -0.004806
    47  C   -0.124602
    48  C    0.113061
    49  C   -0.340035
    50  C   -0.242950
    51  C   -0.164520
    52  C   -0.173736
    53  C   -0.067043
    54  C   -0.318291
    55  C   -0.160221
    56  C   -0.181999
    57  C   -0.146102
    58  C   -0.051063
    59  C   -0.284359
    60  C   -0.179591
    61  C   -0.180187
    62  C   -0.160586
    63  C   -0.076715
    64  C   -0.299011
    65  C   -0.311677
    66  H    0.057522
    67  H    0.079165
    68  H    0.070772
    69  H    0.139364
    70  H    0.105473
    71  H    0.120508
    72  H    0.111528
    73  H    0.124150
    74  H    0.123069
    75  H    0.122619
    76  H    0.144238
    77  H    0.127716
    78  H    0.131350
    79  H    0.115759
    80  H    0.077850
    81  H    0.097307
    82  H    0.093192
    83  H    0.105580
    84  H    0.114846
    85  H    0.097678
    86  H    0.119611
    87  H    0.100368
    88  H    0.105929
    89  H    0.120857
    90  H    0.069327
    91  H    0.115465
    92  H    0.129601
    93  H    0.137477
    94  H    0.138615
    95  H    0.143696
    96  H    0.123853
    97  H    0.136295
    98  H    0.111625
    99  H    0.122796
   100  H    0.096715
   101  H    0.097254
   102  H    0.116320
   103  H    0.130778
   104  H    0.123668
   105  H    0.110857
   106  H    0.080799
   107  H    0.093427
   108  H    0.100338
   109  H    0.087660
   110  H    0.081448
   111  H    0.088560
   112  H    0.104196
   113  H    0.099868
   114  H    0.110099
   115  H    0.087176
   116  H    0.065117
   117  H    0.106429
   118  H    0.044954
   119  H    0.091469
   120  H    0.073412
   121  H    0.061564
   122  H    0.107847
   123  H    0.096561
   124  H    0.064437
   125  H    0.080084
   126  H    0.088898
   127  H    0.084822
   128  H    0.104708
   129  H    0.097150
   130  H    0.078775
   131  H    0.084486
   132  H    0.085615
   133  H    0.106570
   134  H    0.098693
   135  H    0.100420
   136  H    0.099013
   137  H    0.107184
 Sum of Mulliken charges =   0.00000

 Dipole moment (field-independent basis, Debye):
    X=              2.4131    Y=              3.1387    Z=              0.0577  Tot=              3.9595
 Quadrupole moment (field-independent basis, Debye-Ang):
   XX=           -345.8364   YY=           -390.3253   ZZ=           -397.1726
   XY=             -3.4246   XZ=              4.5239   YZ=             -5.3524

 Normal termination of Gaussian 09 at Thu Jun 27 05:38:47 2019.
