 Gaussian 09, Revision D.01,
 Gaussian 09:  ES64L-G09RevD.01 24-Apr-2013

 -------------------------------------
 # td=(NStates=1) CAM-B3LYP/6-31G(d,p)
 -------------------------------------

 --
 TD
 --
 Symbolic Z-matrix:
 Charge =  0 Multiplicity = 1

                         Standard orientation:
 ---------------------------------------------------------------------
 Center     Atomic      Atomic             Coordinates (Angstroms)
 Number     Number       Type             X           Y           Z
 ---------------------------------------------------------------------
      1         12           0       -7.136812    0.569633    0.213299
      2          6           0       -4.899121   -1.956621    0.519636
      3          6           0       -4.760566    2.942496    1.107511
      4          6           0       -9.431085    3.084423   -0.312868
      5          6           0       -9.577086   -1.773118   -0.726582
      6          7           0       -5.115108    0.455984    0.658745
      7          6           0       -4.364930   -0.699407    0.784852
      8          6           0       -2.937568   -0.354219    1.221819
      9          6           0       -2.944653    1.110139    1.573605
     10          6           0       -4.389163    1.586873    1.111657
     11          6           0       -2.962866    1.406931    3.222689
     12          6           0       -2.055652   -0.593754    0.063378
     13          6           0       -0.540103   -0.469448    0.477826
     14          6           0        0.458553   -0.779494   -0.600859
     15          8           0        0.225591   -1.122204   -1.713047
     16          8           0        1.759530   -0.548424   -0.227738
     17          7           0       -7.112503    2.639539    0.396432
     18          6           0       -6.019602    3.446535    0.801049
     19          6           0       -6.401248    4.836945    0.810114
     20          6           0       -7.736874    4.830046    0.426849
     21          6           0       -8.175459    3.509258    0.203836
     22          6           0       -5.619462    5.969890    1.259536
     23          6           0       -8.610689    5.970957    0.373605
     24          6           0       -8.261978    7.310325    0.277825
     25          7           0       -9.128036    0.615305   -0.402543
     26          6           0       -9.874031    1.751422   -0.480083
     27          6           0      -11.170285    1.464364   -1.122464
     28          6           0      -11.157629    0.056386   -1.384844
     29          6           0       -9.975101   -0.444430   -0.800402
     30          6           0      -12.169367    2.422660   -1.596814
     31          6           0      -12.275755   -0.850786   -1.919616
     32          6           0      -12.160283   -1.103813   -3.446108
     33          7           0       -7.259563   -1.420890    0.022728
     34          6           0       -8.218736   -2.271711   -0.427619
     35          6           0       -7.800314   -3.675502   -0.501923
     36          6           0       -6.434443   -3.533072   -0.189283
     37          6           0       -6.260932   -2.215458    0.062055
     38          6           0       -8.550417   -4.877091   -0.928624
     39          6           0       -5.197725   -4.292545    0.215558
     40          8           0       -5.060729   -5.459413    0.338678
     41          6           0       -4.104678   -3.239407    0.545169
     42          6           0       -3.525833   -3.715915    1.924343
     43          8           0       -3.748230   -3.218406    2.987254
     44          8           0       -2.626170   -4.765582    1.775852
     45          6           0       -2.065099   -5.259101    2.956105
     46          6           0        2.812485   -0.746868   -1.211438
     47          6           0        4.163209   -0.479671   -0.569496
     48          6           0        5.067693    0.393952   -0.972608
     49          6           0        5.018212    1.221981   -2.225825
     50          6           0        6.383990    0.486037   -0.280961
     51          6           0        7.576274   -0.166389   -0.868209
     52          6           0        8.915635   -0.116236   -0.103963
     53          6           0       10.211462   -0.622625   -0.875477
     54          6           0       10.120928   -2.111463   -1.251153
     55          6           0       11.324433   -0.329291    0.004302
     56          6           0       12.707771   -0.488105   -0.619606
     57          6           0       13.938152   -0.085338    0.154136
     58          6           0       15.303430   -0.226877   -0.381737
     59          6           0       15.694351   -1.640567   -0.778816
     60          6           0       16.450649    0.392885    0.522145
     61          6           0       17.760670    0.503432   -0.184050
     62          6           0       18.815202    1.231885    0.592159
     63          6           0       20.215448    1.377397    0.081606
     64          6           0       20.205280    2.323468   -1.128367
     65          6           0       21.095051    2.080022    1.247476
     66          1           0       -3.960758    3.583994    1.502555
     67          1           0      -10.363297    3.772487   -0.118906
     68          1           0      -10.475577   -2.382594   -1.042710
     69          1           0       -2.456797   -0.776806    1.966035
     70          1           0       -2.244333    1.620614    1.002461
     71          1           0       -2.002810    1.051996    3.563193
     72          1           0       -3.040259    2.520660    3.372053
     73          1           0       -3.839148    0.988337    3.769273
     74          1           0       -2.393264   -1.478788   -0.516603
     75          1           0       -2.308487    0.328473   -0.654587
     76          1           0       -0.179416    0.357326    0.935384
     77          1           0       -0.435466   -1.209013    1.377658
     78          1           0       -5.120773    6.464147    0.357316
     79          1           0       -6.332622    6.800341    1.649006
     80          1           0       -4.834241    5.608509    1.931676
     81          1           0       -9.682077    5.981233    0.721885
     82          1           0       -9.000999    8.170434    0.197756
     83          1           0       -7.217671    7.437970    0.230878
     84          1           0      -11.586801    3.244074   -2.366786
     85          1           0      -13.075967    2.011360   -2.037674
     86          1           0      -12.219295    3.106347   -0.807860
     87          1           0      -12.418566   -1.714442   -1.334871
     88          1           0      -13.244057   -0.405577   -1.767659
     89          1           0      -13.158163   -1.730089   -3.798184
     90          1           0      -12.140294   -0.185682   -3.963993
     91          1           0      -11.339622   -1.806346   -3.530113
     92          1           0       -8.837863   -4.684109   -2.092540
     93          1           0       -7.961718   -5.843550   -0.881398
     94          1           0       -9.553909   -5.073322   -0.384692
     95          1           0       -3.380908   -3.205130   -0.293681
     96          1           0       -1.451728   -4.586964    3.409535
     97          1           0       -2.785736   -5.573940    3.635040
     98          1           0       -1.410507   -6.177749    2.616440
     99          1           0        2.733424   -2.007120   -1.473491
    100          1           0        2.572176   -0.249198   -2.032936
    101          1           0        4.156253   -0.771611    0.392088
    102          1           0        3.980610    1.454876   -2.806259
    103          1           0        5.404651    2.214248   -1.981163
    104          1           0        5.670866    0.982690   -3.240254
    105          1           0        6.643763    1.370959   -0.019156
    106          1           0        6.291127   -0.028757    0.670926
    107          1           0        7.441770   -1.203400   -1.231914
    108          1           0        7.683714    0.208714   -1.959581
    109          1           0        9.172849    0.995338   -0.050116
    110          1           0        8.676796   -0.543452    0.931188
    111          1           0       10.088328   -0.131414   -1.923310
    112          1           0        8.983394   -2.342748   -1.621777
    113          1           0       10.857039   -2.297769   -2.095250
    114          1           0       10.388285   -2.835959   -0.341803
    115          1           0       11.339510    0.727765    0.330037
    116          1           0       11.138642   -0.993663    0.880838
    117          1           0       12.797140   -1.679694   -0.979026
    118          1           0       13.004085   -0.040951   -1.587769
    119          1           0       13.881782    0.956265    0.562225
    120          1           0       14.155017   -0.595731    1.134396
    121          1           0       15.401099    0.516006   -1.262628
    122          1           0       15.925236   -2.231392    0.224174
    123          1           0       14.863521   -2.134480   -1.192325
    124          1           0       16.556187   -1.632304   -1.733690
    125          1           0       16.053025    1.527573    0.962543
    126          1           0       16.673429   -0.138662    1.247373
    127          1           0       17.988063   -0.527564   -0.374805
    128          1           0       17.586112    0.861375   -1.036993
    129          1           0       18.380976    2.195507    0.932412
    130          1           0       18.842654    0.690243    1.461925
    131          1           0       20.456088    0.312979   -0.224174
    132          1           0       19.698344    3.250112   -0.791039
    133          1           0       21.360784    2.215822   -1.665567
    134          1           0       19.775858    1.812377   -1.925925
    135          1           0       21.085037    1.358017    2.034596
    136          1           0       22.110377    2.087972    1.015339
    137          1           0       20.522534    2.925599    1.643608
 ---------------------------------------------------------------------

 SCF Done:  E(RCAM-B3LYP) =  -2932.62602247     A.U. after   18 cycles

 Excitation energies and oscillator strengths:

 Excited State   1:      Singlet-A      1.9778 eV  626.87 nm  f=0.2559  <S**2>=0.000
     240 -> 243        0.23213
     241 -> 242        0.65548
 This state for optimization and/or second-order correction.
 Total Energy, E(TD-HF/TD-KS) =  -2932.55333915
 Copying the excited state density for this state as the 1-particle RhoCI density.

 The electronic state is 1-A.
 Alpha  occ. eigenvalues --  -46.84405 -19.25241 -19.24989 -19.21520 -19.20624
 Alpha  occ. eigenvalues --  -19.20539 -14.42097 -14.39612 -14.39545 -14.39161
 Alpha  occ. eigenvalues --  -10.39739 -10.38916 -10.35031 -10.32255 -10.32005
 Alpha  occ. eigenvalues --  -10.30663 -10.30527 -10.29861 -10.29761 -10.29732
 Alpha  occ. eigenvalues --  -10.29438 -10.28810 -10.28548 -10.28460 -10.28457
 Alpha  occ. eigenvalues --  -10.28246 -10.28052 -10.28050 -10.28001 -10.27983
 Alpha  occ. eigenvalues --  -10.27971 -10.27944 -10.27905 -10.27599 -10.27309
 Alpha  occ. eigenvalues --  -10.27247 -10.27196 -10.27079 -10.27010 -10.26934
 Alpha  occ. eigenvalues --  -10.26911 -10.26864 -10.26837 -10.26793 -10.26707
 Alpha  occ. eigenvalues --  -10.26695 -10.26639 -10.26560 -10.26370 -10.26237
 Alpha  occ. eigenvalues --  -10.26143 -10.26124 -10.26059 -10.25917 -10.25825
 Alpha  occ. eigenvalues --  -10.25660 -10.25440 -10.25199 -10.24996 -10.24485
 Alpha  occ. eigenvalues --  -10.24466 -10.24259 -10.23877 -10.23225 -10.22090
 Alpha  occ. eigenvalues --   -3.13425  -1.88135  -1.87665  -1.87607  -1.17804
 Alpha  occ. eigenvalues --   -1.17765  -1.13181  -1.09751  -1.08913  -1.07024
 Alpha  occ. eigenvalues --   -1.02977  -1.02134  -1.01579  -0.92434  -0.92268
 Alpha  occ. eigenvalues --   -0.91672  -0.91360  -0.90567  -0.89520  -0.88983
 Alpha  occ. eigenvalues --   -0.88677  -0.87910  -0.87429  -0.87078  -0.86276
 Alpha  occ. eigenvalues --   -0.85094  -0.84493  -0.83843  -0.83367  -0.82361
 Alpha  occ. eigenvalues --   -0.81423  -0.80804  -0.80409  -0.79613  -0.78305
 Alpha  occ. eigenvalues --   -0.78251  -0.77327  -0.76312  -0.75960  -0.75782
 Alpha  occ. eigenvalues --   -0.75242  -0.74917  -0.74761  -0.73792  -0.72563
 Alpha  occ. eigenvalues --   -0.71565  -0.70568  -0.70077  -0.69383  -0.67908
 Alpha  occ. eigenvalues --   -0.67528  -0.66787  -0.65586  -0.65466  -0.64776
 Alpha  occ. eigenvalues --   -0.64131  -0.63282  -0.63030  -0.62387  -0.62007
 Alpha  occ. eigenvalues --   -0.61838  -0.61457  -0.60734  -0.60456  -0.59485
 Alpha  occ. eigenvalues --   -0.58837  -0.58439  -0.58261  -0.57872  -0.56908
 Alpha  occ. eigenvalues --   -0.55950  -0.55471  -0.55401  -0.55289  -0.54915
 Alpha  occ. eigenvalues --   -0.54704  -0.54295  -0.54073  -0.53429  -0.53150
 Alpha  occ. eigenvalues --   -0.53023  -0.52554  -0.52398  -0.52303  -0.51682
 Alpha  occ. eigenvalues --   -0.51456  -0.51334  -0.51125  -0.51000  -0.50629
 Alpha  occ. eigenvalues --   -0.50504  -0.50320  -0.50005  -0.49727  -0.49268
 Alpha  occ. eigenvalues --   -0.49231  -0.49122  -0.48873  -0.48762  -0.48495
 Alpha  occ. eigenvalues --   -0.48306  -0.48014  -0.47797  -0.47503  -0.47376
 Alpha  occ. eigenvalues --   -0.47167  -0.46822  -0.46563  -0.46334  -0.46208
 Alpha  occ. eigenvalues --   -0.46032  -0.45568  -0.45398  -0.45268  -0.45084
 Alpha  occ. eigenvalues --   -0.44976  -0.44909  -0.44653  -0.44504  -0.44372
 Alpha  occ. eigenvalues --   -0.44320  -0.44024  -0.43964  -0.43783  -0.43472
 Alpha  occ. eigenvalues --   -0.43294  -0.43157  -0.43058  -0.42862  -0.42370
 Alpha  occ. eigenvalues --   -0.42229  -0.42082  -0.41474  -0.41405  -0.41367
 Alpha  occ. eigenvalues --   -0.41219  -0.41075  -0.40848  -0.40806  -0.40357
 Alpha  occ. eigenvalues --   -0.40019  -0.39833  -0.39804  -0.39412  -0.39334
 Alpha  occ. eigenvalues --   -0.38933  -0.38736  -0.38286  -0.37911  -0.37768
 Alpha  occ. eigenvalues --   -0.37681  -0.37547  -0.37020  -0.36942  -0.36691
 Alpha  occ. eigenvalues --   -0.36152  -0.36136  -0.35741  -0.35617  -0.35338
 Alpha  occ. eigenvalues --   -0.35009  -0.34778  -0.34700  -0.34099  -0.33941
 Alpha  occ. eigenvalues --   -0.33920  -0.33557  -0.31891  -0.30915  -0.30293
 Alpha  occ. eigenvalues --   -0.30068  -0.29800  -0.27418  -0.27088  -0.22970
 Alpha  occ. eigenvalues --   -0.21463
 Alpha virt. eigenvalues --   -0.07155  -0.03221   0.02285   0.03991   0.04969
 Alpha virt. eigenvalues --    0.05451   0.06208   0.06572   0.06720   0.06906
 Alpha virt. eigenvalues --    0.08380   0.10282   0.10859   0.11162   0.11400

 Mulliken charges:
               1
     1  Mg   0.815948
     2  C    0.020928
     3  C   -0.203289
     4  C   -0.173889
     5  C   -0.180943
     6  N   -0.648337
     7  C    0.290640
     8  C   -0.092516
     9  C   -0.158452
    10  C    0.303284
    11  C   -0.321368
    12  C   -0.174265
    13  C   -0.277951
    14  C    0.604799
    15  O   -0.452162
    16  O   -0.511585
    17  N   -0.710780
    18  C    0.305570
    19  C    0.079902
    20  C    0.004623
    21  C    0.314334
    22  C   -0.394976
    23  C   -0.099769
    24  C   -0.261375
    25  N   -0.674330
    26  C    0.307429
    27  C    0.000978
    28  C    0.036618
    29  C    0.269993
    30  C   -0.363120
    31  C   -0.262926
    32  C   -0.291268
    33  N   -0.672780
    34  C    0.210298
    35  C    0.051226
    36  C   -0.028255
    37  C    0.349904
    38  C   -0.384111
    39  C    0.376320
    40  O   -0.430676
    41  C   -0.320745
    42  C    0.620402
    43  O   -0.449451
    44  O   -0.458990
    45  C   -0.073545
    46  C    0.055327
    47  C   -0.125750
    48  C    0.136221
    49  C   -0.366763
    50  C   -0.206621
    51  C   -0.187985
    52  C   -0.171802
    53  C   -0.052356
    54  C   -0.297049
    55  C   -0.151573
    56  C   -0.176335
    57  C   -0.163722
    58  C   -0.067507
    59  C   -0.294246
    60  C   -0.151851
    61  C   -0.176647
    62  C   -0.166986
    63  C   -0.078583
    64  C   -0.276502
    65  C   -0.311566
    66  H    0.086941
    67  H    0.087045
    68  H    0.091739
    69  H    0.108792
    70  H    0.115091
    71  H    0.113137
    72  H    0.104295
    73  H    0.137198
    74  H    0.123555
    75  H    0.090982
    76  H    0.147982
    77  H    0.126009
    78  H    0.126478
    79  H    0.125631
    80  H    0.114859
    81  H    0.096827
    82  H    0.112599
    83  H    0.094720
    84  H    0.094623
    85  H    0.122052
    86  H    0.128060
    87  H    0.115831
    88  H    0.105284
    89  H    0.071466
    90  H    0.126727
    91  H    0.118245
    92  H    0.109991
    93  H    0.146985
    94  H    0.118967
    95  H    0.168919
    96  H    0.120738
    97  H    0.131989
    98  H    0.106747
    99  H    0.080986
   100  H    0.125094
   101  H    0.099312
   102  H    0.096919
   103  H    0.121154
   104  H    0.103569
   105  H    0.105188
   106  H    0.091897
   107  H    0.092110
   108  H    0.069640
   109  H    0.086904
   110  H    0.086520
   111  H    0.085825
   112  H    0.085596
   113  H    0.106511
   114  H    0.084786
   115  H    0.094515
   116  H    0.105569
   117  H    0.058680
   118  H    0.100939
   119  H    0.087298
   120  H    0.072934
   121  H    0.066484
   122  H    0.089895
   123  H    0.112936
   124  H    0.079292
   125  H    0.035977
   126  H    0.097783
   127  H    0.092776
   128  H    0.095349
   129  H    0.074275
   130  H    0.091988
   131  H    0.076470
   132  H    0.105579
   133  H    0.057153
   134  H    0.113391
   135  H    0.100546
   136  H    0.111142
   137  H    0.107464
 Sum of Mulliken charges =   0.00000

 Dipole moment (field-independent basis, Debye):
    X=              0.6136    Y=              4.3529    Z=              0.9380  Tot=              4.4949
 Quadrupole moment (field-independent basis, Debye-Ang):
   XX=           -356.5631   YY=           -395.8025   ZZ=           -399.2782
   XY=            -25.0423   XZ=             10.0581   YZ=              2.5548

 Normal termination of Gaussian 09 at Sun Jun 30 04:05:35 2019.
