 Gaussian 09, Revision D.01,
 Gaussian 09:  ES64L-G09RevD.01 24-Apr-2013

 -------------------------------------
 # td=(NStates=1) CAM-B3LYP/6-31G(d,p)
 -------------------------------------

 --
 TD
 --
 Symbolic Z-matrix:
 Charge =  0 Multiplicity = 1

                         Standard orientation:
 ---------------------------------------------------------------------
 Center     Atomic      Atomic             Coordinates (Angstroms)
 Number     Number       Type             X           Y           Z
 ---------------------------------------------------------------------
      1         12           0       -7.182218    0.538185    0.113965
      2          6           0       -4.906092   -1.859111    0.485393
      3          6           0       -4.796564    2.841001    1.195049
      4          6           0       -9.469791    3.103489   -0.270834
      5          6           0       -9.515542   -1.767324   -0.782168
      6          7           0       -5.096512    0.398511    0.603754
      7          6           0       -4.321753   -0.724995    0.662037
      8          6           0       -2.902194   -0.411736    1.061923
      9          6           0       -3.045433    1.101193    1.644867
     10          6           0       -4.385939    1.494462    1.122233
     11          6           0       -2.973434    1.149144    3.201390
     12          6           0       -1.841281   -0.526878   -0.010366
     13          6           0       -0.408698   -0.377235    0.447434
     14          6           0        0.559023   -0.585308   -0.714122
     15          8           0        0.226818   -0.961489   -1.817400
     16          8           0        1.827057   -0.431200   -0.296700
     17          7           0       -7.133988    2.587173    0.389267
     18          6           0       -6.059469    3.402431    0.794091
     19          6           0       -6.429726    4.757333    0.870727
     20          6           0       -7.791710    4.785279    0.533539
     21          6           0       -8.176972    3.403797    0.206630
     22          6           0       -5.588862    5.829058    1.345507
     23          6           0       -8.617106    5.908830    0.457208
     24          6           0       -8.273326    7.133240    0.118150
     25          7           0       -9.092555    0.652372   -0.495595
     26          6           0       -9.885249    1.809099   -0.674139
     27          6           0      -11.235413    1.476232   -1.019671
     28          6           0      -11.287209    0.109302   -1.214747
     29          6           0       -9.915700   -0.451142   -0.837421
     30          6           0      -12.243796    2.536195   -1.456029
     31          6           0      -12.415241   -0.748814   -1.691259
     32          6           0      -12.447511   -1.040991   -3.197835
     33          7           0       -7.236646   -1.430389   -0.262675
     34          6           0       -8.245075   -2.187808   -0.551141
     35          6           0       -7.807988   -3.608086   -0.436850
     36          6           0       -6.437718   -3.614404   -0.142299
     37          6           0       -6.131750   -2.087872   -0.063704
     38          6           0       -8.643332   -4.807862   -0.697053
     39          6           0       -5.322209   -4.456368    0.210418
     40          8           0       -5.242566   -5.640142    0.300471
     41          6           0       -4.147202   -3.274344    0.600365
     42          6           0       -3.630301   -3.540767    1.860701
     43          8           0       -3.735792   -2.950021    2.890711
     44          8           0       -2.887027   -4.683739    1.790457
     45          6           0       -2.301894   -5.280139    2.926133
     46          6           0        2.874440   -0.742753   -1.270596
     47          6           0        4.222711   -0.374718   -0.597461
     48          6           0        5.184099    0.492069   -1.009032
     49          6           0        5.028880    1.353540   -2.152786
     50          6           0        6.409860    0.398957   -0.192888
     51          6           0        7.602461   -0.264744   -0.999424
     52          6           0        9.004820   -0.164681   -0.220650
     53          6           0       10.211878   -0.565172   -1.003194
     54          6           0       10.140508   -1.946677   -1.504333
     55          6           0       11.483325   -0.380446   -0.050663
     56          6           0       12.848449   -0.526456   -0.771220
     57          6           0       14.012902   -0.043345    0.047098
     58          6           0       15.386448   -0.169465   -0.502905
     59          6           0       15.713120   -1.516035   -0.894623
     60          6           0       16.521705    0.336376    0.484031
     61          6           0       17.874176    0.480315   -0.115253
     62          6           0       18.776711    1.099375    0.809983
     63          6           0       20.214205    1.306123    0.335882
     64          6           0       20.278820    2.279650   -0.817129
     65          6           0       21.171396    1.890983    1.378904
     66          1           0       -3.880607    3.452106    1.598415
     67          1           0      -10.437262    3.840038   -0.311142
     68          1           0      -10.356959   -2.430882   -1.087454
     69          1           0       -2.608496   -1.185703    1.866301
     70          1           0       -2.358035    1.702664    1.281326
     71          1           0       -2.048319    0.744739    3.713338
     72          1           0       -3.262058    2.080421    3.300026
     73          1           0       -3.670179    0.467972    3.667260
     74          1           0       -1.913156   -1.613739   -0.449716
     75          1           0       -2.199025    0.178961   -0.882464
     76          1           0        0.061373    0.461126    1.310945
     77          1           0       -0.155069   -1.175693    1.265304
     78          1           0       -4.901336    6.234748    0.592448
     79          1           0       -6.135351    6.655351    1.767747
     80          1           0       -4.946850    5.499614    2.367506
     81          1           0       -9.609066    5.990377    0.773705
     82          1           0       -8.944817    7.911153   -0.025390
     83          1           0       -7.090631    7.388831    0.012594
     84          1           0      -11.917115    2.940491   -2.240653
     85          1           0      -13.258652    2.155149   -1.745948
     86          1           0      -12.515174    3.173696   -0.556850
     87          1           0      -12.582374   -1.468937   -1.117137
     88          1           0      -13.220923   -0.180636   -1.438323
     89          1           0      -13.270341   -1.900579   -3.509118
     90          1           0      -12.694930   -0.075390   -3.649720
     91          1           0      -11.557431   -1.599664   -3.551368
     92          1           0       -9.374826   -4.837664   -1.572972
     93          1           0       -8.203730   -5.785939   -0.908125
     94          1           0       -9.399112   -4.752652    0.242843
     95          1           0       -3.383379   -3.419749   -0.134002
     96          1           0       -1.860183   -4.565367    3.542674
     97          1           0       -3.024177   -5.811438    3.503748
     98          1           0       -1.625657   -5.963531    2.693832
     99          1           0        2.607916   -1.716448   -1.460641
    100          1           0        2.526651   -0.127491   -2.106781
    101          1           0        4.349175   -0.996080    0.279136
    102          1           0        3.903600    1.310490   -2.524141
    103          1           0        5.245429    2.478950   -1.951502
    104          1           0        5.911326    1.049402   -2.938650
    105          1           0        6.882568    1.329871    0.223804
    106          1           0        6.328318   -0.120325    0.828139
    107          1           0        7.275513   -1.251175   -1.229721
    108          1           0        7.558676    0.441650   -1.799908
    109          1           0        9.066989    0.910619    0.183197
    110          1           0        9.020460   -0.850736    0.758644
    111          1           0       10.312502    0.282882   -1.788604
    112          1           0        9.301445   -1.855765   -2.077685
    113          1           0       11.169100   -2.087711   -1.980260
    114          1           0       10.161673   -2.625228   -0.734680
    115          1           0       11.535112    0.587975    0.329439
    116          1           0       11.374366   -1.021676    0.835662
    117          1           0       13.198903   -1.402805   -1.116990
    118          1           0       12.935974    0.275471   -1.625299
    119          1           0       13.790431    1.090570    0.146821
    120          1           0       13.935817   -0.752537    0.968337
    121          1           0       15.472977    0.477623   -1.318694
    122          1           0       15.991518   -2.113102    0.055837
    123          1           0       14.994336   -2.155020   -1.593319
    124          1           0       16.591436   -1.837618   -1.274702
    125          1           0       16.225226    1.268413    0.851404
    126          1           0       16.534743   -0.396482    1.412583
    127          1           0       18.181040   -0.788480   -0.331911
    128          1           0       17.817034    0.997234   -1.020729
    129          1           0       18.413024    2.167433    1.055761
    130          1           0       18.808657    0.444498    1.740622
    131          1           0       20.703679    0.232293   -0.042049
    132          1           0       19.707143    3.178144   -0.713014
    133          1           0       21.318363    2.307704   -1.232951
    134          1           0       19.926620    1.927506   -1.737360
    135          1           0       21.357980    1.381669    2.311293
    136          1           0       22.177053    1.849101    1.120777
    137          1           0       20.816931    2.829358    1.599963
 ---------------------------------------------------------------------

 SCF Done:  E(RCAM-B3LYP) =  -2932.60490508     A.U. after   18 cycles

 Excitation energies and oscillator strengths:

 Excited State   1:      Singlet-A      1.9474 eV  636.66 nm  f=0.2820  <S**2>=0.000
     240 -> 243        0.22402
     241 -> 242        0.66674
 This state for optimization and/or second-order correction.
 Total Energy, E(TD-HF/TD-KS) =  -2932.53333884
 Copying the excited state density for this state as the 1-particle RhoCI density.

 The electronic state is 1-A.
 Alpha  occ. eigenvalues --  -46.83975 -19.25124 -19.23921 -19.21863 -19.20580
 Alpha  occ. eigenvalues --  -19.19804 -14.41213 -14.39889 -14.39421 -14.39322
 Alpha  occ. eigenvalues --  -10.38889 -10.37597 -10.36310 -10.31247 -10.30476
 Alpha  occ. eigenvalues --  -10.29797 -10.29750 -10.29572 -10.29280 -10.29208
 Alpha  occ. eigenvalues --  -10.29186 -10.29137 -10.29047 -10.28797 -10.28782
 Alpha  occ. eigenvalues --  -10.28318 -10.28282 -10.28046 -10.27967 -10.27640
 Alpha  occ. eigenvalues --  -10.27436 -10.27273 -10.27057 -10.26979 -10.26869
 Alpha  occ. eigenvalues --  -10.26869 -10.26761 -10.26730 -10.26649 -10.26567
 Alpha  occ. eigenvalues --  -10.26491 -10.26391 -10.26387 -10.26167 -10.26043
 Alpha  occ. eigenvalues --  -10.25960 -10.25959 -10.25908 -10.25905 -10.25850
 Alpha  occ. eigenvalues --  -10.25751 -10.25661 -10.25479 -10.25382 -10.25341
 Alpha  occ. eigenvalues --  -10.25014 -10.24937 -10.24778 -10.24317 -10.24240
 Alpha  occ. eigenvalues --  -10.24185 -10.23867 -10.23613 -10.23115 -10.22608
 Alpha  occ. eigenvalues --   -3.13104  -1.87805  -1.87338  -1.87293  -1.17590
 Alpha  occ. eigenvalues --   -1.17446  -1.13252  -1.08888  -1.08684  -1.06663
 Alpha  occ. eigenvalues --   -1.03289  -1.02567  -1.00353  -0.92495  -0.92139
 Alpha  occ. eigenvalues --   -0.91843  -0.90427  -0.89768  -0.89398  -0.89158
 Alpha  occ. eigenvalues --   -0.88828  -0.88489  -0.87872  -0.87230  -0.86002
 Alpha  occ. eigenvalues --   -0.85673  -0.84812  -0.84536  -0.83481  -0.82997
 Alpha  occ. eigenvalues --   -0.82427  -0.81525  -0.80753  -0.80042  -0.78275
 Alpha  occ. eigenvalues --   -0.77568  -0.77100  -0.76901  -0.76794  -0.76446
 Alpha  occ. eigenvalues --   -0.75775  -0.75519  -0.75193  -0.73480  -0.72689
 Alpha  occ. eigenvalues --   -0.72094  -0.70706  -0.70078  -0.69608  -0.69137
 Alpha  occ. eigenvalues --   -0.67165  -0.66728  -0.65173  -0.64988  -0.64751
 Alpha  occ. eigenvalues --   -0.63863  -0.62947  -0.62273  -0.62043  -0.61690
 Alpha  occ. eigenvalues --   -0.61482  -0.60495  -0.60181  -0.59725  -0.59261
 Alpha  occ. eigenvalues --   -0.58764  -0.58079  -0.57872  -0.57588  -0.57162
 Alpha  occ. eigenvalues --   -0.56707  -0.56088  -0.55550  -0.55429  -0.55117
 Alpha  occ. eigenvalues --   -0.54823  -0.54418  -0.54108  -0.53917  -0.53392
 Alpha  occ. eigenvalues --   -0.53069  -0.52769  -0.52712  -0.52532  -0.52112
 Alpha  occ. eigenvalues --   -0.51904  -0.51786  -0.51629  -0.51479  -0.51395
 Alpha  occ. eigenvalues --   -0.51174  -0.50732  -0.50505  -0.50263  -0.49744
 Alpha  occ. eigenvalues --   -0.49661  -0.49311  -0.49168  -0.48899  -0.48697
 Alpha  occ. eigenvalues --   -0.48527  -0.48345  -0.47977  -0.47676  -0.47347
 Alpha  occ. eigenvalues --   -0.47186  -0.46985  -0.46489  -0.46279  -0.45883
 Alpha  occ. eigenvalues --   -0.45755  -0.45700  -0.45624  -0.45361  -0.45324
 Alpha  occ. eigenvalues --   -0.45047  -0.44849  -0.44681  -0.44335  -0.44272
 Alpha  occ. eigenvalues --   -0.43908  -0.43756  -0.43618  -0.43502  -0.43246
 Alpha  occ. eigenvalues --   -0.42809  -0.42584  -0.42523  -0.42327  -0.41879
 Alpha  occ. eigenvalues --   -0.41755  -0.41595  -0.41418  -0.41176  -0.40812
 Alpha  occ. eigenvalues --   -0.40673  -0.40500  -0.40192  -0.40171  -0.39914
 Alpha  occ. eigenvalues --   -0.39752  -0.39400  -0.39145  -0.38957  -0.38781
 Alpha  occ. eigenvalues --   -0.38579  -0.38350  -0.38320  -0.38110  -0.37805
 Alpha  occ. eigenvalues --   -0.37319  -0.37147  -0.36942  -0.36367  -0.36345
 Alpha  occ. eigenvalues --   -0.36271  -0.36095  -0.35935  -0.35680  -0.35135
 Alpha  occ. eigenvalues --   -0.34666  -0.34560  -0.34328  -0.33716  -0.33585
 Alpha  occ. eigenvalues --   -0.33380  -0.32984  -0.31916  -0.31214  -0.30247
 Alpha  occ. eigenvalues --   -0.30056  -0.29616  -0.28538  -0.27053  -0.23137
 Alpha  occ. eigenvalues --   -0.20726
 Alpha virt. eigenvalues --   -0.06533  -0.02678   0.01086   0.04629   0.04695
 Alpha virt. eigenvalues --    0.05728   0.06199   0.06615   0.07307   0.07660
 Alpha virt. eigenvalues --    0.08685   0.10758   0.11150   0.11319   0.11489

 Mulliken charges:
               1
     1  Mg   0.819997
     2  C    0.039876
     3  C   -0.208728
     4  C   -0.170194
     5  C   -0.183815
     6  N   -0.642871
     7  C    0.349202
     8  C   -0.176065
     9  C   -0.145229
    10  C    0.320021
    11  C   -0.294807
    12  C   -0.156564
    13  C   -0.272999
    14  C    0.632179
    15  O   -0.484888
    16  O   -0.496212
    17  N   -0.712893
    18  C    0.278965
    19  C    0.079713
    20  C    0.002647
    21  C    0.344052
    22  C   -0.390245
    23  C   -0.096669
    24  C   -0.237903
    25  N   -0.697908
    26  C    0.280571
    27  C    0.002738
    28  C   -0.012169
    29  C    0.283010
    30  C   -0.364398
    31  C   -0.220178
    32  C   -0.296916
    33  N   -0.695088
    34  C    0.324222
    35  C    0.011176
    36  C   -0.001790
    37  C    0.267534
    38  C   -0.375337
    39  C    0.365922
    40  O   -0.419685
    41  C   -0.350568
    42  C    0.649432
    43  O   -0.480726
    44  O   -0.481089
    45  C   -0.067953
    46  C    0.007288
    47  C   -0.131812
    48  C    0.171568
    49  C   -0.367963
    50  C   -0.256408
    51  C   -0.188156
    52  C   -0.161737
    53  C   -0.067393
    54  C   -0.285928
    55  C   -0.171103
    56  C   -0.174728
    57  C   -0.167990
    58  C   -0.043036
    59  C   -0.313844
    60  C   -0.175075
    61  C   -0.131148
    62  C   -0.149299
    63  C   -0.057365
    64  C   -0.318202
    65  C   -0.297659
    66  H    0.088597
    67  H    0.102382
    68  H    0.100856
    69  H    0.116390
    70  H    0.110781
    71  H    0.102484
    72  H    0.108019
    73  H    0.130969
    74  H    0.113028
    75  H    0.108377
    76  H    0.109928
    77  H    0.134323
    78  H    0.127334
    79  H    0.129581
    80  H    0.084783
    81  H    0.096502
    82  H    0.102912
    83  H    0.076292
    84  H    0.148638
    85  H    0.104976
    86  H    0.114877
    87  H    0.108135
    88  H    0.108313
    89  H    0.073755
    90  H    0.116110
    91  H    0.116546
    92  H    0.115598
    93  H    0.147039
    94  H    0.112771
    95  H    0.168277
    96  H    0.118523
    97  H    0.117962
    98  H    0.122920
    99  H    0.134717
   100  H    0.124157
   101  H    0.099047
   102  H    0.114197
   103  H    0.117881
   104  H    0.106667
   105  H    0.089448
   106  H    0.097631
   107  H    0.113065
   108  H    0.100345
   109  H    0.081589
   110  H    0.065774
   111  H    0.072287
   112  H    0.112615
   113  H    0.099711
   114  H    0.109471
   115  H    0.094117
   116  H    0.086071
   117  H    0.101591
   118  H    0.064345
   119  H    0.073537
   120  H    0.070983
   121  H    0.085327
   122  H    0.077965
   123  H    0.083709
   124  H    0.116939
   125  H    0.090725
   126  H    0.074507
   127  H    0.041102
   128  H    0.101189
   129  H    0.075519
   130  H    0.089754
   131  H    0.051808
   132  H    0.104746
   133  H    0.097907
   134  H    0.104783
   135  H    0.087848
   136  H    0.106339
   137  H    0.105227
 Sum of Mulliken charges =   0.00000

 Dipole moment (field-independent basis, Debye):
    X=              1.3584    Y=              3.4701    Z=              0.0548  Tot=              3.7269
 Quadrupole moment (field-independent basis, Debye-Ang):
   XX=           -315.3889   YY=           -390.2698   ZZ=           -401.4814
   XY=            -11.9690   XZ=              6.2699   YZ=             -1.7185

 Normal termination of Gaussian 09 at Sat Jun 29 05:44:10 2019.
