 Gaussian 09, Revision D.01,
 Gaussian 09:  ES64L-G09RevD.01 24-Apr-2013

 -------------------------------------
 # td=(NStates=1) CAM-B3LYP/6-31G(d,p)
 -------------------------------------

 --
 TD
 --
 Symbolic Z-matrix:
 Charge =  0 Multiplicity = 1

                         Standard orientation:
 ---------------------------------------------------------------------
 Center     Atomic      Atomic             Coordinates (Angstroms)
 Number     Number       Type             X           Y           Z
 ---------------------------------------------------------------------
      1         12           0       -7.197897    0.626186    0.186066
      2          6           0       -4.806607   -1.912373    0.501414
      3          6           0       -4.843693    2.877574    1.146147
      4          6           0       -9.483030    3.043637   -0.317842
      5          6           0       -9.526868   -1.855529   -0.913641
      6          7           0       -5.146235    0.551438    0.802542
      7          6           0       -4.304321   -0.640576    0.828064
      8          6           0       -2.920457   -0.331392    1.172734
      9          6           0       -2.990110    1.176484    1.731959
     10          6           0       -4.386666    1.552087    1.219007
     11          6           0       -2.801095    1.418448    3.213158
     12          6           0       -2.029623   -0.524082   -0.031541
     13          6           0       -0.531265   -0.375797    0.456348
     14          6           0        0.455254   -0.624967   -0.688618
     15          8           0        0.165399   -1.002548   -1.737504
     16          8           0        1.691306   -0.509098   -0.184087
     17          7           0       -7.178494    2.596565    0.306135
     18          6           0       -6.193247    3.365201    0.774610
     19          6           0       -6.538978    4.777630    0.881060
     20          6           0       -7.827113    4.851870    0.388310
     21          6           0       -8.203313    3.474148    0.065125
     22          6           0       -5.730905    5.973521    1.459513
     23          6           0       -8.662160    5.966897    0.101756
     24          6           0       -8.234395    7.202835    0.031309
     25          7           0       -9.131883    0.590440   -0.495584
     26          6           0       -9.967340    1.662408   -0.523610
     27          6           0      -11.202758    1.436096   -1.040419
     28          6           0      -11.216797    0.026805   -1.309544
     29          6           0       -9.932637   -0.496734   -0.830550
     30          6           0      -12.249461    2.401378   -1.437151
     31          6           0      -12.238433   -0.881573   -1.923002
     32          6           0      -12.118968   -1.093343   -3.398017
     33          7           0       -7.252462   -1.452641   -0.162090
     34          6           0       -8.211352   -2.320518   -0.472088
     35          6           0       -7.775715   -3.681120   -0.468375
     36          6           0       -6.434370   -3.534123   -0.085655
     37          6           0       -6.136894   -2.163542    0.053959
     38          6           0       -8.543395   -4.962657   -0.795226
     39          6           0       -5.267256   -4.330260    0.360548
     40          8           0       -5.107320   -5.527965    0.295270
     41          6           0       -4.139187   -3.219715    0.639007
     42          6           0       -3.388942   -3.497749    1.856112
     43          8           0       -3.552678   -3.010582    2.967608
     44          8           0       -2.553403   -4.512359    1.751711
     45          6           0       -1.980398   -5.026692    3.015566
     46          6           0        2.797715   -0.768316   -1.242563
     47          6           0        4.115403   -0.618108   -0.551124
     48          6           0        5.159103    0.143096   -0.983030
     49          6           0        5.073323    1.124587   -2.113845
     50          6           0        6.460252    0.140948   -0.107289
     51          6           0        7.626133   -0.238240   -0.953111
     52          6           0        8.880967   -0.106324   -0.089504
     53          6           0       10.145491   -0.752637   -0.799899
     54          6           0       10.144821   -2.214206   -1.194013
     55          6           0       11.407377   -0.305139    0.109577
     56          6           0       12.709032   -0.577186   -0.694449
     57          6           0       13.902942   -0.192072    0.199927
     58          6           0       15.367863   -0.272596   -0.427014
     59          6           0       15.773776   -1.650359   -0.899842
     60          6           0       16.335129    0.439157    0.498139
     61          6           0       17.713504    0.673876   -0.260147
     62          6           0       18.655593    1.502081    0.677587
     63          6           0       20.157681    1.524811    0.152310
     64          6           0       20.153934    2.308397   -1.220538
     65          6           0       21.152786    2.062836    1.127603
     66          1           0       -4.048434    3.640848    1.287026
     67          1           0      -10.439202    3.729450   -0.367677
     68          1           0      -10.128935   -2.540730   -1.020961
     69          1           0       -2.568515   -1.115754    1.861485
     70          1           0       -2.169403    1.656209    1.104098
     71          1           0       -1.644268    1.198952    3.335044
     72          1           0       -3.000977    2.524428    3.307460
     73          1           0       -3.315190    0.818539    3.975941
     74          1           0       -1.980819   -1.661029   -0.525863
     75          1           0       -2.453066   -0.064310   -0.918889
     76          1           0       -0.338567    0.435872    1.075543
     77          1           0       -0.276382   -1.036621    1.346994
     78          1           0       -4.996450    6.382754    0.656760
     79          1           0       -6.336853    6.612764    1.874147
     80          1           0       -4.894494    5.667082    2.063207
     81          1           0       -9.825951    5.871892    0.162701
     82          1           0       -8.933161    8.104859   -0.200913
     83          1           0       -7.187574    7.351353   -0.122127
     84          1           0      -11.837505    2.864090   -2.333214
     85          1           0      -13.261004    2.063947   -1.753808
     86          1           0      -12.198626    3.271339   -0.591386
     87          1           0      -12.306305   -1.831344   -1.295423
     88          1           0      -13.259628   -0.392908   -1.580200
     89          1           0      -12.980619   -1.627224   -3.664947
     90          1           0      -12.046298   -0.295201   -3.863324
     91          1           0      -11.266583   -1.636513   -3.758480
     92          1           0       -8.423140   -4.901337   -1.908474
     93          1           0       -7.861906   -5.819035   -0.321458
     94          1           0       -9.655418   -4.837843   -0.450928
     95          1           0       -3.233822   -3.312145   -0.161980
     96          1           0       -1.599105   -4.083437    3.448567
     97          1           0       -2.787975   -5.443150    3.718266
     98          1           0       -1.161546   -5.776088    2.634796
     99          1           0        2.670682   -1.929867   -1.509664
    100          1           0        2.820198   -0.155606   -2.054294
    101          1           0        4.233948   -1.271123    0.392711
    102          1           0        4.079560    1.174689   -2.683714
    103          1           0        5.522749    1.979059   -1.776417
    104          1           0        5.708404    0.843546   -2.920409
    105          1           0        6.481525    1.258908    0.147964
    106          1           0        6.371248   -0.476984    0.733647
    107          1           0        7.401473   -1.134125   -1.487245
    108          1           0        7.695469    0.379153   -1.905318
    109          1           0        9.181678    0.918451    0.255281
    110          1           0        8.735647   -0.696767    0.757923
    111          1           0       10.358948   -0.132141   -1.641820
    112          1           0        9.282745   -2.596938   -1.689369
    113          1           0       10.860619   -2.605135   -1.724465
    114          1           0        9.921869   -2.626286   -0.194381
    115          1           0       11.192410    0.698288    0.540923
    116          1           0       11.384420   -1.094143    0.963387
    117          1           0       12.644167   -1.728536   -1.037534
    118          1           0       12.563259   -0.015244   -1.536616
    119          1           0       13.743608    0.931488    0.646726
    120          1           0       13.999320   -1.031849    1.122136
    121          1           0       15.273297    0.464890   -1.338172
    122          1           0       16.168637   -2.201367    0.068881
    123          1           0       14.843251   -2.215661   -1.398582
    124          1           0       16.593882   -1.559425   -1.554311
    125          1           0       15.920258    1.488094    0.724019
    126          1           0       16.642736    0.054674    1.534579
    127          1           0       18.130680   -0.422442   -0.551576
    128          1           0       17.437528    1.096946   -1.268747
    129          1           0       18.403685    2.299250    0.968777
    130          1           0       18.733776    0.920223    1.605542
    131          1           0       20.354715    0.398854   -0.166043
    132          1           0       19.867974    3.308800   -1.220912
    133          1           0       21.081935    2.405792   -1.553932
    134          1           0       19.647807    1.719917   -2.022638
    135          1           0       21.103368    1.673896    2.152276
    136          1           0       22.189619    2.223033    0.822641
    137          1           0       21.140456    3.068231    1.317748
 ---------------------------------------------------------------------

 SCF Done:  E(RCAM-B3LYP) =  -2932.63348560     A.U. after   18 cycles

 Excitation energies and oscillator strengths:

 Excited State   1:      Singlet-A      2.0931 eV  592.35 nm  f=0.2028  <S**2>=0.000
     240 -> 242       -0.21733
     240 -> 243       -0.24844
     241 -> 242        0.60576
     241 -> 243       -0.12129
 This state for optimization and/or second-order correction.
 Total Energy, E(TD-HF/TD-KS) =  -2932.55656583
 Copying the excited state density for this state as the 1-particle RhoCI density.

 The electronic state is 1-A.
 Alpha  occ. eigenvalues --  -46.84379 -19.25388 -19.25109 -19.20788 -19.20322
 Alpha  occ. eigenvalues --  -19.18891 -14.41263 -14.39840 -14.38569 -14.38547
 Alpha  occ. eigenvalues --  -10.38116 -10.37745 -10.35103 -10.32289 -10.32274
 Alpha  occ. eigenvalues --  -10.30907 -10.30422 -10.30256 -10.29721 -10.28605
 Alpha  occ. eigenvalues --  -10.28562 -10.28387 -10.28242 -10.28096 -10.28063
 Alpha  occ. eigenvalues --  -10.27954 -10.27931 -10.27916 -10.27666 -10.27656
 Alpha  occ. eigenvalues --  -10.27633 -10.27397 -10.27378 -10.27256 -10.27159
 Alpha  occ. eigenvalues --  -10.27119 -10.27102 -10.27073 -10.26959 -10.26719
 Alpha  occ. eigenvalues --  -10.26579 -10.26534 -10.26517 -10.26512 -10.26306
 Alpha  occ. eigenvalues --  -10.26272 -10.26170 -10.26135 -10.26084 -10.26066
 Alpha  occ. eigenvalues --  -10.25890 -10.25775 -10.25721 -10.25680 -10.25665
 Alpha  occ. eigenvalues --  -10.25581 -10.25548 -10.25509 -10.25436 -10.24072
 Alpha  occ. eigenvalues --  -10.23525 -10.23509 -10.23260 -10.22692 -10.22552
 Alpha  occ. eigenvalues --   -3.13364  -1.88072  -1.87618  -1.87529  -1.18578
 Alpha  occ. eigenvalues --   -1.17899  -1.11000  -1.09790  -1.06701  -1.04834
 Alpha  occ. eigenvalues --   -1.04446  -1.02568  -1.02116  -0.92496  -0.91530
 Alpha  occ. eigenvalues --   -0.90263  -0.89735  -0.89549  -0.88971  -0.88280
 Alpha  occ. eigenvalues --   -0.87806  -0.87588  -0.86641  -0.86144  -0.85810
 Alpha  occ. eigenvalues --   -0.84939  -0.84129  -0.83735  -0.82911  -0.82588
 Alpha  occ. eigenvalues --   -0.81640  -0.80874  -0.80560  -0.79701  -0.78503
 Alpha  occ. eigenvalues --   -0.77813  -0.77368  -0.77083  -0.77068  -0.75500
 Alpha  occ. eigenvalues --   -0.75212  -0.74973  -0.74582  -0.72661  -0.72170
 Alpha  occ. eigenvalues --   -0.71373  -0.70537  -0.69564  -0.68662  -0.67827
 Alpha  occ. eigenvalues --   -0.66969  -0.66744  -0.64887  -0.64465  -0.64299
 Alpha  occ. eigenvalues --   -0.63995  -0.63760  -0.63446  -0.62936  -0.60900
 Alpha  occ. eigenvalues --   -0.60622  -0.60428  -0.60191  -0.59402  -0.58778
 Alpha  occ. eigenvalues --   -0.58559  -0.57797  -0.57125  -0.56526  -0.56128
 Alpha  occ. eigenvalues --   -0.55848  -0.55437  -0.55132  -0.54788  -0.54266
 Alpha  occ. eigenvalues --   -0.53813  -0.53771  -0.53516  -0.52961  -0.52732
 Alpha  occ. eigenvalues --   -0.52645  -0.52153  -0.51975  -0.51577  -0.51402
 Alpha  occ. eigenvalues --   -0.51139  -0.50918  -0.50623  -0.50361  -0.50325
 Alpha  occ. eigenvalues --   -0.50233  -0.49897  -0.49805  -0.49723  -0.49506
 Alpha  occ. eigenvalues --   -0.49242  -0.48972  -0.48795  -0.48484  -0.48368
 Alpha  occ. eigenvalues --   -0.48208  -0.48016  -0.47928  -0.47888  -0.47604
 Alpha  occ. eigenvalues --   -0.47261  -0.47062  -0.46490  -0.46392  -0.46317
 Alpha  occ. eigenvalues --   -0.45763  -0.45559  -0.45485  -0.45237  -0.45026
 Alpha  occ. eigenvalues --   -0.44936  -0.44672  -0.44322  -0.44257  -0.44072
 Alpha  occ. eigenvalues --   -0.43745  -0.43685  -0.43480  -0.43343  -0.43112
 Alpha  occ. eigenvalues --   -0.43066  -0.42682  -0.42592  -0.42550  -0.42350
 Alpha  occ. eigenvalues --   -0.42127  -0.42008  -0.41767  -0.41654  -0.41515
 Alpha  occ. eigenvalues --   -0.41318  -0.40975  -0.40730  -0.40659  -0.40271
 Alpha  occ. eigenvalues --   -0.40128  -0.39910  -0.39498  -0.39436  -0.39154
 Alpha  occ. eigenvalues --   -0.39012  -0.38972  -0.38938  -0.37945  -0.37782
 Alpha  occ. eigenvalues --   -0.37496  -0.37365  -0.36923  -0.36797  -0.36380
 Alpha  occ. eigenvalues --   -0.36288  -0.36124  -0.35711  -0.35694  -0.35255
 Alpha  occ. eigenvalues --   -0.35156  -0.34693  -0.34443  -0.33846  -0.33160
 Alpha  occ. eigenvalues --   -0.32350  -0.31911  -0.31161  -0.30249  -0.29634
 Alpha  occ. eigenvalues --   -0.29339  -0.28561  -0.28144  -0.26968  -0.22215
 Alpha  occ. eigenvalues --   -0.21200
 Alpha virt. eigenvalues --   -0.06151  -0.02933   0.01935   0.04343   0.05749
 Alpha virt. eigenvalues --    0.05916   0.06749   0.07038   0.07372   0.07984
 Alpha virt. eigenvalues --    0.08725   0.10594   0.11420   0.11499   0.11606

 Mulliken charges:
               1
     1  Mg   0.831104
     2  C    0.106517
     3  C   -0.242256
     4  C   -0.192121
     5  C   -0.071326
     6  N   -0.630272
     7  C    0.282476
     8  C   -0.174042
     9  C   -0.140240
    10  C    0.360319
    11  C   -0.287052
    12  C   -0.179761
    13  C   -0.288507
    14  C    0.624908
    15  O   -0.437145
    16  O   -0.499768
    17  N   -0.707551
    18  C    0.316729
    19  C    0.001781
    20  C    0.034804
    21  C    0.290427
    22  C   -0.353268
    23  C   -0.059496
    24  C   -0.261165
    25  N   -0.672896
    26  C    0.299820
    27  C    0.044818
    28  C   -0.000806
    29  C    0.254255
    30  C   -0.374495
    31  C   -0.255437
    32  C   -0.290017
    33  N   -0.701255
    34  C    0.223711
    35  C    0.002784
    36  C   -0.040487
    37  C    0.286024
    38  C   -0.358192
    39  C    0.388186
    40  O   -0.449204
    41  C   -0.333912
    42  C    0.605577
    43  O   -0.511565
    44  O   -0.454071
    45  C   -0.075647
    46  C    0.019738
    47  C   -0.147308
    48  C    0.098937
    49  C   -0.367488
    50  C   -0.207703
    51  C   -0.178177
    52  C   -0.181967
    53  C   -0.080537
    54  C   -0.310934
    55  C   -0.181781
    56  C   -0.172271
    57  C   -0.148888
    58  C   -0.048826
    59  C   -0.299762
    60  C   -0.170775
    61  C   -0.184549
    62  C   -0.136590
    63  C   -0.046991
    64  C   -0.322920
    65  C   -0.331094
    66  H    0.070123
    67  H    0.076808
    68  H    0.045517
    69  H    0.126171
    70  H    0.115602
    71  H    0.088238
    72  H    0.111817
    73  H    0.140375
    74  H    0.096410
    75  H    0.128391
    76  H    0.130712
    77  H    0.130735
    78  H    0.109531
    79  H    0.138648
    80  H    0.117670
    81  H    0.091704
    82  H    0.098282
    83  H    0.111008
    84  H    0.137511
    85  H    0.121982
    86  H    0.096150
    87  H    0.101651
    88  H    0.084340
    89  H    0.108738
    90  H    0.120600
    91  H    0.110496
    92  H    0.141353
    93  H    0.148402
    94  H    0.114540
    95  H    0.149302
    96  H    0.138696
    97  H    0.138616
    98  H    0.123002
    99  H    0.119951
   100  H    0.119586
   101  H    0.084242
   102  H    0.112890
   103  H    0.128788
   104  H    0.127648
   105  H    0.094687
   106  H    0.111547
   107  H    0.110262
   108  H    0.082332
   109  H    0.096540
   110  H    0.100810
   111  H    0.080037
   112  H    0.101887
   113  H    0.116981
   114  H    0.099029
   115  H    0.088560
   116  H    0.075096
   117  H    0.083796
   118  H    0.104721
   119  H    0.071928
   120  H    0.060399
   121  H    0.067377
   122  H    0.089733
   123  H    0.091756
   124  H    0.118471
   125  H    0.081253
   126  H    0.085824
   127  H    0.072272
   128  H    0.092888
   129  H    0.091044
   130  H    0.081775
   131  H    0.070601
   132  H    0.102178
   133  H    0.104803
   134  H    0.096987
   135  H    0.099775
   136  H    0.097542
   137  H    0.108478
 Sum of Mulliken charges =   0.00000

 Dipole moment (field-independent basis, Debye):
    X=              2.5148    Y=              5.1377    Z=             -0.6163  Tot=              5.7533
 Quadrupole moment (field-independent basis, Debye-Ang):
   XX=           -340.3781   YY=           -391.1433   ZZ=           -394.6826
   XY=            -12.0972   XZ=             10.1859   YZ=              0.1815

 Normal termination of Gaussian 09 at Sat Jun 29 15:54:02 2019.
