 Gaussian 09, Revision D.01,
 Gaussian 09:  ES64L-G09RevD.01 24-Apr-2013

 -------------------------------------
 # td=(NStates=1) CAM-B3LYP/6-31G(d,p)
 -------------------------------------

 --
 TD
 --
 Symbolic Z-matrix:
 Charge =  0 Multiplicity = 1

                         Standard orientation:
 ---------------------------------------------------------------------
 Center     Atomic      Atomic             Coordinates (Angstroms)
 Number     Number       Type             X           Y           Z
 ---------------------------------------------------------------------
      1         12           0       -7.190015    0.547939    0.166924
      2          6           0       -4.819827   -2.022145    0.496053
      3          6           0       -4.810012    2.821465    1.197213
      4          6           0       -9.474330    3.016736   -0.263620
      5          6           0       -9.551979   -1.847439   -0.729959
      6          7           0       -5.090206    0.444901    0.701454
      7          6           0       -4.297560   -0.735387    0.745091
      8          6           0       -2.910577   -0.298193    1.195154
      9          6           0       -3.046738    1.110163    1.729456
     10          6           0       -4.396260    1.540344    1.167911
     11          6           0       -3.093616    1.307593    3.246145
     12          6           0       -1.900975   -0.438099    0.040212
     13          6           0       -0.427866   -0.141637    0.511228
     14          6           0        0.594831   -0.475441   -0.656390
     15          8           0        0.252384   -0.784771   -1.802963
     16          8           0        1.758716   -0.300180   -0.226304
     17          7           0       -7.173507    2.531184    0.389735
     18          6           0       -6.105911    3.271251    0.802922
     19          6           0       -6.471464    4.685991    0.952285
     20          6           0       -7.792003    4.800537    0.427641
     21          6           0       -8.234110    3.466992    0.192107
     22          6           0       -5.695088    5.883798    1.362592
     23          6           0       -8.746931    5.917222    0.302860
     24          6           0       -8.311077    7.180802    0.062149
     25          7           0       -9.214209    0.547519   -0.497832
     26          6           0       -9.914342    1.684876   -0.624965
     27          6           0      -11.168635    1.389099   -1.053122
     28          6           0      -11.231643   -0.028508   -1.167724
     29          6           0       -9.923370   -0.463900   -0.870837
     30          6           0      -12.250662    2.433502   -1.424067
     31          6           0      -12.395969   -0.760559   -1.690793
     32          6           0      -12.301414   -1.115707   -3.236651
     33          7           0       -7.231879   -1.488109   -0.090539
     34          6           0       -8.320823   -2.303040   -0.487910
     35          6           0       -7.771206   -3.676757   -0.511338
     36          6           0       -6.490082   -3.549873   -0.171999
     37          6           0       -6.192465   -2.261611    0.101032
     38          6           0       -8.693725   -4.785816   -0.828943
     39          6           0       -5.305378   -4.410051    0.079660
     40          8           0       -5.073622   -5.579184   -0.031502
     41          6           0       -4.234201   -3.379898    0.603879
     42          6           0       -3.498353   -3.758303    1.891575
     43          8           0       -3.759565   -3.165064    2.853732
     44          8           0       -2.632168   -4.812782    1.676038
     45          6           0       -2.075377   -5.290956    2.865900
     46          6           0        2.817831   -0.396443   -1.257969
     47          6           0        4.097181   -0.176526   -0.516881
     48          6           0        5.132890    0.506968   -0.981902
     49          6           0        5.171423    1.434693   -2.150118
     50          6           0        6.426716    0.468683   -0.218118
     51          6           0        7.657515   -0.089342   -1.010800
     52          6           0        8.889494   -0.093778   -0.190174
     53          6           0       10.297656   -0.460761   -0.997087
     54          6           0       10.170497   -1.918588   -1.438815
     55          6           0       11.435350   -0.246336   -0.045556
     56          6           0       12.755463   -0.400581   -0.684542
     57          6           0       13.961875   -0.137052    0.217256
     58          6           0       15.330776   -0.350920   -0.479740
     59          6           0       15.769734   -1.785818   -0.670547
     60          6           0       16.408600    0.301889    0.471282
     61          6           0       17.835946    0.417101   -0.074773
     62          6           0       18.859401    1.262183    0.800868
     63          6           0       20.262434    1.275427    0.235061
     64          6           0       20.254739    2.043551   -1.124663
     65          6           0       21.257605    1.741268    1.248183
     66          1           0       -4.091379    3.483716    1.747412
     67          1           0      -10.075718    3.777258   -0.376603
     68          1           0      -10.287294   -2.678013   -1.098566
     69          1           0       -2.677063   -0.987897    2.226268
     70          1           0       -2.310053    1.723102    1.453349
     71          1           0       -2.010192    1.080065    3.728483
     72          1           0       -3.279094    2.233105    3.322162
     73          1           0       -3.832903    0.720149    4.003783
     74          1           0       -1.950523   -1.510378   -0.392274
     75          1           0       -2.192222    0.241090   -0.708210
     76          1           0       -0.182603    0.828274    1.017603
     77          1           0       -0.068209   -0.849923    1.160663
     78          1           0       -4.781045    5.951611    0.525435
     79          1           0       -6.174291    6.882921    1.598536
     80          1           0       -5.020637    5.534858    2.108782
     81          1           0       -9.956996    5.677607    0.565903
     82          1           0       -9.071572    7.987679   -0.074588
     83          1           0       -7.262139    7.341037   -0.162455
     84          1           0      -12.003353    3.122207   -2.283566
     85          1           0      -13.264236    2.096340   -1.747942
     86          1           0      -12.497631    3.102267   -0.604294
     87          1           0      -12.634102   -1.595381   -1.251969
     88          1           0      -13.280575   -0.118269   -1.435332
     89          1           0      -13.162843   -1.601314   -3.705150
     90          1           0      -12.339358   -0.239255   -3.966763
     91          1           0      -11.532783   -1.811389   -3.590072
     92          1           0       -9.189111   -4.953630   -1.818517
     93          1           0       -8.066193   -5.718993   -0.592025
     94          1           0       -9.716233   -4.977084   -0.006717
     95          1           0       -3.374502   -3.247761   -0.154613
     96          1           0       -1.534662   -4.670091    3.469688
     97          1           0       -2.947378   -5.412889    3.513842
     98          1           0       -1.465071   -6.160410    2.652200
     99          1           0        2.825054   -1.265529   -1.898341
    100          1           0        2.722341    0.563449   -1.902691
    101          1           0        4.360656   -0.807402    0.393392
    102          1           0        4.291003    1.504721   -2.556690
    103          1           0        5.530731    2.538026   -2.241538
    104          1           0        5.838932    0.966320   -2.950307
    105          1           0        6.577776    1.408269    0.198495
    106          1           0        6.246542   -0.058494    0.562936
    107          1           0        7.469363   -0.984934   -1.647318
    108          1           0        7.704091    0.839433   -1.654042
    109          1           0        9.058761    0.997852    0.399665
    110          1           0        8.842627   -0.969830    0.632976
    111          1           0       10.504086    0.303795   -1.877301
    112          1           0        9.261374   -2.131937   -2.225913
    113          1           0       11.131869   -2.306215   -1.903673
    114          1           0        9.966138   -2.594783   -0.562185
    115          1           0       11.321307    0.822464    0.511517
    116          1           0       11.221750   -1.139432    0.593999
    117          1           0       12.664769   -1.270695   -1.291865
    118          1           0       13.031872    0.429433   -1.431269
    119          1           0       13.864355    0.904257    0.518764
    120          1           0       13.951814   -0.761591    1.051293
    121          1           0       15.338773    0.100020   -1.587476
    122          1           0       16.037271   -2.407645    0.350366
    123          1           0       14.991003   -2.256595   -1.243835
    124          1           0       16.795524   -1.809867   -1.183184
    125          1           0       16.066404    1.385679    0.660306
    126          1           0       16.710025   -0.026252    1.442453
    127          1           0       18.329322   -0.604350   -0.210813
    128          1           0       17.859188    0.835705   -1.013283
    129          1           0       18.514256    2.287519    0.757366
    130          1           0       18.852004    0.983870    1.962866
    131          1           0       20.563096    0.264497    0.159192
    132          1           0       19.996749    3.082084   -0.943864
    133          1           0       21.463203    2.033575   -1.477418
    134          1           0       19.689516    1.445097   -1.985254
    135          1           0       21.126361    1.254388    2.217938
    136          1           0       22.216253    1.717850    1.042452
    137          1           0       20.974708    2.812753    1.618751
 ---------------------------------------------------------------------

 SCF Done:  E(RCAM-B3LYP) =  -2932.65156269     A.U. after   15 cycles

 Excitation energies and oscillator strengths:

 Excited State   1:      Singlet-A      2.2078 eV  561.58 nm  f=0.1486  <S**2>=0.000
     240 -> 242       -0.19442
     240 -> 243       -0.27616
     241 -> 242        0.58973
     241 -> 243       -0.15698
 This state for optimization and/or second-order correction.
 Total Energy, E(TD-HF/TD-KS) =  -2932.57042834
 Copying the excited state density for this state as the 1-particle RhoCI density.

 The electronic state is 1-A.
 Alpha  occ. eigenvalues --  -46.84003 -19.28120 -19.26556 -19.22189 -19.21336
 Alpha  occ. eigenvalues --  -19.19495 -14.40603 -14.39528 -14.38997 -14.37603
 Alpha  occ. eigenvalues --  -10.39429 -10.38569 -10.35734 -10.33579 -10.31237
 Alpha  occ. eigenvalues --  -10.30735 -10.29929 -10.29847 -10.29144 -10.28769
 Alpha  occ. eigenvalues --  -10.28739 -10.28707 -10.28498 -10.28364 -10.28347
 Alpha  occ. eigenvalues --  -10.28214 -10.28010 -10.27778 -10.27584 -10.27497
 Alpha  occ. eigenvalues --  -10.27474 -10.27442 -10.27408 -10.27177 -10.27159
 Alpha  occ. eigenvalues --  -10.27155 -10.27047 -10.27009 -10.27002 -10.26957
 Alpha  occ. eigenvalues --  -10.26693 -10.26631 -10.26540 -10.26457 -10.26398
 Alpha  occ. eigenvalues --  -10.26183 -10.25996 -10.25938 -10.25869 -10.25677
 Alpha  occ. eigenvalues --  -10.25650 -10.25463 -10.25285 -10.25272 -10.25186
 Alpha  occ. eigenvalues --  -10.24999 -10.24869 -10.24854 -10.24798 -10.24583
 Alpha  occ. eigenvalues --  -10.24541 -10.24507 -10.24179 -10.23805 -10.23564
 Alpha  occ. eigenvalues --   -3.12915  -1.87642  -1.87131  -1.87098  -1.21401
 Alpha  occ. eigenvalues --   -1.19509  -1.12725  -1.12466  -1.07801  -1.05248
 Alpha  occ. eigenvalues --   -1.04421  -1.02427  -1.01299  -0.92606  -0.92496
 Alpha  occ. eigenvalues --   -0.91032  -0.89787  -0.89248  -0.88958  -0.88423
 Alpha  occ. eigenvalues --   -0.88273  -0.87804  -0.87489  -0.86905  -0.86767
 Alpha  occ. eigenvalues --   -0.85376  -0.84231  -0.83542  -0.83131  -0.82186
 Alpha  occ. eigenvalues --   -0.81509  -0.81287  -0.80362  -0.79835  -0.78516
 Alpha  occ. eigenvalues --   -0.77778  -0.77474  -0.76371  -0.75851  -0.75725
 Alpha  occ. eigenvalues --   -0.75121  -0.74851  -0.73669  -0.73454  -0.72507
 Alpha  occ. eigenvalues --   -0.71720  -0.70652  -0.70424  -0.69504  -0.67963
 Alpha  occ. eigenvalues --   -0.66529  -0.66365  -0.65584  -0.64872  -0.64503
 Alpha  occ. eigenvalues --   -0.64186  -0.64018  -0.63127  -0.62650  -0.62380
 Alpha  occ. eigenvalues --   -0.61526  -0.60800  -0.60485  -0.59729  -0.59322
 Alpha  occ. eigenvalues --   -0.58456  -0.58360  -0.58166  -0.57905  -0.56873
 Alpha  occ. eigenvalues --   -0.56496  -0.55869  -0.55379  -0.55357  -0.54988
 Alpha  occ. eigenvalues --   -0.54786  -0.54134  -0.54039  -0.53860  -0.53407
 Alpha  occ. eigenvalues --   -0.53020  -0.52363  -0.52050  -0.51708  -0.51691
 Alpha  occ. eigenvalues --   -0.51285  -0.50979  -0.50764  -0.50674  -0.50386
 Alpha  occ. eigenvalues --   -0.50191  -0.49957  -0.49689  -0.49490  -0.49401
 Alpha  occ. eigenvalues --   -0.49117  -0.49060  -0.48909  -0.48591  -0.48482
 Alpha  occ. eigenvalues --   -0.48246  -0.47683  -0.47464  -0.47351  -0.47088
 Alpha  occ. eigenvalues --   -0.46787  -0.46653  -0.46192  -0.45893  -0.45766
 Alpha  occ. eigenvalues --   -0.45526  -0.45372  -0.45325  -0.45070  -0.44909
 Alpha  occ. eigenvalues --   -0.44887  -0.44628  -0.44454  -0.44415  -0.44311
 Alpha  occ. eigenvalues --   -0.44042  -0.43824  -0.43592  -0.43484  -0.43318
 Alpha  occ. eigenvalues --   -0.43042  -0.42964  -0.42883  -0.42611  -0.42310
 Alpha  occ. eigenvalues --   -0.42018  -0.41812  -0.41738  -0.41522  -0.41289
 Alpha  occ. eigenvalues --   -0.40724  -0.40682  -0.40432  -0.40289  -0.40204
 Alpha  occ. eigenvalues --   -0.40179  -0.39866  -0.39669  -0.39371  -0.39183
 Alpha  occ. eigenvalues --   -0.38912  -0.38881  -0.38523  -0.38171  -0.37523
 Alpha  occ. eigenvalues --   -0.37426  -0.37257  -0.37169  -0.37023  -0.36550
 Alpha  occ. eigenvalues --   -0.36467  -0.36440  -0.36094  -0.35861  -0.35810
 Alpha  occ. eigenvalues --   -0.35206  -0.34855  -0.34714  -0.34374  -0.33361
 Alpha  occ. eigenvalues --   -0.32679  -0.32282  -0.32208  -0.30882  -0.30402
 Alpha  occ. eigenvalues --   -0.30233  -0.29855  -0.27092  -0.26556  -0.22724
 Alpha  occ. eigenvalues --   -0.21657
 Alpha virt. eigenvalues --   -0.05857  -0.03487   0.02114   0.04418   0.05705
 Alpha virt. eigenvalues --    0.06030   0.06906   0.07282   0.07459   0.08050
 Alpha virt. eigenvalues --    0.08455   0.10534   0.11286   0.11486   0.11611

 Mulliken charges:
               1
     1  Mg   0.815323
     2  C    0.082970
     3  C   -0.206552
     4  C   -0.118125
     5  C   -0.167060
     6  N   -0.663480
     7  C    0.299423
     8  C   -0.176932
     9  C   -0.118459
    10  C    0.355618
    11  C   -0.289387
    12  C   -0.162622
    13  C   -0.274893
    14  C    0.585535
    15  O   -0.511889
    16  O   -0.419634
    17  N   -0.723460
    18  C    0.341309
    19  C    0.010895
    20  C    0.032190
    21  C    0.259111
    22  C   -0.379993
    23  C   -0.078148
    24  C   -0.257007
    25  N   -0.681162
    26  C    0.301796
    27  C    0.028856
    28  C   -0.020402
    29  C    0.287709
    30  C   -0.385840
    31  C   -0.220723
    32  C   -0.327815
    33  N   -0.750392
    34  C    0.275016
    35  C    0.056881
    36  C    0.007139
    37  C    0.337394
    38  C   -0.397403
    39  C    0.391988
    40  O   -0.430290
    41  C   -0.358746
    42  C    0.622495
    43  O   -0.418519
    44  O   -0.453873
    45  C   -0.090339
    46  C   -0.007593
    47  C   -0.151956
    48  C    0.123365
    49  C   -0.368907
    50  C   -0.216317
    51  C   -0.175627
    52  C   -0.150826
    53  C   -0.063385
    54  C   -0.311942
    55  C   -0.139345
    56  C   -0.177295
    57  C   -0.163595
    58  C   -0.059290
    59  C   -0.292321
    60  C   -0.171230
    61  C   -0.192898
    62  C   -0.176803
    63  C   -0.042606
    64  C   -0.295741
    65  C   -0.309154
    66  H    0.079594
    67  H    0.055406
    68  H    0.101859
    69  H    0.101786
    70  H    0.107122
    71  H    0.077072
    72  H    0.116864
    73  H    0.110157
    74  H    0.114204
    75  H    0.131694
    76  H    0.126126
    77  H    0.138986
    78  H    0.095180
    79  H    0.135545
    80  H    0.120945
    81  H    0.096668
    82  H    0.104312
    83  H    0.118520
    84  H    0.114610
    85  H    0.108933
    86  H    0.113181
    87  H    0.108707
    88  H    0.097703
    89  H    0.094654
    90  H    0.098916
    91  H    0.107335
    92  H    0.141789
    93  H    0.136292
    94  H    0.087389
    95  H    0.151364
    96  H    0.126372
    97  H    0.118702
    98  H    0.126000
    99  H    0.163048
   100  H    0.126679
   101  H    0.092293
   102  H    0.110953
   103  H    0.114824
   104  H    0.117194
   105  H    0.110803
   106  H    0.092048
   107  H    0.102350
   108  H    0.100408
   109  H    0.064837
   110  H    0.068684
   111  H    0.071590
   112  H    0.087662
   113  H    0.104149
   114  H    0.105364
   115  H    0.070436
   116  H    0.084342
   117  H    0.090259
   118  H    0.075648
   119  H    0.097740
   120  H    0.100259
   121  H    0.072118
   122  H    0.076992
   123  H    0.100364
   124  H    0.103209
   125  H    0.069289
   126  H    0.105906
   127  H    0.076904
   128  H    0.098421
   129  H    0.090379
   130  H    0.063705
   131  H    0.095028
   132  H    0.116412
   133  H    0.063446
   134  H    0.104257
   135  H    0.101032
   136  H    0.110933
   137  H    0.071013
 Sum of Mulliken charges =   0.00000

 Dipole moment (field-independent basis, Debye):
    X=              3.6392    Y=              3.4009    Z=              1.1089  Tot=              5.1029
 Quadrupole moment (field-independent basis, Debye-Ang):
   XX=           -361.1136   YY=           -387.8019   ZZ=           -398.0008
   XY=            -16.3839   XZ=              1.9620   YZ=             -2.6501

 Normal termination of Gaussian 09 at Wed Jun 26 23:10:58 2019.
