 Gaussian 09, Revision D.01,
 Gaussian 09:  ES64L-G09RevD.01 24-Apr-2013

 -------------------------------------
 # td=(NStates=1) CAM-B3LYP/6-31G(d,p)
 -------------------------------------

 --
 TD
 --
 Symbolic Z-matrix:
 Charge =  0 Multiplicity = 1

                         Standard orientation:
 ---------------------------------------------------------------------
 Center     Atomic      Atomic             Coordinates (Angstroms)
 Number     Number       Type             X           Y           Z
 ---------------------------------------------------------------------
      1         12           0       -7.179563    0.590369    0.050557
      2          6           0       -4.818312   -1.909779    0.452794
      3          6           0       -4.784906    2.857387    1.098274
      4          6           0       -9.444243    2.987472   -0.306119
      5          6           0       -9.480790   -1.815257   -0.943732
      6          7           0       -5.112751    0.432684    0.662621
      7          6           0       -4.304677   -0.735853    0.725634
      8          6           0       -2.910158   -0.332848    1.173549
      9          6           0       -2.943243    1.111143    1.558874
     10          6           0       -4.388957    1.527007    1.118484
     11          6           0       -3.024721    1.141534    3.268597
     12          6           0       -1.895935   -0.587649   -0.008886
     13          6           0       -0.404863   -0.354028    0.501212
     14          6           0        0.522405   -0.660995   -0.578676
     15          8           0        0.201377   -1.178623   -1.675216
     16          8           0        1.816509   -0.454676   -0.136779
     17          7           0       -7.104992    2.587191    0.215261
     18          6           0       -6.049197    3.297111    0.773274
     19          6           0       -6.566240    4.764895    0.818530
     20          6           0       -7.830709    4.787139    0.359516
     21          6           0       -8.226005    3.412935    0.053862
     22          6           0       -5.706948    5.855306    1.486281
     23          6           0       -8.675835    5.910921    0.225293
     24          6           0       -8.386858    7.246625    0.085726
     25          7           0       -9.136414    0.546598   -0.516991
     26          6           0       -9.901455    1.679411   -0.616798
     27          6           0      -11.274222    1.406791   -1.025776
     28          6           0      -11.311725    0.023185   -1.268891
     29          6           0       -9.970746   -0.444951   -0.939498
     30          6           0      -12.302403    2.432614   -1.118474
     31          6           0      -12.427433   -0.925255   -1.774143
     32          6           0      -12.417467   -1.163600   -3.262184
     33          7           0       -7.149320   -1.386578   -0.163506
     34          6           0       -8.232248   -2.288131   -0.499624
     35          6           0       -7.682807   -3.655548   -0.455686
     36          6           0       -6.340019   -3.510070   -0.076221
     37          6           0       -6.067185   -2.232845    0.053365
     38          6           0       -8.507643   -4.827091   -0.692833
     39          6           0       -5.174445   -4.397872    0.134287
     40          8           0       -5.051338   -5.581343    0.072903
     41          6           0       -4.072525   -3.345492    0.501728
     42          6           0       -3.492053   -3.708994    1.816126
     43          8           0       -3.732373   -3.059223    2.857213
     44          8           0       -2.726733   -4.752722    1.712411
     45          6           0       -2.026802   -5.099554    2.893485
     46          6           0        2.857748   -0.637154   -1.176937
     47          6           0        4.186584   -0.350334   -0.481206
     48          6           0        5.080464    0.611550   -0.759497
     49          6           0        4.972653    1.589540   -1.970979
     50          6           0        6.460372    0.656984   -0.035211
     51          6           0        7.557747    0.085944   -0.888407
     52          6           0        8.872920    0.064690    0.003699
     53          6           0       10.127270   -0.453636   -0.823763
     54          6           0       10.087241   -1.975995   -1.108485
     55          6           0       11.433086   -0.174251   -0.014075
     56          6           0       12.737217   -0.446679   -0.810123
     57          6           0       13.916780   -0.030524    0.022707
     58          6           0       15.435545   -0.345625   -0.491369
     59          6           0       15.686263   -1.796109   -0.814617
     60          6           0       16.345340    0.374880    0.479197
     61          6           0       17.814259    0.437411   -0.145451
     62          6           0       18.838977    1.173858    0.685256
     63          6           0       20.260032    1.243241    0.097901
     64          6           0       20.369577    1.995219   -1.233158
     65          6           0       21.175413    1.832616    1.240112
     66          1           0       -4.216704    3.695779    1.427011
     67          1           0      -10.197243    3.674297   -0.293766
     68          1           0      -10.104592   -2.656213   -1.381003
     69          1           0       -2.715364   -0.821517    2.012506
     70          1           0       -2.227321    1.730323    1.350854
     71          1           0       -2.007799    0.989942    3.742482
     72          1           0       -3.410400    2.312155    3.546818
     73          1           0       -3.754974    0.694260    3.691171
     74          1           0       -1.702683   -1.546629   -0.436711
     75          1           0       -2.335418    0.187817   -0.530902
     76          1           0       -0.284028    0.650690    0.716212
     77          1           0       -0.237476   -0.955024    1.357950
     78          1           0       -5.221310    6.492464    0.780465
     79          1           0       -6.212846    6.840779    1.932082
     80          1           0       -4.921303    5.522009    2.266449
     81          1           0       -9.709100    5.747601    0.255187
     82          1           0       -9.201017    7.893728   -0.087373
     83          1           0       -7.381452    7.519955    0.371505
     84          1           0      -12.130528    3.360408   -1.771506
     85          1           0      -13.136757    1.680623   -1.544561
     86          1           0      -12.460419    2.994994   -0.407627
     87          1           0      -12.277880   -2.033655   -1.278721
     88          1           0      -13.428486   -0.489940   -1.585841
     89          1           0      -13.070415   -1.930117   -3.666642
     90          1           0      -12.388260   -0.122363   -3.806199
     91          1           0      -11.352302   -1.504197   -3.642740
     92          1           0       -9.064694   -4.689776   -1.730829
     93          1           0       -7.995242   -5.870502   -0.383666
     94          1           0       -9.365367   -4.881501   -0.087667
     95          1           0       -3.366973   -3.355385   -0.312826
     96          1           0       -1.466506   -4.335786    3.241596
     97          1           0       -2.792379   -5.281482    3.598248
     98          1           0       -1.564945   -5.946870    2.580182
     99          1           0        2.812666   -1.568551   -1.595963
    100          1           0        2.532646   -0.187515   -2.146489
    101          1           0        4.197449   -1.060320    0.340560
    102          1           0        4.122588    1.646231   -2.427204
    103          1           0        5.260733    2.589753   -1.788374
    104          1           0        5.724292    1.246165   -2.723782
    105          1           0        6.839283    1.709025   -0.003390
    106          1           0        6.317538   -0.109758    0.849270
    107          1           0        7.125790   -0.862392   -1.127245
    108          1           0        7.716088    0.874553   -1.757599
    109          1           0        9.231438    1.225612    0.254101
    110          1           0        8.711041   -0.682254    0.818094
    111          1           0        9.925535    0.343299   -1.746607
    112          1           0        9.279079   -2.170462   -1.629685
    113          1           0       11.025854   -2.157091   -1.648855
    114          1           0        9.987871   -2.458109   -0.179873
    115          1           0       11.393971    0.811626    0.382036
    116          1           0       11.441035   -0.683611    1.028895
    117          1           0       12.848695   -1.411643   -1.282941
    118          1           0       12.582544    0.241335   -1.705989
    119          1           0       13.712174    0.897332    0.250634
    120          1           0       14.043594   -0.766890    0.876717
    121          1           0       15.454274    0.207944   -1.513945
    122          1           0       15.725511   -2.296766    0.108448
    123          1           0       15.036198   -2.217662   -1.440703
    124          1           0       16.692295   -1.972304   -1.129579
    125          1           0       16.071303    1.331719    0.683458
    126          1           0       16.330105   -0.132296    1.452049
    127          1           0       18.158872   -0.488858   -0.336887
    128          1           0       17.695631    0.827479   -1.122558
    129          1           0       18.618248    2.205332    0.825424
    130          1           0       18.832070    0.861975    1.744016
    131          1           0       20.551591    0.179678    0.006363
    132          1           0       20.144783    3.138311   -1.226138
    133          1           0       21.338127    1.784535   -1.965192
    134          1           0       19.499453    1.608195   -1.899031
    135          1           0       21.040834    1.122787    2.125233
    136          1           0       22.249900    1.989792    0.964142
    137          1           0       20.885918    2.878198    1.292187
 ---------------------------------------------------------------------

 SCF Done:  E(RCAM-B3LYP) =  -2932.61880613     A.U. after   17 cycles

 Excitation energies and oscillator strengths:

 Excited State   1:      Singlet-A      2.1293 eV  582.27 nm  f=0.2273  <S**2>=0.000
     240 -> 243        0.26143
     241 -> 242        0.65036
 This state for optimization and/or second-order correction.
 Total Energy, E(TD-HF/TD-KS) =  -2932.54055437
 Copying the excited state density for this state as the 1-particle RhoCI density.

 The electronic state is 1-A.
 Alpha  occ. eigenvalues --  -46.82903 -19.27013 -19.26508 -19.21418 -19.20983
 Alpha  occ. eigenvalues --  -19.19926 -14.41257 -14.39444 -14.39272 -14.38354
 Alpha  occ. eigenvalues --  -10.39533 -10.38821 -10.35115 -10.31817 -10.31343
 Alpha  occ. eigenvalues --  -10.30994 -10.29533 -10.29486 -10.29240 -10.28944
 Alpha  occ. eigenvalues --  -10.28900 -10.28787 -10.28459 -10.28457 -10.28267
 Alpha  occ. eigenvalues --  -10.28225 -10.28204 -10.28007 -10.27645 -10.27591
 Alpha  occ. eigenvalues --  -10.27461 -10.27216 -10.27213 -10.27071 -10.27065
 Alpha  occ. eigenvalues --  -10.26996 -10.26863 -10.26793 -10.26729 -10.26568
 Alpha  occ. eigenvalues --  -10.26554 -10.26505 -10.26479 -10.26389 -10.26281
 Alpha  occ. eigenvalues --  -10.26259 -10.26238 -10.25917 -10.25808 -10.25779
 Alpha  occ. eigenvalues --  -10.25568 -10.25512 -10.25499 -10.25354 -10.25332
 Alpha  occ. eigenvalues --  -10.25082 -10.24913 -10.24870 -10.24366 -10.24181
 Alpha  occ. eigenvalues --  -10.24079 -10.23953 -10.23537 -10.23075 -10.22984
 Alpha  occ. eigenvalues --   -3.12100  -1.86796  -1.86355  -1.86279  -1.20131
 Alpha  occ. eigenvalues --   -1.16154  -1.12705  -1.07810  -1.07716  -1.03210
 Alpha  occ. eigenvalues --   -1.02435  -1.01968  -1.00887  -0.92264  -0.91005
 Alpha  occ. eigenvalues --   -0.90422  -0.90253  -0.89629  -0.89006  -0.88553
 Alpha  occ. eigenvalues --   -0.88303  -0.87860  -0.87241  -0.86482  -0.86262
 Alpha  occ. eigenvalues --   -0.85297  -0.84852  -0.84175  -0.83103  -0.82673
 Alpha  occ. eigenvalues --   -0.82042  -0.81509  -0.81185  -0.80755  -0.78532
 Alpha  occ. eigenvalues --   -0.78274  -0.77674  -0.77163  -0.76639  -0.76455
 Alpha  occ. eigenvalues --   -0.75085  -0.74768  -0.74669  -0.73218  -0.72526
 Alpha  occ. eigenvalues --   -0.71933  -0.70895  -0.69261  -0.68726  -0.68159
 Alpha  occ. eigenvalues --   -0.67376  -0.66709  -0.66455  -0.65354  -0.64791
 Alpha  occ. eigenvalues --   -0.64735  -0.64042  -0.63466  -0.62421  -0.62342
 Alpha  occ. eigenvalues --   -0.61315  -0.61026  -0.60864  -0.59982  -0.59912
 Alpha  occ. eigenvalues --   -0.58896  -0.58658  -0.58334  -0.58007  -0.57780
 Alpha  occ. eigenvalues --   -0.56996  -0.56543  -0.56345  -0.55860  -0.55561
 Alpha  occ. eigenvalues --   -0.55253  -0.54265  -0.54192  -0.54004  -0.53726
 Alpha  occ. eigenvalues --   -0.53042  -0.52866  -0.52340  -0.51924  -0.51637
 Alpha  occ. eigenvalues --   -0.51429  -0.51018  -0.50846  -0.50490  -0.50244
 Alpha  occ. eigenvalues --   -0.50156  -0.49863  -0.49790  -0.49670  -0.49366
 Alpha  occ. eigenvalues --   -0.49197  -0.48934  -0.48615  -0.48545  -0.48471
 Alpha  occ. eigenvalues --   -0.48290  -0.48167  -0.48048  -0.47768  -0.47625
 Alpha  occ. eigenvalues --   -0.47168  -0.46926  -0.46656  -0.46349  -0.45981
 Alpha  occ. eigenvalues --   -0.45883  -0.45734  -0.45279  -0.44982  -0.44841
 Alpha  occ. eigenvalues --   -0.44665  -0.44504  -0.44402  -0.44211  -0.44020
 Alpha  occ. eigenvalues --   -0.43799  -0.43740  -0.43529  -0.43523  -0.43394
 Alpha  occ. eigenvalues --   -0.43142  -0.43076  -0.42951  -0.42605  -0.42458
 Alpha  occ. eigenvalues --   -0.42234  -0.41965  -0.41827  -0.41637  -0.41466
 Alpha  occ. eigenvalues --   -0.41302  -0.41108  -0.40818  -0.40557  -0.40286
 Alpha  occ. eigenvalues --   -0.40232  -0.40204  -0.40023  -0.39917  -0.39080
 Alpha  occ. eigenvalues --   -0.39035  -0.38484  -0.38394  -0.38218  -0.37889
 Alpha  occ. eigenvalues --   -0.37539  -0.37289  -0.36865  -0.36491  -0.36333
 Alpha  occ. eigenvalues --   -0.36127  -0.36004  -0.35913  -0.35821  -0.35623
 Alpha  occ. eigenvalues --   -0.35422  -0.35311  -0.34638  -0.34053  -0.33286
 Alpha  occ. eigenvalues --   -0.33175  -0.32430  -0.31727  -0.30674  -0.30209
 Alpha  occ. eigenvalues --   -0.30002  -0.28600  -0.27937  -0.27373  -0.23409
 Alpha  occ. eigenvalues --   -0.21076
 Alpha virt. eigenvalues --   -0.05802  -0.03244   0.01870   0.03849   0.05121
 Alpha virt. eigenvalues --    0.06061   0.06491   0.06943   0.07188   0.07389
 Alpha virt. eigenvalues --    0.08509   0.10545   0.10649   0.11087   0.11864

 Mulliken charges:
               1
     1  Mg   0.806593
     2  C    0.069510
     3  C   -0.181052
     4  C   -0.164447
     5  C   -0.179816
     6  N   -0.635743
     7  C    0.253716
     8  C   -0.138843
     9  C   -0.136981
    10  C    0.341494
    11  C   -0.318974
    12  C   -0.157021
    13  C   -0.282492
    14  C    0.618476
    15  O   -0.493833
    16  O   -0.493038
    17  N   -0.745895
    18  C    0.314087
    19  C   -0.002398
    20  C    0.071265
    21  C    0.329891
    22  C   -0.400228
    23  C   -0.096278
    24  C   -0.228410
    25  N   -0.677186
    26  C    0.294428
    27  C    0.012678
    28  C    0.030732
    29  C    0.267843
    30  C   -0.337045
    31  C   -0.226731
    32  C   -0.300778
    33  N   -0.735247
    34  C    0.254460
    35  C    0.040337
    36  C    0.017635
    37  C    0.321267
    38  C   -0.404975
    39  C    0.373984
    40  O   -0.436404
    41  C   -0.335800
    42  C    0.630581
    43  O   -0.515506
    44  O   -0.422373
    45  C   -0.079285
    46  C   -0.001041
    47  C   -0.148335
    48  C    0.115469
    49  C   -0.363638
    50  C   -0.214621
    51  C   -0.172307
    52  C   -0.167703
    53  C   -0.064859
    54  C   -0.296951
    55  C   -0.167520
    56  C   -0.191319
    57  C   -0.153826
    58  C   -0.086737
    59  C   -0.312513
    60  C   -0.170828
    61  C   -0.185856
    62  C   -0.174629
    63  C   -0.058452
    64  C   -0.306298
    65  C   -0.305761
    66  H    0.079562
    67  H    0.060816
    68  H    0.090604
    69  H    0.130153
    70  H    0.097543
    71  H    0.109437
    72  H    0.059751
    73  H    0.150725
    74  H    0.133129
    75  H    0.117885
    76  H    0.139980
    77  H    0.150447
    78  H    0.137402
    79  H    0.107160
    80  H    0.119199
    81  H    0.087127
    82  H    0.106655
    83  H    0.085994
    84  H    0.101467
    85  H    0.096462
    86  H    0.130184
    87  H    0.089088
    88  H    0.109420
    89  H    0.115129
    90  H    0.098832
    91  H    0.090637
    92  H    0.112890
    93  H    0.135722
    94  H    0.142957
    95  H    0.168497
    96  H    0.132181
    97  H    0.139269
    98  H    0.131300
    99  H    0.135397
   100  H    0.118007
   101  H    0.101006
   102  H    0.122295
   103  H    0.118048
   104  H    0.116480
   105  H    0.099854
   106  H    0.093815
   107  H    0.105633
   108  H    0.080731
   109  H    0.072176
   110  H    0.089855
   111  H    0.053670
   112  H    0.109937
   113  H    0.105522
   114  H    0.107168
   115  H    0.088013
   116  H    0.074044
   117  H    0.095619
   118  H    0.082433
   119  H    0.094292
   120  H    0.079652
   121  H    0.061663
   122  H    0.101122
   123  H    0.116275
   124  H    0.107638
   125  H    0.105698
   126  H    0.084300
   127  H    0.099517
   128  H    0.099176
   129  H    0.087847
   130  H    0.086271
   131  H    0.085391
   132  H    0.095233
   133  H    0.087041
   134  H    0.093142
   135  H    0.098157
   136  H    0.093426
   137  H    0.102381
 Sum of Mulliken charges =   0.00000

 Dipole moment (field-independent basis, Debye):
    X=              2.5383    Y=              3.6436    Z=              1.0076  Tot=              4.5535
 Quadrupole moment (field-independent basis, Debye-Ang):
   XX=           -360.1307   YY=           -383.9149   ZZ=           -400.0861
   XY=            -20.3358   XZ=              3.2602   YZ=             -2.9109

 Normal termination of Gaussian 09 at Sun Jun 30 12:20:56 2019.
