 Gaussian 09, Revision D.01,
 Gaussian 09:  ES64L-G09RevD.01 24-Apr-2013

 -------------------------------------
 # td=(NStates=1) CAM-B3LYP/6-31G(d,p)
 -------------------------------------

 --
 TD
 --
 Symbolic Z-matrix:
 Charge =  0 Multiplicity = 1

                         Standard orientation:
 ---------------------------------------------------------------------
 Center     Atomic      Atomic             Coordinates (Angstroms)
 Number     Number       Type             X           Y           Z
 ---------------------------------------------------------------------
      1         12           0       -7.131742    0.582983    0.035311
      2          6           0       -4.859226   -1.963620    0.606800
      3          6           0       -4.793669    2.907659    1.253390
      4          6           0       -9.373591    3.050304   -0.308340
      5          6           0       -9.485896   -1.768286   -0.865882
      6          7           0       -5.099196    0.463001    0.743512
      7          6           0       -4.330248   -0.744429    0.911725
      8          6           0       -2.913309   -0.496406    1.373767
      9          6           0       -3.093224    1.067917    1.784145
     10          6           0       -4.470384    1.523670    1.231097
     11          6           0       -3.084135    1.270954    3.396689
     12          6           0       -1.940646   -0.662663    0.145811
     13          6           0       -0.467906   -0.376616    0.538231
     14          6           0        0.528029   -0.638377   -0.636811
     15          8           0        0.170691   -1.152719   -1.629150
     16          8           0        1.777041   -0.332015   -0.244018
     17          7           0       -7.038234    2.587588    0.413991
     18          6           0       -6.052843    3.397293    0.831489
     19          6           0       -6.428787    4.811908    0.709941
     20          6           0       -7.749772    4.874642    0.444564
     21          6           0       -8.135395    3.448817    0.104182
     22          6           0       -5.526830    5.920551    1.297419
     23          6           0       -8.621954    6.056870    0.260247
     24          6           0       -8.185504    7.334711    0.143583
     25          7           0       -9.129351    0.587282   -0.565233
     26          6           0       -9.905474    1.708867   -0.723427
     27          6           0      -11.189148    1.433837   -1.197208
     28          6           0      -11.303463    0.068034   -1.258779
     29          6           0       -9.976670   -0.414294   -0.972184
     30          6           0      -12.331729    2.408458   -1.379760
     31          6           0      -12.474848   -0.820961   -1.774487
     32          6           0      -12.253293   -0.960693   -3.370871
     33          7           0       -7.224030   -1.409715   -0.083219
     34          6           0       -8.278830   -2.315266   -0.615652
     35          6           0       -7.795619   -3.628273   -0.473151
     36          6           0       -6.555728   -3.482967   -0.189475
     37          6           0       -6.214832   -2.051834    0.047271
     38          6           0       -8.495307   -4.952789   -0.855476
     39          6           0       -5.319320   -4.359015    0.258391
     40          8           0       -5.071127   -5.547362    0.260520
     41          6           0       -4.153188   -3.218891    0.566923
     42          6           0       -3.469176   -3.647811    1.845593
     43          8           0       -3.598716   -3.152757    2.958604
     44          8           0       -2.781668   -4.725951    1.663786
     45          6           0       -2.110873   -5.279479    2.876290
     46          6           0        2.775429   -0.568789   -1.289664
     47          6           0        4.054964   -0.329004   -0.495461
     48          6           0        5.119928    0.386297   -0.898186
     49          6           0        5.115790    1.217486   -2.186396
     50          6           0        6.390087    0.360074   -0.144833
     51          6           0        7.611587   -0.048031   -0.918701
     52          6           0        8.910791   -0.122654   -0.095302
     53          6           0       10.111601   -0.595275   -0.806611
     54          6           0        9.989290   -2.031886   -1.347789
     55          6           0       11.404992   -0.441483    0.022240
     56          6           0       12.691534   -0.436954   -0.725851
     57          6           0       13.927321   -0.178312    0.102434
     58          6           0       15.289926   -0.268987   -0.544526
     59          6           0       15.562960   -1.770967   -0.903326
     60          6           0       16.403384    0.309109    0.272681
     61          6           0       17.878787    0.523041   -0.275434
     62          6           0       18.875047    1.308011    0.706675
     63          6           0       20.280177    1.409978    0.299584
     64          6           0       20.513102    2.237667   -1.053570
     65          6           0       21.123781    2.009278    1.323273
     66          1           0       -4.018746    3.597658    1.473248
     67          1           0      -10.124662    3.944850   -0.605347
     68          1           0      -10.131634   -2.505407   -1.262763
     69          1           0       -2.615979   -1.197212    2.143259
     70          1           0       -2.118476    1.416909    1.242581
     71          1           0       -2.271828    0.878442    3.825752
     72          1           0       -3.212408    2.287902    3.633649
     73          1           0       -4.057166    0.770648    3.559014
     74          1           0       -1.892067   -1.700069   -0.300535
     75          1           0       -2.414968   -0.040511   -0.778765
     76          1           0       -0.417854    0.775553    1.023756
     77          1           0       -0.218275   -0.966410    1.495192
     78          1           0       -5.057647    6.438386    0.758986
     79          1           0       -6.072980    6.588080    1.973798
     80          1           0       -4.760883    5.322029    1.900426
     81          1           0       -9.702033    5.796668    0.447456
     82          1           0       -8.917356    8.115183    0.080808
     83          1           0       -7.108143    7.672244    0.178443
     84          1           0      -11.914067    3.015804   -2.069180
     85          1           0      -13.271453    2.040854   -1.605070
     86          1           0      -12.599413    3.091879   -0.554228
     87          1           0      -12.488187   -1.799937   -1.415632
     88          1           0      -13.335166   -0.238926   -1.566175
     89          1           0      -13.186719   -1.537727   -3.739029
     90          1           0      -12.145738    0.146183   -3.840149
     91          1           0      -11.419434   -1.485476   -3.574959
     92          1           0       -9.006157   -4.819842   -1.784554
     93          1           0       -7.710903   -5.796765   -0.981686
     94          1           0       -9.110430   -4.974716    0.087668
     95          1           0       -3.434206   -3.242948   -0.273093
     96          1           0       -1.634506   -4.472029    3.445149
     97          1           0       -2.783243   -5.693376    3.557649
     98          1           0       -1.374631   -6.090632    2.335996
     99          1           0        2.651165   -1.688363   -1.451037
    100          1           0        2.486858    0.047406   -2.058212
    101          1           0        3.809732   -0.823124    0.528031
    102          1           0        4.202037    1.307365   -2.588497
    103          1           0        5.602121    2.256674   -1.860953
    104          1           0        5.932199    0.766594   -2.817839
    105          1           0        6.738223    1.339816    0.079182
    106          1           0        6.542000   -0.343775    0.668600
    107          1           0        7.531258   -1.020239   -1.565714
    108          1           0        7.796734    0.800693   -1.647366
    109          1           0        9.039934    0.823527    0.232486
    110          1           0        8.790715   -0.710708    0.905407
    111          1           0       10.160535   -0.059173   -1.565883
    112          1           0        9.062406   -2.308551   -1.898075
    113          1           0       10.919567   -2.244285   -2.029788
    114          1           0        9.848433   -2.767914   -0.470700
    115          1           0       11.289023    0.564045    0.366216
    116          1           0       11.434332   -1.156089    0.910933
    117          1           0       12.833672   -1.390521   -1.248070
    118          1           0       12.895389    0.373304   -1.605646
    119          1           0       13.759202    0.691957    0.506495
    120          1           0       14.029446   -0.857320    0.853997
    121          1           0       15.374983    0.307721   -1.422906
    122          1           0       15.454902   -2.291649   -0.026025
    123          1           0       14.930137   -2.229536   -1.656665
    124          1           0       16.565649   -2.038182   -1.352023
    125          1           0       15.998742    1.492090    0.460164
    126          1           0       16.542951   -0.179475    1.115648
    127          1           0       18.385584   -0.453450   -0.537117
    128          1           0       17.772728    0.973883   -1.355612
    129          1           0       18.358762    2.222870    1.014230
    130          1           0       19.257866    0.643455    1.631071
    131          1           0       20.598510    0.377116    0.012634
    132          1           0       20.086940    3.229765   -0.823527
    133          1           0       21.538187    2.248487   -1.281891
    134          1           0       19.685150    1.715647   -1.884935
    135          1           0       21.343237    1.564705    2.350584
    136          1           0       22.056708    2.235344    0.766195
    137          1           0       20.962014    3.113592    1.586238
 ---------------------------------------------------------------------

 SCF Done:  E(RCAM-B3LYP) =  -2932.62463993     A.U. after   17 cycles

 Excitation energies and oscillator strengths:

 Excited State   1:      Singlet-A      2.3427 eV  529.24 nm  f=0.1495  <S**2>=0.000
     240 -> 243        0.27548
     241 -> 242        0.63683
 This state for optimization and/or second-order correction.
 Total Energy, E(TD-HF/TD-KS) =  -2932.53854845
 Copying the excited state density for this state as the 1-particle RhoCI density.

 The electronic state is 1-A.
 Alpha  occ. eigenvalues --  -46.84502 -19.26331 -19.26095 -19.22029 -19.21730
 Alpha  occ. eigenvalues --  -19.19425 -14.40945 -14.39758 -14.39262 -14.38449
 Alpha  occ. eigenvalues --  -10.39335 -10.38312 -10.36752 -10.32401 -10.31892
 Alpha  occ. eigenvalues --  -10.31223 -10.30252 -10.30085 -10.29305 -10.29223
 Alpha  occ. eigenvalues --  -10.29165 -10.28599 -10.28144 -10.28130 -10.27996
 Alpha  occ. eigenvalues --  -10.27931 -10.27845 -10.27838 -10.27753 -10.27515
 Alpha  occ. eigenvalues --  -10.27466 -10.27397 -10.27335 -10.27262 -10.27039
 Alpha  occ. eigenvalues --  -10.26943 -10.26922 -10.26920 -10.26807 -10.26699
 Alpha  occ. eigenvalues --  -10.26535 -10.26097 -10.26009 -10.25982 -10.25956
 Alpha  occ. eigenvalues --  -10.25825 -10.25708 -10.25681 -10.25601 -10.25494
 Alpha  occ. eigenvalues --  -10.25450 -10.25421 -10.25262 -10.25232 -10.25151
 Alpha  occ. eigenvalues --  -10.25054 -10.24869 -10.24624 -10.24495 -10.24408
 Alpha  occ. eigenvalues --  -10.24248 -10.24169 -10.23814 -10.23783 -10.22504
 Alpha  occ. eigenvalues --   -3.13482  -1.88193  -1.87757  -1.87623  -1.19189
 Alpha  occ. eigenvalues --   -1.19029  -1.11939  -1.11407  -1.07562  -1.06752
 Alpha  occ. eigenvalues --   -1.02866  -1.02112  -1.01535  -0.92600  -0.91949
 Alpha  occ. eigenvalues --   -0.91306  -0.90375  -0.90212  -0.89733  -0.88887
 Alpha  occ. eigenvalues --   -0.88066  -0.87386  -0.87083  -0.86262  -0.86065
 Alpha  occ. eigenvalues --   -0.84355  -0.84004  -0.83169  -0.82827  -0.82258
 Alpha  occ. eigenvalues --   -0.81378  -0.80715  -0.80262  -0.79562  -0.78358
 Alpha  occ. eigenvalues --   -0.77756  -0.76986  -0.76654  -0.75898  -0.75740
 Alpha  occ. eigenvalues --   -0.75473  -0.75440  -0.74473  -0.73778  -0.72195
 Alpha  occ. eigenvalues --   -0.70939  -0.70159  -0.69555  -0.68913  -0.67776
 Alpha  occ. eigenvalues --   -0.67103  -0.66234  -0.64763  -0.64630  -0.64512
 Alpha  occ. eigenvalues --   -0.64421  -0.63759  -0.63596  -0.62983  -0.61989
 Alpha  occ. eigenvalues --   -0.61718  -0.60555  -0.60067  -0.59383  -0.59302
 Alpha  occ. eigenvalues --   -0.58606  -0.57885  -0.57739  -0.57439  -0.57142
 Alpha  occ. eigenvalues --   -0.56401  -0.56203  -0.55610  -0.55270  -0.54876
 Alpha  occ. eigenvalues --   -0.54417  -0.53987  -0.53852  -0.53168  -0.53047
 Alpha  occ. eigenvalues --   -0.52720  -0.52481  -0.52189  -0.52036  -0.51806
 Alpha  occ. eigenvalues --   -0.51680  -0.51316  -0.51119  -0.50881  -0.50804
 Alpha  occ. eigenvalues --   -0.50110  -0.50023  -0.49896  -0.49689  -0.49617
 Alpha  occ. eigenvalues --   -0.49493  -0.49266  -0.49055  -0.48676  -0.48396
 Alpha  occ. eigenvalues --   -0.48250  -0.48192  -0.48041  -0.47297  -0.47228
 Alpha  occ. eigenvalues --   -0.47091  -0.46793  -0.46660  -0.46400  -0.46307
 Alpha  occ. eigenvalues --   -0.45991  -0.45953  -0.45555  -0.45341  -0.45111
 Alpha  occ. eigenvalues --   -0.44768  -0.44470  -0.44397  -0.44134  -0.43973
 Alpha  occ. eigenvalues --   -0.43864  -0.43844  -0.43701  -0.43409  -0.43305
 Alpha  occ. eigenvalues --   -0.42987  -0.42938  -0.42825  -0.41893  -0.41754
 Alpha  occ. eigenvalues --   -0.41727  -0.41609  -0.41379  -0.41342  -0.41009
 Alpha  occ. eigenvalues --   -0.40876  -0.40712  -0.40458  -0.40389  -0.40273
 Alpha  occ. eigenvalues --   -0.40005  -0.39776  -0.39520  -0.39091  -0.39022
 Alpha  occ. eigenvalues --   -0.38936  -0.38860  -0.38664  -0.38546  -0.37691
 Alpha  occ. eigenvalues --   -0.37516  -0.37285  -0.37109  -0.36868  -0.36539
 Alpha  occ. eigenvalues --   -0.36486  -0.36399  -0.36161  -0.35852  -0.35630
 Alpha  occ. eigenvalues --   -0.35417  -0.35271  -0.34851  -0.34398  -0.33721
 Alpha  occ. eigenvalues --   -0.33229  -0.32940  -0.32835  -0.31243  -0.29821
 Alpha  occ. eigenvalues --   -0.29475  -0.29362  -0.28094  -0.27223  -0.23294
 Alpha  occ. eigenvalues --   -0.21001
 Alpha virt. eigenvalues --   -0.04385  -0.02726   0.02453   0.04175   0.05517
 Alpha virt. eigenvalues --    0.06264   0.06577   0.06661   0.07416   0.08096
 Alpha virt. eigenvalues --    0.08552   0.11174   0.11206   0.11643   0.12082

 Mulliken charges:
               1
     1  Mg   0.809639
     2  C    0.083038
     3  C   -0.223493
     4  C   -0.200462
     5  C   -0.172390
     6  N   -0.657880
     7  C    0.290401
     8  C   -0.149717
     9  C   -0.176966
    10  C    0.368990
    11  C   -0.297597
    12  C   -0.179342
    13  C   -0.273032
    14  C    0.616509
    15  O   -0.442181
    16  O   -0.484542
    17  N   -0.706018
    18  C    0.348301
    19  C   -0.033800
    20  C    0.039822
    21  C    0.296181
    22  C   -0.345261
    23  C   -0.067579
    24  C   -0.246418
    25  N   -0.656281
    26  C    0.274380
    27  C   -0.002094
    28  C    0.000986
    29  C    0.230695
    30  C   -0.362139
    31  C   -0.219386
    32  C   -0.300761
    33  N   -0.710543
    34  C    0.181847
    35  C    0.035519
    36  C   -0.080855
    37  C    0.418176
    38  C   -0.344554
    39  C    0.401358
    40  O   -0.438796
    41  C   -0.343443
    42  C    0.616638
    43  O   -0.510683
    44  O   -0.430837
    45  C   -0.088550
    46  C    0.006647
    47  C   -0.142863
    48  C    0.118137
    49  C   -0.345844
    50  C   -0.206481
    51  C   -0.206360
    52  C   -0.171830
    53  C   -0.028604
    54  C   -0.314685
    55  C   -0.169855
    56  C   -0.184661
    57  C   -0.145647
    58  C   -0.072845
    59  C   -0.328144
    60  C   -0.146330
    61  C   -0.194505
    62  C   -0.135843
    63  C   -0.060907
    64  C   -0.306307
    65  C   -0.311578
    66  H    0.085638
    67  H    0.075625
    68  H    0.076927
    69  H    0.134408
    70  H    0.084621
    71  H    0.117080
    72  H    0.114350
    73  H    0.123980
    74  H    0.117057
    75  H    0.101491
    76  H    0.100327
    77  H    0.128853
    78  H    0.124987
    79  H    0.121246
    80  H    0.099183
    81  H    0.102775
    82  H    0.107918
    83  H    0.109816
    84  H    0.130638
    85  H    0.113505
    86  H    0.109621
    87  H    0.111010
    88  H    0.108662
    89  H    0.087892
    90  H    0.094888
    91  H    0.125356
    92  H    0.132132
    93  H    0.144999
    94  H    0.136904
    95  H    0.166039
    96  H    0.140349
    97  H    0.151653
    98  H    0.118276
    99  H    0.132847
   100  H    0.129269
   101  H    0.107309
   102  H    0.116835
   103  H    0.099847
   104  H    0.129315
   105  H    0.102035
   106  H    0.109687
   107  H    0.083454
   108  H    0.080137
   109  H    0.098174
   110  H    0.066723
   111  H    0.093278
   112  H    0.098312
   113  H    0.094512
   114  H    0.086576
   115  H    0.092428
   116  H    0.091498
   117  H    0.093513
   118  H    0.064909
   119  H    0.093661
   120  H    0.089769
   121  H    0.081310
   122  H    0.108870
   123  H    0.104040
   124  H    0.090913
   125  H    0.046225
   126  H    0.100301
   127  H    0.085932
   128  H    0.076732
   129  H    0.093433
   130  H    0.075484
   131  H    0.092457
   132  H    0.102926
   133  H    0.111728
   134  H    0.067944
   135  H    0.101947
   136  H    0.095117
   137  H    0.093971
 Sum of Mulliken charges =   0.00000

 Dipole moment (field-independent basis, Debye):
    X=              3.1945    Y=              2.9423    Z=             -0.1755  Tot=              4.3466
 Quadrupole moment (field-independent basis, Debye-Ang):
   XX=           -351.9691   YY=           -382.7026   ZZ=           -400.4740
   XY=            -10.5602   XZ=             14.1468   YZ=             -1.0935

 Normal termination of Gaussian 09 at Sat Jun 29 20:42:57 2019.
