 Gaussian 09, Revision D.01,
 Gaussian 09:  ES64L-G09RevD.01 24-Apr-2013

 -------------------------------------
 # td=(NStates=1) CAM-B3LYP/6-31G(d,p)
 -------------------------------------

 --
 TD
 --
 Symbolic Z-matrix:
 Charge =  0 Multiplicity = 1

                         Standard orientation:
 ---------------------------------------------------------------------
 Center     Atomic      Atomic             Coordinates (Angstroms)
 Number     Number       Type             X           Y           Z
 ---------------------------------------------------------------------
      1         12           0       -7.094066    0.667172    0.059988
      2          6           0       -4.789581   -1.913539    0.535156
      3          6           0       -4.795708    2.836015    1.169514
      4          6           0       -9.391515    3.214893   -0.410796
      5          6           0       -9.472747   -1.653793   -0.866724
      6          7           0       -5.160720    0.464017    0.709051
      7          6           0       -4.337382   -0.702922    0.802753
      8          6           0       -2.988647   -0.414091    1.218375
      9          6           0       -3.059335    1.105953    1.642599
     10          6           0       -4.417177    1.479533    1.157552
     11          6           0       -3.045753    1.315169    3.202148
     12          6           0       -1.959693   -0.740602    0.151288
     13          6           0       -0.471696   -0.636170    0.663420
     14          6           0        0.593665   -0.836649   -0.491268
     15          8           0        0.169111   -1.312880   -1.568633
     16          8           0        1.838370   -0.494388   -0.080534
     17          7           0       -7.074644    2.604008    0.328972
     18          6           0       -6.110132    3.367900    0.714217
     19          6           0       -6.315265    4.777625    0.797417
     20          6           0       -7.715289    4.826171    0.523925
     21          6           0       -8.154194    3.562867    0.170534
     22          6           0       -5.435301    5.837104    1.346127
     23          6           0       -8.636974    6.011976    0.521920
     24          6           0       -8.334835    7.276875    0.244765
     25          7           0       -9.074058    0.730106   -0.624919
     26          6           0       -9.811652    1.751631   -0.676215
     27          6           0      -11.170260    1.482333   -1.079612
     28          6           0      -11.158675    0.195316   -1.283520
     29          6           0       -9.948955   -0.328793   -0.983206
     30          6           0      -12.337007    2.523469   -1.420445
     31          6           0      -12.381796   -0.709282   -1.737500
     32          6           0      -12.482731   -0.832475   -3.285985
     33          7           0       -7.186930   -1.303945   -0.106886
     34          6           0       -8.213242   -2.211513   -0.526228
     35          6           0       -7.829705   -3.533067   -0.502948
     36          6           0       -6.520350   -3.594562   -0.115343
     37          6           0       -6.154865   -2.211244    0.123229
     38          6           0       -8.556473   -4.819399   -0.988378
     39          6           0       -5.306240   -4.370459    0.228601
     40          8           0       -5.200373   -5.596519    0.239837
     41          6           0       -4.208597   -3.364989    0.544193
     42          6           0       -3.582280   -3.747622    1.916255
     43          8           0       -3.943584   -3.258902    2.977822
     44          8           0       -2.599925   -4.722789    1.691702
     45          6           0       -2.123772   -5.238041    2.934942
     46          6           0        2.841857   -0.714322   -1.135181
     47          6           0        4.128592   -0.507596   -0.587325
     48          6           0        5.090374    0.292884   -1.118520
     49          6           0        5.050146    1.191120   -2.289102
     50          6           0        6.414059    0.238227   -0.254279
     51          6           0        7.650609   -0.181220   -0.957556
     52          6           0        8.914173   -0.161056   -0.123955
     53          6           0       10.205707   -0.530400   -0.904875
     54          6           0       10.149987   -1.928983   -1.467558
     55          6           0       11.453325   -0.269898    0.039081
     56          6           0       12.786928   -0.561642   -0.722937
     57          6           0       14.053969   -0.137629    0.149291
     58          6           0       15.415255   -0.314185   -0.520824
     59          6           0       15.807362   -1.715992   -0.886847
     60          6           0       16.419162    0.437710    0.410070
     61          6           0       17.806701    0.659497   -0.197484
     62          6           0       18.736865    1.385232    0.767446
     63          6           0       20.135355    1.475178    0.232781
     64          6           0       20.139194    2.427339   -1.080509
     65          6           0       21.032564    2.059594    1.309868
     66          1           0       -3.929884    3.601194    1.614407
     67          1           0      -10.301651    3.957752   -0.446544
     68          1           0      -10.166552   -2.478120   -1.199525
     69          1           0       -2.705737   -0.874137    2.329724
     70          1           0       -2.298448    1.718687    1.158738
     71          1           0       -2.252618    0.891652    3.663923
     72          1           0       -3.235895    2.276632    3.577943
     73          1           0       -3.885829    0.721034    3.732396
     74          1           0       -2.006258   -1.695655   -0.258412
     75          1           0       -1.970144   -0.098880   -0.666890
     76          1           0       -0.030855    0.439950    0.982788
     77          1           0       -0.259018   -1.382839    1.278325
     78          1           0       -4.687298    6.306269    0.650772
     79          1           0       -6.037393    6.679993    1.840508
     80          1           0       -4.705003    5.246956    2.040206
     81          1           0       -9.727360    5.736576    0.781331
     82          1           0       -9.035352    8.027492    0.096355
     83          1           0       -7.374118    7.459597   -0.086132
     84          1           0      -12.084192    3.108005   -2.374629
     85          1           0      -13.395410    1.819886   -1.598152
     86          1           0      -12.563410    3.327521   -0.770638
     87          1           0      -12.206218   -1.697458   -1.380484
     88          1           0      -13.302609   -0.276375   -1.347112
     89          1           0      -13.290168   -1.406525   -3.700484
     90          1           0      -12.463015    0.107258   -3.925560
     91          1           0      -11.655748   -1.531863   -3.537696
     92          1           0       -8.727935   -5.236816   -2.260094
     93          1           0       -7.955048   -5.565148   -0.779690
     94          1           0       -9.514371   -5.035935   -0.545807
     95          1           0       -3.434958   -3.761298   -0.140746
     96          1           0       -1.298676   -4.465975    3.431238
     97          1           0       -2.845186   -5.442030    3.618930
     98          1           0       -1.512233   -6.424125    2.730981
     99          1           0        2.824649   -1.880456   -1.530810
    100          1           0        2.618788    0.012713   -2.077694
    101          1           0        4.500537   -1.080129    0.260555
    102          1           0        3.984993    0.954057   -2.743596
    103          1           0        5.172274    2.284677   -1.766353
    104          1           0        5.992420    1.090395   -2.944706
    105          1           0        6.727555    1.245199    0.170216
    106          1           0        6.157666   -0.484531    0.573234
    107          1           0        7.363322   -1.267562   -1.176594
    108          1           0        7.939377    0.291481   -1.955767
    109          1           0        8.958154    0.815232    0.261649
    110          1           0        8.852165   -0.934825    0.868902
    111          1           0       10.209043    0.191227   -1.749029
    112          1           0        9.283877   -2.049679   -1.943417
    113          1           0       10.953379   -2.043591   -2.219153
    114          1           0       10.129915   -2.785818   -0.488702
    115          1           0       11.557973    0.688910    0.510781
    116          1           0       11.363137   -1.130727    0.722046
    117          1           0       12.979927   -1.688257   -0.991767
    118          1           0       13.006469   -0.028092   -1.479759
    119          1           0       13.914728    0.829714    0.481870
    120          1           0       13.796083   -0.817772    0.963623
    121          1           0       15.115070    0.382322   -1.341223
    122          1           0       15.418787   -2.434901    0.125323
    123          1           0       15.194925   -2.078126   -1.842755
    124          1           0       16.813978   -1.987068   -1.284902
    125          1           0       15.968862    1.330386    0.553807
    126          1           0       16.521124    0.023235    1.397607
    127          1           0       18.202849   -0.437763   -0.570997
    128          1           0       17.707595    1.275382   -1.049213
    129          1           0       18.478800    2.440940    0.915217
    130          1           0       18.824448    0.665236    1.620212
    131          1           0       20.537762    0.531045    0.026411
    132          1           0       19.398543    3.357708   -0.949234
    133          1           0       21.349054    2.937367   -1.097988
    134          1           0       19.911659    1.730981   -1.988916
    135          1           0       21.116934    1.457000    2.336306
    136          1           0       22.123524    2.011688    0.998394
    137          1           0       20.734552    3.050748    1.537421
 ---------------------------------------------------------------------

 SCF Done:  E(RCAM-B3LYP) =  -2932.57466461     A.U. after   17 cycles

 Excitation energies and oscillator strengths:

 Excited State   1:      Singlet-A      2.2569 eV  549.36 nm  f=0.1752  <S**2>=0.000
     240 -> 242       -0.37946
     240 -> 243        0.17887
     241 -> 242        0.50978
     241 -> 243        0.22214
 This state for optimization and/or second-order correction.
 Total Energy, E(TD-HF/TD-KS) =  -2932.49172628
 Copying the excited state density for this state as the 1-particle RhoCI density.

 The electronic state is 1-A.
 Alpha  occ. eigenvalues --  -46.83388 -19.28272 -19.27168 -19.21934 -19.20982
 Alpha  occ. eigenvalues --  -19.19561 -14.40763 -14.40028 -14.39612 -14.39312
 Alpha  occ. eigenvalues --  -10.40027 -10.39702 -10.34892 -10.34347 -10.33355
 Alpha  occ. eigenvalues --  -10.30955 -10.30470 -10.30395 -10.29788 -10.29754
 Alpha  occ. eigenvalues --  -10.29540 -10.29168 -10.29142 -10.28971 -10.28773
 Alpha  occ. eigenvalues --  -10.28759 -10.28631 -10.28470 -10.28313 -10.28297
 Alpha  occ. eigenvalues --  -10.28254 -10.28167 -10.28100 -10.28083 -10.27945
 Alpha  occ. eigenvalues --  -10.27837 -10.27631 -10.27494 -10.27307 -10.26836
 Alpha  occ. eigenvalues --  -10.26650 -10.26525 -10.26473 -10.26228 -10.26191
 Alpha  occ. eigenvalues --  -10.26171 -10.26170 -10.26148 -10.25868 -10.25785
 Alpha  occ. eigenvalues --  -10.25776 -10.25594 -10.25580 -10.25511 -10.25405
 Alpha  occ. eigenvalues --  -10.25238 -10.25225 -10.25026 -10.24991 -10.24825
 Alpha  occ. eigenvalues --  -10.24744 -10.24636 -10.23900 -10.23693 -10.23412
 Alpha  occ. eigenvalues --   -3.12735  -1.87412  -1.86975  -1.86959  -1.17698
 Alpha  occ. eigenvalues --   -1.17076  -1.09712  -1.09560  -1.08288  -1.06263
 Alpha  occ. eigenvalues --   -1.05279  -1.03473  -1.01718  -0.91992  -0.91782
 Alpha  occ. eigenvalues --   -0.90781  -0.89996  -0.89835  -0.89281  -0.89104
 Alpha  occ. eigenvalues --   -0.88679  -0.87596  -0.86988  -0.86178  -0.86053
 Alpha  occ. eigenvalues --   -0.85233  -0.84340  -0.83682  -0.83094  -0.82504
 Alpha  occ. eigenvalues --   -0.81629  -0.80761  -0.80139  -0.79543  -0.78013
 Alpha  occ. eigenvalues --   -0.77948  -0.77163  -0.76277  -0.75393  -0.75224
 Alpha  occ. eigenvalues --   -0.74854  -0.74747  -0.73652  -0.73118  -0.72328
 Alpha  occ. eigenvalues --   -0.71524  -0.70676  -0.69913  -0.68989  -0.68643
 Alpha  occ. eigenvalues --   -0.67206  -0.65747  -0.64760  -0.64605  -0.64350
 Alpha  occ. eigenvalues --   -0.63633  -0.63168  -0.62939  -0.62436  -0.61912
 Alpha  occ. eigenvalues --   -0.61672  -0.60943  -0.60298  -0.59820  -0.59321
 Alpha  occ. eigenvalues --   -0.58555  -0.58189  -0.57200  -0.56935  -0.56234
 Alpha  occ. eigenvalues --   -0.55891  -0.55385  -0.55267  -0.55034  -0.54664
 Alpha  occ. eigenvalues --   -0.54526  -0.54174  -0.54030  -0.53723  -0.53620
 Alpha  occ. eigenvalues --   -0.53047  -0.52875  -0.52460  -0.52119  -0.51614
 Alpha  occ. eigenvalues --   -0.51211  -0.51030  -0.50670  -0.50517  -0.50305
 Alpha  occ. eigenvalues --   -0.50140  -0.49898  -0.49610  -0.49314  -0.49130
 Alpha  occ. eigenvalues --   -0.48893  -0.48337  -0.48133  -0.48046  -0.47796
 Alpha  occ. eigenvalues --   -0.47611  -0.47345  -0.47207  -0.46978  -0.46715
 Alpha  occ. eigenvalues --   -0.46444  -0.46297  -0.46175  -0.45802  -0.45735
 Alpha  occ. eigenvalues --   -0.45607  -0.45369  -0.45275  -0.45050  -0.45000
 Alpha  occ. eigenvalues --   -0.44713  -0.44615  -0.44602  -0.44172  -0.43812
 Alpha  occ. eigenvalues --   -0.43690  -0.43562  -0.43416  -0.43150  -0.42941
 Alpha  occ. eigenvalues --   -0.42711  -0.42327  -0.42144  -0.42093  -0.41970
 Alpha  occ. eigenvalues --   -0.41725  -0.41530  -0.41359  -0.41173  -0.41146
 Alpha  occ. eigenvalues --   -0.40907  -0.40716  -0.40625  -0.40510  -0.40377
 Alpha  occ. eigenvalues --   -0.40301  -0.40177  -0.40121  -0.39535  -0.39228
 Alpha  occ. eigenvalues --   -0.38959  -0.38871  -0.38167  -0.38123  -0.38050
 Alpha  occ. eigenvalues --   -0.37818  -0.37510  -0.37464  -0.37158  -0.36894
 Alpha  occ. eigenvalues --   -0.36686  -0.36668  -0.36448  -0.35850  -0.35775
 Alpha  occ. eigenvalues --   -0.35702  -0.35354  -0.34802  -0.34553  -0.33743
 Alpha  occ. eigenvalues --   -0.32621  -0.32400  -0.32051  -0.31188  -0.30200
 Alpha  occ. eigenvalues --   -0.29871  -0.29604  -0.28886  -0.28535  -0.22986
 Alpha  occ. eigenvalues --   -0.22172
 Alpha virt. eigenvalues --   -0.06446  -0.03043   0.01872   0.04517   0.04948
 Alpha virt. eigenvalues --    0.05446   0.06183   0.06341   0.06993   0.07127
 Alpha virt. eigenvalues --    0.08441   0.10450   0.10501   0.10825   0.11089

 Mulliken charges:
               1
     1  Mg   0.812057
     2  C    0.100776
     3  C   -0.250563
     4  C   -0.176918
     5  C   -0.183978
     6  N   -0.662944
     7  C    0.292563
     8  C   -0.168013
     9  C   -0.150465
    10  C    0.398566
    11  C   -0.329562
    12  C   -0.167945
    13  C   -0.257206
    14  C    0.593961
    15  O   -0.486204
    16  O   -0.463478
    17  N   -0.701457
    18  C    0.349823
    19  C    0.065049
    20  C   -0.016219
    21  C    0.287477
    22  C   -0.383276
    23  C   -0.076739
    24  C   -0.237709
    25  N   -0.642441
    26  C    0.293491
    27  C   -0.006672
    28  C    0.062641
    29  C    0.244664
    30  C   -0.357667
    31  C   -0.226794
    32  C   -0.316321
    33  N   -0.692243
    34  C    0.253998
    35  C    0.000239
    36  C    0.042115
    37  C    0.209626
    38  C   -0.347943
    39  C    0.379358
    40  O   -0.477579
    41  C   -0.324209
    42  C    0.637094
    43  O   -0.462319
    44  O   -0.452448
    45  C   -0.062857
    46  C   -0.004246
    47  C   -0.115817
    48  C    0.133444
    49  C   -0.342754
    50  C   -0.226029
    51  C   -0.172234
    52  C   -0.149404
    53  C   -0.072652
    54  C   -0.281643
    55  C   -0.166682
    56  C   -0.192266
    57  C   -0.210403
    58  C   -0.045712
    59  C   -0.292480
    60  C   -0.162476
    61  C   -0.178149
    62  C   -0.148703
    63  C   -0.051814
    64  C   -0.294407
    65  C   -0.303870
    66  H    0.067299
    67  H    0.098616
    68  H    0.096514
    69  H    0.112635
    70  H    0.112759
    71  H    0.120593
    72  H    0.119596
    73  H    0.112035
    74  H    0.137485
    75  H    0.124732
    76  H    0.105274
    77  H    0.142646
    78  H    0.126662
    79  H    0.127860
    80  H    0.113146
    81  H    0.090112
    82  H    0.112793
    83  H    0.107699
    84  H    0.120064
    85  H    0.086416
    86  H    0.125819
    87  H    0.109549
    88  H    0.105419
    89  H    0.107576
    90  H    0.107243
    91  H    0.104823
    92  H    0.066390
    93  H    0.159842
    94  H    0.119235
    95  H    0.173695
    96  H    0.095713
    97  H    0.155841
    98  H    0.080885
    99  H    0.121426
   100  H    0.112268
   101  H    0.098175
   102  H    0.098365
   103  H    0.111408
   104  H    0.128192
   105  H    0.083120
   106  H    0.098942
   107  H    0.089228
   108  H    0.083723
   109  H    0.093947
   110  H    0.051506
   111  H    0.078306
   112  H    0.119199
   113  H    0.109187
   114  H    0.058086
   115  H    0.096271
   116  H    0.098889
   117  H    0.086720
   118  H    0.094272
   119  H    0.092219
   120  H    0.084705
   121  H    0.082157
   122  H    0.071692
   123  H    0.085873
   124  H    0.112488
   125  H    0.092532
   126  H    0.091134
   127  H    0.061641
   128  H    0.095289
   129  H    0.089982
   130  H    0.089149
   131  H    0.094493
   132  H    0.091084
   133  H    0.062775
   134  H    0.109605
   135  H    0.076999
   136  H    0.090017
   137  H    0.104936
 Sum of Mulliken charges =   0.00000

 Dipole moment (field-independent basis, Debye):
    X=              1.8899    Y=              6.6485    Z=             -0.2371  Tot=              6.9159
 Quadrupole moment (field-independent basis, Debye-Ang):
   XX=           -351.1385   YY=           -392.2484   ZZ=           -400.4224
   XY=            -32.8793   XZ=              3.9214   YZ=             -1.7645

 Normal termination of Gaussian 09 at Sun Jun 30 15:27:58 2019.
