 Gaussian 09, Revision D.01,
 Gaussian 09:  ES64L-G09RevD.01 24-Apr-2013

 -------------------------------------
 # td=(NStates=1) CAM-B3LYP/6-31G(d,p)
 -------------------------------------

 --
 TD
 --
 Symbolic Z-matrix:
 Charge =  0 Multiplicity = 1

                         Standard orientation:
 ---------------------------------------------------------------------
 Center     Atomic      Atomic             Coordinates (Angstroms)
 Number     Number       Type             X           Y           Z
 ---------------------------------------------------------------------
      1         12           0       -7.106620    0.585413    0.036408
      2          6           0       -4.797235   -1.994340    0.502753
      3          6           0       -4.712919    2.835658    1.268520
      4          6           0       -9.360853    3.108255   -0.279324
      5          6           0       -9.513366   -1.673012   -0.889566
      6          7           0       -5.158529    0.371507    0.818081
      7          6           0       -4.348873   -0.762812    0.723686
      8          6           0       -2.907019   -0.427064    1.196422
      9          6           0       -3.047510    0.914619    1.879197
     10          6           0       -4.458853    1.457999    1.316658
     11          6           0       -3.082540    0.972321    3.363107
     12          6           0       -1.961402   -0.540739    0.016478
     13          6           0       -0.547264   -0.430177    0.514520
     14          6           0        0.493228   -0.672250   -0.625805
     15          8           0        0.192166   -0.952184   -1.706197
     16          8           0        1.756919   -0.401281   -0.314602
     17          7           0       -7.077374    2.631122    0.442514
     18          6           0       -6.030709    3.414170    0.918878
     19          6           0       -6.307236    4.731082    0.763825
     20          6           0       -7.647968    4.797425    0.447632
     21          6           0       -8.113855    3.430424    0.242283
     22          6           0       -5.404547    5.793474    1.353320
     23          6           0       -8.527626    6.053116    0.340114
     24          6           0       -8.191785    7.295992    0.096432
     25          7           0       -9.124655    0.790585   -0.565091
     26          6           0       -9.817718    1.842446   -0.598765
     27          6           0      -11.215412    1.597041   -1.036499
     28          6           0      -11.296169    0.165803   -1.159996
     29          6           0       -9.869899   -0.306463   -0.853709
     30          6           0      -12.298906    2.604069   -1.277038
     31          6           0      -12.429503   -0.730243   -1.653220
     32          6           0      -12.341748   -0.995166   -3.215180
     33          7           0       -7.143416   -1.339391   -0.297564
     34          6           0       -8.269204   -2.059919   -0.620491
     35          6           0       -7.879715   -3.601837   -0.488299
     36          6           0       -6.563851   -3.594504   -0.055735
     37          6           0       -6.144060   -2.216377    0.024858
     38          6           0       -8.716773   -4.907344   -0.806940
     39          6           0       -5.342086   -4.435035    0.157346
     40          8           0       -5.131552   -5.618710    0.249842
     41          6           0       -4.129469   -3.349624    0.483539
     42          6           0       -3.507927   -3.754652    1.861662
     43          8           0       -3.711753   -3.203751    2.928601
     44          8           0       -2.741301   -4.771614    1.612442
     45          6           0       -2.079947   -5.269763    2.825315
     46          6           0        2.695186   -0.754705   -1.417597
     47          6           0        4.065478   -0.449223   -0.769240
     48          6           0        5.148426    0.263859   -1.241236
     49          6           0        4.991339    1.228974   -2.375323
     50          6           0        6.367559    0.392683   -0.403424
     51          6           0        7.612433   -0.230328   -1.070982
     52          6           0        8.912339   -0.073982   -0.168919
     53          6           0       10.221795   -0.509544   -0.924153
     54          6           0       10.175674   -1.879753   -1.304220
     55          6           0       11.501484   -0.183094   -0.043247
     56          6           0       12.819074   -0.508726   -0.702210
     57          6           0       13.994540   -0.067938    0.143098
     58          6           0       15.391897   -0.202566   -0.468599
     59          6           0       15.743522   -1.761108   -0.764985
     60          6           0       16.365051    0.411754    0.532001
     61          6           0       17.750546    0.626786   -0.088454
     62          6           0       18.769113    1.267364    0.803089
     63          6           0       20.171528    1.336193    0.328763
     64          6           0       20.421881    2.118572   -0.954609
     65          6           0       21.029912    1.945090    1.444809
     66          1           0       -4.000287    3.503010    1.794874
     67          1           0      -10.115872    3.895867   -0.419874
     68          1           0      -10.207048   -2.312680   -1.156212
     69          1           0       -2.713680   -1.131564    1.991569
     70          1           0       -2.332760    1.782842    1.609153
     71          1           0       -2.062038    0.800195    3.690473
     72          1           0       -3.339119    2.089850    3.753919
     73          1           0       -3.878899    0.192167    3.750971
     74          1           0       -2.394534   -1.541263   -0.573335
     75          1           0       -2.183263    0.285660   -0.803848
     76          1           0       -0.347801    0.346949    1.419256
     77          1           0       -0.367655   -1.421606    1.148046
     78          1           0       -4.717132    6.282452    0.600981
     79          1           0       -6.048048    6.620662    1.812968
     80          1           0       -4.820475    5.505531    2.039771
     81          1           0       -9.596472    5.700334    0.559439
     82          1           0       -8.840509    8.095859    0.214135
     83          1           0       -7.125133    7.423991   -0.236043
     84          1           0      -12.313267    3.140290   -2.286907
     85          1           0      -13.393865    2.124216   -1.185549
     86          1           0      -12.269123    3.309832   -0.306870
     87          1           0      -12.506726   -1.552810   -1.184477
     88          1           0      -13.301335   -0.109234   -1.599262
     89          1           0      -13.294130   -1.540388   -3.545249
     90          1           0      -12.098176   -0.040105   -3.751108
     91          1           0      -11.368767   -1.717693   -3.370399
     92          1           0       -9.059170   -4.760127   -1.683299
     93          1           0       -8.136372   -5.656053   -0.578600
     94          1           0       -9.743660   -4.999432   -0.162501
     95          1           0       -3.398464   -3.616293   -0.279717
     96          1           0       -1.380288   -4.324638    3.080104
     97          1           0       -2.998118   -5.451839    3.598517
     98          1           0       -1.797098   -6.343589    2.647874
     99          1           0        2.693610   -1.705863   -1.734790
    100          1           0        2.664201    0.147493   -2.304232
    101          1           0        4.341309   -1.181093    0.100363
    102          1           0        3.917855    1.293986   -2.772509
    103          1           0        5.157787    2.241821   -2.010972
    104          1           0        5.708057    1.123884   -3.312633
    105          1           0        6.457803    1.497866   -0.239736
    106          1           0        6.500524   -0.302260    0.527350
    107          1           0        7.232879   -1.231246   -1.254764
    108          1           0        7.703018    0.310950   -2.105816
    109          1           0        9.040631    0.846767    0.197445
    110          1           0        8.962875   -0.513542    0.866507
    111          1           0       10.352217    0.297907   -1.728454
    112          1           0        9.201580   -2.401837   -1.874156
    113          1           0       11.020597   -2.281053   -1.889037
    114          1           0        9.985007   -2.514564   -0.508801
    115          1           0       11.412971    0.728500    0.333949
    116          1           0       11.367751   -0.813136    0.816682
    117          1           0       12.821390   -1.703869   -0.746493
    118          1           0       12.916169   -0.072678   -1.743162
    119          1           0       13.826016    0.981345    0.259485
    120          1           0       13.894884   -0.607836    1.066857
    121          1           0       15.448216    0.211145   -1.505988
    122          1           0       15.551237   -2.467933    0.075264
    123          1           0       15.159177   -1.993695   -1.733941
    124          1           0       16.815881   -1.918057   -1.007545
    125          1           0       15.998236    1.345016    0.736653
    126          1           0       16.429114   -0.123906    1.440385
    127          1           0       18.026938   -0.390510   -0.438473
    128          1           0       17.831998    1.303651   -1.086727
    129          1           0       18.382785    2.330378    0.773897
    130          1           0       18.603437    0.959922    1.761648
    131          1           0       20.519173    0.351046    0.145095
    132          1           0       20.359855    3.289253   -0.683433
    133          1           0       21.428654    2.069464   -1.262429
    134          1           0       19.740452    1.830809   -1.798914
    135          1           0       20.892365    1.327604    2.269738
    136          1           0       22.108696    1.977918    1.202419
    137          1           0       20.897005    2.977297    1.454076
 ---------------------------------------------------------------------

 SCF Done:  E(RCAM-B3LYP) =  -2932.64816985     A.U. after   18 cycles

 Excitation energies and oscillator strengths:

 Excited State   1:      Singlet-A      1.9935 eV  621.94 nm  f=0.2714  <S**2>=0.000
     240 -> 243       -0.22732
     241 -> 242        0.66247
 This state for optimization and/or second-order correction.
 Total Energy, E(TD-HF/TD-KS) =  -2932.57490982
 Copying the excited state density for this state as the 1-particle RhoCI density.

 The electronic state is 1-A.
 Alpha  occ. eigenvalues --  -46.84155 -19.27209 -19.25790 -19.21965 -19.20715
 Alpha  occ. eigenvalues --  -19.20265 -14.40785 -14.40600 -14.39463 -14.38463
 Alpha  occ. eigenvalues --  -10.38993 -10.38355 -10.36725 -10.34154 -10.32988
 Alpha  occ. eigenvalues --  -10.30461 -10.30397 -10.30376 -10.30210 -10.30205
 Alpha  occ. eigenvalues --  -10.29542 -10.29043 -10.28874 -10.28478 -10.28406
 Alpha  occ. eigenvalues --  -10.28346 -10.28254 -10.27962 -10.27705 -10.27354
 Alpha  occ. eigenvalues --  -10.27238 -10.27118 -10.26985 -10.26826 -10.26800
 Alpha  occ. eigenvalues --  -10.26762 -10.26697 -10.26640 -10.26584 -10.26583
 Alpha  occ. eigenvalues --  -10.26518 -10.26496 -10.26467 -10.26450 -10.26421
 Alpha  occ. eigenvalues --  -10.26208 -10.26069 -10.26020 -10.26009 -10.25687
 Alpha  occ. eigenvalues --  -10.25244 -10.25238 -10.25215 -10.25201 -10.25089
 Alpha  occ. eigenvalues --  -10.25040 -10.25027 -10.24774 -10.24681 -10.24425
 Alpha  occ. eigenvalues --  -10.24101 -10.23643 -10.23621 -10.23406 -10.23014
 Alpha  occ. eigenvalues --   -3.13237  -1.87947  -1.87457  -1.87433  -1.19792
 Alpha  occ. eigenvalues --   -1.19643  -1.12667  -1.09979  -1.09333  -1.05362
 Alpha  occ. eigenvalues --   -1.03689  -1.03531  -1.01235  -0.92159  -0.91233
 Alpha  occ. eigenvalues --   -0.90758  -0.90038  -0.89554  -0.89032  -0.88523
 Alpha  occ. eigenvalues --   -0.87885  -0.87533  -0.87327  -0.86879  -0.85428
 Alpha  occ. eigenvalues --   -0.84984  -0.83913  -0.83763  -0.83023  -0.82309
 Alpha  occ. eigenvalues --   -0.81651  -0.81104  -0.80485  -0.80146  -0.78247
 Alpha  occ. eigenvalues --   -0.77370  -0.76325  -0.76260  -0.75915  -0.75708
 Alpha  occ. eigenvalues --   -0.75341  -0.75036  -0.74284  -0.72947  -0.72443
 Alpha  occ. eigenvalues --   -0.70518  -0.69578  -0.69212  -0.68418  -0.67952
 Alpha  occ. eigenvalues --   -0.66345  -0.66040  -0.64793  -0.64603  -0.64493
 Alpha  occ. eigenvalues --   -0.63594  -0.63468  -0.63210  -0.62476  -0.62390
 Alpha  occ. eigenvalues --   -0.62079  -0.60684  -0.59639  -0.59276  -0.58509
 Alpha  occ. eigenvalues --   -0.58334  -0.57722  -0.57611  -0.57138  -0.56460
 Alpha  occ. eigenvalues --   -0.56148  -0.55946  -0.55294  -0.55245  -0.54825
 Alpha  occ. eigenvalues --   -0.54687  -0.54053  -0.53991  -0.53444  -0.53160
 Alpha  occ. eigenvalues --   -0.52990  -0.52726  -0.52368  -0.52218  -0.51927
 Alpha  occ. eigenvalues --   -0.51893  -0.51589  -0.51307  -0.51192  -0.50921
 Alpha  occ. eigenvalues --   -0.50643  -0.50544  -0.50019  -0.49988  -0.49692
 Alpha  occ. eigenvalues --   -0.49094  -0.48953  -0.48696  -0.48575  -0.48316
 Alpha  occ. eigenvalues --   -0.48148  -0.47925  -0.47741  -0.47374  -0.47216
 Alpha  occ. eigenvalues --   -0.46931  -0.46866  -0.46469  -0.46325  -0.46047
 Alpha  occ. eigenvalues --   -0.45902  -0.45703  -0.45572  -0.45136  -0.44979
 Alpha  occ. eigenvalues --   -0.44776  -0.44643  -0.44601  -0.44400  -0.44086
 Alpha  occ. eigenvalues --   -0.43912  -0.43719  -0.43604  -0.43336  -0.43143
 Alpha  occ. eigenvalues --   -0.43029  -0.42813  -0.42732  -0.42541  -0.42161
 Alpha  occ. eigenvalues --   -0.41740  -0.41509  -0.41374  -0.41014  -0.40897
 Alpha  occ. eigenvalues --   -0.40812  -0.40654  -0.40290  -0.40283  -0.39840
 Alpha  occ. eigenvalues --   -0.39777  -0.39371  -0.39084  -0.38832  -0.38800
 Alpha  occ. eigenvalues --   -0.38711  -0.38649  -0.38337  -0.38062  -0.37669
 Alpha  occ. eigenvalues --   -0.37577  -0.37186  -0.37085  -0.36838  -0.36530
 Alpha  occ. eigenvalues --   -0.36446  -0.36047  -0.35648  -0.35336  -0.35113
 Alpha  occ. eigenvalues --   -0.35063  -0.34497  -0.34387  -0.33623  -0.33566
 Alpha  occ. eigenvalues --   -0.33170  -0.32528  -0.32411  -0.30923  -0.30698
 Alpha  occ. eigenvalues --   -0.30543  -0.29162  -0.27829  -0.27226  -0.23262
 Alpha  occ. eigenvalues --   -0.20760
 Alpha virt. eigenvalues --   -0.06344  -0.02899   0.01457   0.05211   0.05431
 Alpha virt. eigenvalues --    0.06048   0.06721   0.07215   0.07734   0.07902
 Alpha virt. eigenvalues --    0.08959   0.10436   0.10961   0.11224   0.11310

 Mulliken charges:
               1
     1  Mg   0.821242
     2  C    0.140676
     3  C   -0.195904
     4  C   -0.166709
     5  C   -0.091362
     6  N   -0.642969
     7  C    0.238093
     8  C   -0.141455
     9  C   -0.142340
    10  C    0.323613
    11  C   -0.287930
    12  C   -0.144787
    13  C   -0.275681
    14  C    0.603747
    15  O   -0.432185
    16  O   -0.476010
    17  N   -0.698690
    18  C    0.264341
    19  C    0.020026
    20  C   -0.045303
    21  C    0.352142
    22  C   -0.362279
    23  C   -0.036085
    24  C   -0.261581
    25  N   -0.675842
    26  C    0.335324
    27  C    0.015301
    28  C   -0.022585
    29  C    0.240080
    30  C   -0.378796
    31  C   -0.210967
    32  C   -0.299986
    33  N   -0.742230
    34  C    0.291990
    35  C   -0.056520
    36  C    0.028768
    37  C    0.248279
    38  C   -0.325591
    39  C    0.372807
    40  O   -0.436221
    41  C   -0.350950
    42  C    0.631307
    43  O   -0.491263
    44  O   -0.423691
    45  C   -0.092683
    46  C    0.028544
    47  C   -0.142845
    48  C    0.128384
    49  C   -0.370694
    50  C   -0.218475
    51  C   -0.172725
    52  C   -0.187423
    53  C   -0.050803
    54  C   -0.300691
    55  C   -0.179505
    56  C   -0.182183
    57  C   -0.160640
    58  C   -0.066145
    59  C   -0.324847
    60  C   -0.163995
    61  C   -0.183445
    62  C   -0.151361
    63  C   -0.057540
    64  C   -0.310880
    65  C   -0.307814
    66  H    0.083172
    67  H    0.093037
    68  H    0.074522
    69  H    0.126085
    70  H    0.091024
    71  H    0.104918
    72  H    0.088764
    73  H    0.119056
    74  H    0.104257
    75  H    0.111559
    76  H    0.134444
    77  H    0.113141
    78  H    0.106290
    79  H    0.112777
    80  H    0.122067
    81  H    0.078621
    82  H    0.108992
    83  H    0.104497
    84  H    0.126423
    85  H    0.102059
    86  H    0.104912
    87  H    0.110102
    88  H    0.108295
    89  H    0.102058
    90  H    0.118326
    91  H    0.076998
    92  H    0.141947
    93  H    0.149448
    94  H    0.098681
    95  H    0.158364
    96  H    0.135789
    97  H    0.130823
    98  H    0.142451
    99  H    0.149257
   100  H    0.094957
   101  H    0.075400
   102  H    0.106651
   103  H    0.122912
   104  H    0.109103
   105  H    0.096213
   106  H    0.096677
   107  H    0.108309
   108  H    0.081090
   109  H    0.101032
   110  H    0.077801
   111  H    0.075613
   112  H    0.064286
   113  H    0.108793
   114  H    0.112926
   115  H    0.092352
   116  H    0.086341
   117  H    0.081653
   118  H    0.081064
   119  H    0.092022
   120  H    0.094357
   121  H    0.086804
   122  H    0.097277
   123  H    0.094842
   124  H    0.100098
   125  H    0.098131
   126  H    0.098340
   127  H    0.079015
   128  H    0.064993
   129  H    0.079169
   130  H    0.089907
   131  H    0.089998
   132  H    0.071038
   133  H    0.112629
   134  H    0.100585
   135  H    0.106009
   136  H    0.085774
   137  H    0.108627
 Sum of Mulliken charges =   0.00000

 Dipole moment (field-independent basis, Debye):
    X=              1.3742    Y=              1.2961    Z=              0.4324  Tot=              1.9379
 Quadrupole moment (field-independent basis, Debye-Ang):
   XX=           -339.5569   YY=           -386.8569   ZZ=           -400.7829
   XY=             -4.3861   XZ=             16.7920   YZ=             -2.9147

 Normal termination of Gaussian 09 at Fri Jun 28 18:50:28 2019.
