 Gaussian 09, Revision D.01,
 Gaussian 09:  ES64L-G09RevD.01 24-Apr-2013

 -------------------------------------
 # td=(NStates=1) CAM-B3LYP/6-31G(d,p)
 -------------------------------------

 --
 TD
 --
 Symbolic Z-matrix:
 Charge =  0 Multiplicity = 1

                         Standard orientation:
 ---------------------------------------------------------------------
 Center     Atomic      Atomic             Coordinates (Angstroms)
 Number     Number       Type             X           Y           Z
 ---------------------------------------------------------------------
      1         12           0       -7.162798    0.639431   -0.007000
      2          6           0       -4.782538   -1.981677    0.338218
      3          6           0       -4.785980    2.781247    1.206169
      4          6           0       -9.322822    3.111823   -0.364442
      5          6           0       -9.479553   -1.722983   -0.900079
      6          7           0       -5.084619    0.380589    0.702926
      7          6           0       -4.364545   -0.742071    0.813806
      8          6           0       -2.914046   -0.395815    1.143904
      9          6           0       -2.970175    1.047873    1.643188
     10          6           0       -4.373254    1.411804    1.153665
     11          6           0       -3.031526    1.119969    3.191341
     12          6           0       -1.861881   -0.577954    0.012866
     13          6           0       -0.478259   -0.247645    0.464136
     14          6           0        0.520164   -0.574985   -0.584998
     15          8           0        0.211932   -1.004079   -1.774752
     16          8           0        1.807562   -0.465539   -0.262899
     17          7           0       -7.058198    2.569157    0.435199
     18          6           0       -6.083502    3.296891    0.909791
     19          6           0       -6.533630    4.722673    1.013105
     20          6           0       -7.676400    4.850143    0.599084
     21          6           0       -8.164115    3.397682    0.161506
     22          6           0       -5.543261    5.797878    1.454350
     23          6           0       -8.574368    6.032339    0.402710
     24          6           0       -8.069806    7.294987    0.111600
     25          7           0       -9.141051    0.711401   -0.683498
     26          6           0       -9.903087    1.822917   -0.714507
     27          6           0      -11.182491    1.553942   -1.078510
     28          6           0      -11.249517    0.060138   -1.109682
     29          6           0       -9.979035   -0.377182   -0.934220
     30          6           0      -12.303757    2.440871   -1.457734
     31          6           0      -12.375736   -0.804939   -1.668938
     32          6           0      -12.366498   -0.918432   -3.200605
     33          7           0       -7.213659   -1.382618   -0.194786
     34          6           0       -8.314655   -2.204257   -0.502560
     35          6           0       -7.807224   -3.570706   -0.417582
     36          6           0       -6.548120   -3.551406   -0.067949
     37          6           0       -6.209048   -2.193177    0.017519
     38          6           0       -8.619084   -4.807927   -0.697320
     39          6           0       -5.319348   -4.397055    0.162915
     40          8           0       -5.209501   -5.619491    0.203741
     41          6           0       -4.133224   -3.403313    0.417969
     42          6           0       -3.480973   -3.719513    1.745960
     43          8           0       -3.716152   -3.032023    2.722206
     44          8           0       -2.655226   -4.840233    1.678998
     45          6           0       -2.109151   -5.343352    2.946426
     46          6           0        2.811771   -0.656192   -1.263609
     47          6           0        4.076475   -0.382958   -0.479015
     48          6           0        5.080500    0.453136   -0.745863
     49          6           0        5.023383    1.323595   -1.998073
     50          6           0        6.419176    0.514615   -0.043614
     51          6           0        7.595002   -0.016968   -0.860487
     52          6           0        8.843754   -0.080448   -0.039806
     53          6           0       10.144599   -0.545483   -0.855820
     54          6           0       10.107421   -1.970279   -1.380035
     55          6           0       11.476835   -0.330397    0.100779
     56          6           0       12.825912   -0.490458   -0.702918
     57          6           0       13.917904   -0.069111    0.249089
     58          6           0       15.361126   -0.066818   -0.516638
     59          6           0       15.515645   -1.613034   -1.009439
     60          6           0       16.536377    0.329600    0.469777
     61          6           0       17.819720    0.464021   -0.207539
     62          6           0       18.799412    1.153059    0.805556
     63          6           0       20.192775    1.308816    0.144216
     64          6           0       20.249940    2.109030   -1.146694
     65          6           0       21.162065    1.870531    1.178340
     66          1           0       -3.995732    3.608313    1.433081
     67          1           0      -10.144332    3.924553   -0.243038
     68          1           0      -10.232445   -2.515014   -0.912155
     69          1           0       -2.733616   -1.201856    1.875223
     70          1           0       -2.173208    1.523722    1.152673
     71          1           0       -2.083586    0.862863    3.708784
     72          1           0       -3.437572    2.147514    3.586906
     73          1           0       -3.859482    0.373669    3.468590
     74          1           0       -2.055772   -1.550729   -0.565670
     75          1           0       -2.256680    0.041896   -0.794957
     76          1           0       -0.047786    0.691507    0.883917
     77          1           0       -0.022819   -0.973116    1.331900
     78          1           0       -4.659815    5.954632    0.537878
     79          1           0       -6.098087    6.844201    1.563919
     80          1           0       -4.985899    5.455068    2.390414
     81          1           0       -9.699313    5.829277    0.161370
     82          1           0       -8.692769    8.188027    0.134681
     83          1           0       -7.009375    7.260226    0.163626
     84          1           0      -11.896230    3.191732   -2.143906
     85          1           0      -13.239057    1.914142   -1.779928
     86          1           0      -12.441214    2.774661   -0.420058
     87          1           0      -12.595413   -1.743548   -1.208537
     88          1           0      -13.301668   -0.155628   -1.368625
     89          1           0      -13.306222   -1.439287   -3.565207
     90          1           0      -12.606170    0.070965   -3.518016
     91          1           0      -11.386580   -1.423580   -3.636782
     92          1           0       -8.983827   -4.760947   -1.775364
     93          1           0       -8.044353   -5.876135   -0.651777
     94          1           0       -9.586126   -5.039835   -0.335281
     95          1           0       -3.655333   -3.557399   -0.611926
     96          1           0       -1.687892   -4.447419    3.465338
     97          1           0       -2.831278   -5.946877    3.370490
     98          1           0       -1.123388   -6.121704    2.863674
     99          1           0        2.789563   -1.665521   -1.647911
    100          1           0        2.593192    0.144036   -1.959647
    101          1           0        4.168227   -0.853263    0.422824
    102          1           0        4.055327    1.668877   -2.261714
    103          1           0        5.790364    2.041543   -2.095494
    104          1           0        5.390400    0.732929   -2.976819
    105          1           0        6.723984    1.508190   -0.017622
    106          1           0        6.308109   -0.039330    0.921834
    107          1           0        7.351344   -1.102855   -1.283006
    108          1           0        7.958393    0.735611   -1.673894
    109          1           0        9.012481    0.869768    0.408604
    110          1           0        8.722563   -1.054631    0.794188
    111          1           0       10.150649    0.175897   -1.784257
    112          1           0        9.160086   -2.175387   -2.009924
    113          1           0       11.059673   -1.920665   -2.029900
    114          1           0       10.253492   -2.963544   -0.633083
    115          1           0       11.559996    0.633553    0.535240
    116          1           0       11.184243   -1.014735    0.995520
    117          1           0       12.800163   -1.560091   -1.151455
    118          1           0       12.781342    0.245789   -1.542998
    119          1           0       13.806227    0.889636    0.730854
    120          1           0       13.883997   -0.785194    1.067059
    121          1           0       15.420834    0.667515   -1.380951
    122          1           0       15.423120   -2.402458   -0.037800
    123          1           0       14.689761   -1.875476   -1.773610
    124          1           0       16.657438   -1.669829   -1.221470
    125          1           0       16.189840    1.276840    0.670450
    126          1           0       16.434644   -0.114390    1.308172
    127          1           0       18.108961   -0.517541   -0.421016
    128          1           0       17.897208    1.028597   -1.043955
    129          1           0       18.541846    2.221885    1.147214
    130          1           0       18.764150    0.566603    1.794073
    131          1           0       20.600043    0.342250   -0.045970
    132          1           0       19.861327    3.197785   -0.995223
    133          1           0       21.320553    2.221784   -1.475735
    134          1           0       19.679663    1.772617   -1.931431
    135          1           0       21.145608    1.284273    2.139619
    136          1           0       22.195136    1.823637    0.776376
    137          1           0       20.950341    2.751158    1.392542
 ---------------------------------------------------------------------

 SCF Done:  E(RCAM-B3LYP) =  -2932.64250116     A.U. after   15 cycles

 Excitation energies and oscillator strengths:

 Excited State   1:      Singlet-A      2.4722 eV  501.51 nm  f=0.0897  <S**2>=0.000
     240 -> 242       -0.18737
     240 -> 243       -0.31930
     241 -> 242        0.55595
     241 -> 243       -0.18010
 This state for optimization and/or second-order correction.
 Total Energy, E(TD-HF/TD-KS) =  -2932.55164966
 Copying the excited state density for this state as the 1-particle RhoCI density.

 The electronic state is 1-A.
 Alpha  occ. eigenvalues --  -46.84332 -19.26789 -19.26434 -19.22334 -19.21623
 Alpha  occ. eigenvalues --  -19.19165 -14.41212 -14.40023 -14.39489 -14.36833
 Alpha  occ. eigenvalues --  -10.41064 -10.39270 -10.36690 -10.33035 -10.32132
 Alpha  occ. eigenvalues --  -10.31716 -10.31033 -10.30619 -10.30115 -10.30036
 Alpha  occ. eigenvalues --  -10.29476 -10.29311 -10.29286 -10.28992 -10.28887
 Alpha  occ. eigenvalues --  -10.28346 -10.27835 -10.27597 -10.27491 -10.27273
 Alpha  occ. eigenvalues --  -10.27264 -10.27186 -10.27163 -10.27006 -10.26971
 Alpha  occ. eigenvalues --  -10.26947 -10.26933 -10.26856 -10.26850 -10.26839
 Alpha  occ. eigenvalues --  -10.26672 -10.26561 -10.26472 -10.26353 -10.26342
 Alpha  occ. eigenvalues --  -10.26298 -10.26171 -10.26055 -10.26026 -10.26012
 Alpha  occ. eigenvalues --  -10.25868 -10.25729 -10.25648 -10.25175 -10.25164
 Alpha  occ. eigenvalues --  -10.25153 -10.25131 -10.25073 -10.24905 -10.24823
 Alpha  occ. eigenvalues --  -10.24209 -10.24118 -10.23432 -10.22574 -10.22188
 Alpha  occ. eigenvalues --   -3.13335  -1.88049  -1.87574  -1.87503  -1.18078
 Alpha  occ. eigenvalues --   -1.17034  -1.11381  -1.09800  -1.05769  -1.04909
 Alpha  occ. eigenvalues --   -1.04611  -1.04292  -1.01293  -0.91991  -0.91467
 Alpha  occ. eigenvalues --   -0.90657  -0.90573  -0.90447  -0.88888  -0.88769
 Alpha  occ. eigenvalues --   -0.87991  -0.87854  -0.87158  -0.86627  -0.86255
 Alpha  occ. eigenvalues --   -0.85686  -0.84521  -0.83512  -0.83368  -0.82622
 Alpha  occ. eigenvalues --   -0.81344  -0.80698  -0.80083  -0.79253  -0.78075
 Alpha  occ. eigenvalues --   -0.77266  -0.76940  -0.76570  -0.76109  -0.75902
 Alpha  occ. eigenvalues --   -0.74471  -0.74360  -0.73837  -0.72901  -0.72223
 Alpha  occ. eigenvalues --   -0.71472  -0.70614  -0.69327  -0.68236  -0.68020
 Alpha  occ. eigenvalues --   -0.67054  -0.66946  -0.65987  -0.64718  -0.64235
 Alpha  occ. eigenvalues --   -0.64006  -0.63698  -0.63277  -0.62552  -0.61945
 Alpha  occ. eigenvalues --   -0.61146  -0.60909  -0.60445  -0.59924  -0.59459
 Alpha  occ. eigenvalues --   -0.59089  -0.58693  -0.57667  -0.57204  -0.56763
 Alpha  occ. eigenvalues --   -0.55870  -0.55727  -0.55494  -0.55075  -0.54812
 Alpha  occ. eigenvalues --   -0.54694  -0.54006  -0.53868  -0.53740  -0.53410
 Alpha  occ. eigenvalues --   -0.53209  -0.52690  -0.52442  -0.52002  -0.51620
 Alpha  occ. eigenvalues --   -0.51404  -0.51059  -0.50666  -0.50460  -0.50325
 Alpha  occ. eigenvalues --   -0.50254  -0.50114  -0.49948  -0.49777  -0.49722
 Alpha  occ. eigenvalues --   -0.49187  -0.48774  -0.48606  -0.48240  -0.47823
 Alpha  occ. eigenvalues --   -0.47683  -0.47634  -0.47420  -0.47090  -0.46809
 Alpha  occ. eigenvalues --   -0.46772  -0.46553  -0.46428  -0.46185  -0.45697
 Alpha  occ. eigenvalues --   -0.45646  -0.45341  -0.45114  -0.44880  -0.44575
 Alpha  occ. eigenvalues --   -0.44559  -0.44368  -0.44300  -0.44269  -0.43976
 Alpha  occ. eigenvalues --   -0.43849  -0.43718  -0.43546  -0.43292  -0.43062
 Alpha  occ. eigenvalues --   -0.42775  -0.42645  -0.42378  -0.42192  -0.41922
 Alpha  occ. eigenvalues --   -0.41822  -0.41678  -0.41565  -0.41507  -0.41236
 Alpha  occ. eigenvalues --   -0.40843  -0.40591  -0.40428  -0.40198  -0.40073
 Alpha  occ. eigenvalues --   -0.39847  -0.39811  -0.39281  -0.39153  -0.39104
 Alpha  occ. eigenvalues --   -0.38621  -0.38450  -0.38384  -0.38267  -0.38011
 Alpha  occ. eigenvalues --   -0.37796  -0.37440  -0.37237  -0.37120  -0.37066
 Alpha  occ. eigenvalues --   -0.36761  -0.36113  -0.36008  -0.35563  -0.35123
 Alpha  occ. eigenvalues --   -0.34914  -0.34794  -0.34733  -0.33568  -0.33151
 Alpha  occ. eigenvalues --   -0.32603  -0.32119  -0.31756  -0.31451  -0.30923
 Alpha  occ. eigenvalues --   -0.30040  -0.29503  -0.29263  -0.24996  -0.23148
 Alpha  occ. eigenvalues --   -0.21905
 Alpha virt. eigenvalues --   -0.04624  -0.03069   0.01526   0.03398   0.05135
 Alpha virt. eigenvalues --    0.05405   0.05682   0.06357   0.07104   0.07517
 Alpha virt. eigenvalues --    0.08869   0.11053   0.11160   0.11192   0.12183

 Mulliken charges:
               1
     1  Mg   0.825799
     2  C   -0.014176
     3  C   -0.243736
     4  C   -0.196838
     5  C   -0.163352
     6  N   -0.606131
     7  C    0.305931
     8  C   -0.170681
     9  C   -0.128837
    10  C    0.339217
    11  C   -0.299446
    12  C   -0.183304
    13  C   -0.255863
    14  C    0.597129
    15  O   -0.533625
    16  O   -0.472202
    17  N   -0.724864
    18  C    0.356603
    19  C    0.015703
    20  C    0.058741
    21  C    0.302573
    22  C   -0.362463
    23  C   -0.084450
    24  C   -0.237628
    25  N   -0.706469
    26  C    0.314233
    27  C   -0.037925
    28  C   -0.022573
    29  C    0.283059
    30  C   -0.358288
    31  C   -0.241835
    32  C   -0.286193
    33  N   -0.723527
    34  C    0.285088
    35  C    0.014439
    36  C    0.053592
    37  C    0.307025
    38  C   -0.409205
    39  C    0.368301
    40  O   -0.449485
    41  C   -0.290076
    42  C    0.648640
    43  O   -0.458485
    44  O   -0.477944
    45  C   -0.077092
    46  C    0.039220
    47  C   -0.145731
    48  C    0.131726
    49  C   -0.375950
    50  C   -0.211857
    51  C   -0.170853
    52  C   -0.145030
    53  C   -0.069189
    54  C   -0.287328
    55  C   -0.178170
    56  C   -0.182643
    57  C   -0.180306
    58  C   -0.079921
    59  C   -0.295670
    60  C   -0.166801
    61  C   -0.170415
    62  C   -0.178514
    63  C   -0.061411
    64  C   -0.312694
    65  C   -0.301199
    66  H    0.080252
    67  H    0.082109
    68  H    0.094288
    69  H    0.123202
    70  H    0.107161
    71  H    0.108520
    72  H    0.100838
    73  H    0.123717
    74  H    0.134854
    75  H    0.126309
    76  H    0.154208
    77  H    0.128735
    78  H    0.091336
    79  H    0.109842
    80  H    0.119708
    81  H    0.094903
    82  H    0.118751
    83  H    0.105465
    84  H    0.123979
    85  H    0.110471
    86  H    0.127543
    87  H    0.102553
    88  H    0.076471
    89  H    0.088136
    90  H    0.116132
    91  H    0.100236
    92  H    0.117240
    93  H    0.132872
    94  H    0.137958
    95  H    0.178848
    96  H    0.136798
    97  H    0.152092
    98  H    0.100124
    99  H    0.143709
   100  H    0.125191
   101  H    0.083234
   102  H    0.120441
   103  H    0.112594
   104  H    0.096434
   105  H    0.107914
   106  H    0.099597
   107  H    0.087202
   108  H    0.081104
   109  H    0.095583
   110  H    0.044511
   111  H    0.066724
   112  H    0.100484
   113  H    0.099445
   114  H    0.080084
   115  H    0.093673
   116  H    0.085738
   117  H    0.099598
   118  H    0.095926
   119  H    0.091132
   120  H    0.099862
   121  H    0.076982
   122  H    0.066824
   123  H    0.106043
   124  H    0.087439
   125  H    0.095641
   126  H    0.096004
   127  H    0.103484
   128  H    0.101563
   129  H    0.077971
   130  H    0.080983
   131  H    0.092769
   132  H    0.081471
   133  H    0.099811
   134  H    0.114600
   135  H    0.087521
   136  H    0.086593
   137  H    0.111827
 Sum of Mulliken charges =   0.00000

 Dipole moment (field-independent basis, Debye):
    X=              3.8371    Y=              3.7877    Z=              1.6114  Tot=              5.6273
 Quadrupole moment (field-independent basis, Debye-Ang):
   XX=           -366.6707   YY=           -386.2161   ZZ=           -400.1555
   XY=             -5.8868   XZ=              3.1607   YZ=             -5.9147

 Normal termination of Gaussian 09 at Sun Jun 30 18:44:35 2019.
