 Gaussian 09, Revision D.01,
 Gaussian 09:  ES64L-G09RevD.01 24-Apr-2013

 -------------------------------------
 # td=(NStates=1) CAM-B3LYP/6-31G(d,p)
 -------------------------------------

 --
 TD
 --
 Symbolic Z-matrix:
 Charge =  0 Multiplicity = 1

                         Standard orientation:
 ---------------------------------------------------------------------
 Center     Atomic      Atomic             Coordinates (Angstroms)
 Number     Number       Type             X           Y           Z
 ---------------------------------------------------------------------
      1         12           0       -7.217192    0.572279    0.161799
      2          6           0       -4.778903   -1.865432    0.473419
      3          6           0       -4.775770    2.812136    1.252298
      4          6           0       -9.503257    3.056595   -0.220246
      5          6           0       -9.553339   -1.756120   -0.790347
      6          7           0       -5.074558    0.436230    0.691563
      7          6           0       -4.302127   -0.669685    0.864350
      8          6           0       -2.813736   -0.308699    1.198345
      9          6           0       -3.076713    1.050665    1.722663
     10          6           0       -4.424320    1.483638    1.214694
     11          6           0       -2.964586    1.280986    3.293516
     12          6           0       -1.951138   -0.457676    0.052673
     13          6           0       -0.436254   -0.351886    0.508640
     14          6           0        0.443983   -0.604213   -0.621801
     15          8           0        0.266162   -0.935587   -1.785657
     16          8           0        1.750742   -0.470449   -0.191980
     17          7           0       -7.064210    2.583464    0.363627
     18          6           0       -6.085125    3.341447    0.831854
     19          6           0       -6.466315    4.728535    0.873512
     20          6           0       -7.788932    4.815579    0.377221
     21          6           0       -8.257534    3.361872    0.152335
     22          6           0       -5.591363    5.852053    1.455772
     23          6           0       -8.629412    6.036465    0.093376
     24          6           0       -8.309398    7.264453    0.013436
     25          7           0       -9.154226    0.614734   -0.482057
     26          6           0       -9.940306    1.778385   -0.575606
     27          6           0      -11.168234    1.326691   -1.082064
     28          6           0      -11.291619   -0.010840   -1.152615
     29          6           0       -9.984185   -0.428153   -0.833459
     30          6           0      -12.371902    2.413632   -1.421575
     31          6           0      -12.322734   -0.830017   -1.668198
     32          6           0      -12.226994   -0.980854   -3.237581
     33          7           0       -7.218970   -1.372832   -0.115411
     34          6           0       -8.250155   -2.264115   -0.488955
     35          6           0       -7.759147   -3.649077   -0.436701
     36          6           0       -6.385072   -3.616731   -0.129359
     37          6           0       -6.069042   -2.199891    0.146838
     38          6           0       -8.582583   -4.733549   -0.729950
     39          6           0       -5.164772   -4.403165    0.185972
     40          8           0       -5.013975   -5.574480    0.149895
     41          6           0       -4.104852   -3.261748    0.517041
     42          6           0       -3.482347   -3.677178    1.863065
     43          8           0       -3.700805   -3.194978    2.921950
     44          8           0       -2.708354   -4.769362    1.638924
     45          6           0       -2.194424   -5.213772    2.787688
     46          6           0        2.736332   -0.700161   -1.208612
     47          6           0        4.195118   -0.486666   -0.632091
     48          6           0        5.133312    0.257359   -1.148107
     49          6           0        5.014871    1.076961   -2.433589
     50          6           0        6.538438    0.309706   -0.437666
     51          6           0        7.725118   -0.196961   -1.103729
     52          6           0        8.919017   -0.075602   -0.248951
     53          6           0       10.178979   -0.506298   -0.929472
     54          6           0       10.181080   -1.934726   -1.316977
     55          6           0       11.481157   -0.346070   -0.021963
     56          6           0       12.765045   -0.397289   -0.771120
     57          6           0       13.919228   -0.157396    0.145283
     58          6           0       15.359704   -0.142904   -0.481211
     59          6           0       15.633477   -1.573328   -0.945919
     60          6           0       16.389224    0.522339    0.511208
     61          6           0       17.761938    0.547154    0.012922
     62          6           0       18.762754    1.352727    0.846535
     63          6           0       20.250033    1.363280    0.288902
     64          6           0       20.338495    2.064085   -1.030893
     65          6           0       21.047254    1.898819    1.469333
     66          1           0       -3.978601    3.547854    1.647637
     67          1           0      -10.154265    3.830028   -0.358311
     68          1           0      -10.331359   -2.311296   -1.062504
     69          1           0       -2.618008   -0.960051    2.170035
     70          1           0       -2.275395    1.794355    1.330467
     71          1           0       -2.011883    1.242522    3.820721
     72          1           0       -3.300369    2.286326    3.293675
     73          1           0       -3.795906    0.650357    3.779624
     74          1           0       -2.206283   -1.482766   -0.464184
     75          1           0       -2.084074    0.267917   -0.664778
     76          1           0       -0.197393    0.578135    0.905087
     77          1           0       -0.307653   -0.928261    1.359465
     78          1           0       -4.950073    6.290538    0.818622
     79          1           0       -6.340996    6.695743    1.746813
     80          1           0       -5.069591    5.636875    2.401929
     81          1           0       -9.713136    5.649981   -0.032375
     82          1           0       -9.031956    7.957740   -0.135302
     83          1           0       -7.334173    7.619605    0.128211
     84          1           0      -11.929175    3.126257   -2.195823
     85          1           0      -13.302462    2.052905   -1.998811
     86          1           0      -12.781267    3.001655   -0.565785
     87          1           0      -12.360450   -1.807228   -1.304573
     88          1           0      -13.303832   -0.308441   -1.365686
     89          1           0      -13.190705   -1.413741   -3.667666
     90          1           0      -12.193085    0.081320   -3.685810
     91          1           0      -11.375539   -1.548235   -3.435463
     92          1           0       -9.105447   -4.672719   -1.722060
     93          1           0       -8.062717   -5.747304   -0.575817
     94          1           0       -9.369941   -4.687213    0.074197
     95          1           0       -3.419704   -3.194750   -0.219085
     96          1           0       -1.573220   -4.281046    3.230386
     97          1           0       -2.827461   -5.328335    3.905148
     98          1           0       -1.547592   -6.271867    2.737766
     99          1           0        2.498795   -1.688248   -1.779599
    100          1           0        2.544181   -0.091944   -2.022780
    101          1           0        4.350092   -0.939579    0.298639
    102          1           0        4.005943    1.379056   -2.752649
    103          1           0        5.688231    2.027829   -2.244879
    104          1           0        5.758461    0.398938   -3.098565
    105          1           0        6.683926    1.426504   -0.317051
    106          1           0        6.455623   -0.193673    0.555162
    107          1           0        7.479794   -1.276379   -1.377524
    108          1           0        7.876996    0.280839   -2.187260
    109          1           0        9.033340    0.851297    0.310774
    110          1           0        8.717727   -0.743039    0.516251
    111          1           0       10.348138   -0.009191   -1.868653
    112          1           0        9.321969   -2.149560   -1.931725
    113          1           0       10.937467   -2.177267   -1.885096
    114          1           0        9.953260   -2.708018   -0.606576
    115          1           0       11.431178    0.744080    0.208787
    116          1           0       11.340485   -0.934744    0.955814
    117          1           0       12.752301   -1.592305   -1.050596
    118          1           0       12.826226    0.115616   -1.594096
    119          1           0       13.734615    0.720304    0.714660
    120          1           0       13.783393   -0.913690    1.006892
    121          1           0       15.234302    0.522103   -1.304272
    122          1           0       15.504335   -2.003141    0.101609
    123          1           0       14.686677   -1.777010   -1.614456
    124          1           0       16.636464   -1.688265   -1.167591
    125          1           0       16.063186    1.490896    0.654181
    126          1           0       16.403648   -0.064199    1.519392
    127          1           0       17.977711   -0.408216   -0.344260
    128          1           0       17.567993    0.907038   -0.972850
    129          1           0       18.329167    2.422902    0.871204
    130          1           0       18.838466    1.027129    1.730146
    131          1           0       20.775715    0.412522    0.189495
    132          1           0       19.849821    3.156885   -1.014801
    133          1           0       21.416230    2.353887   -1.342363
    134          1           0       19.887163    1.569928   -1.961235
    135          1           0       21.191091    1.137391    2.433352
    136          1           0       22.217843    1.901015    1.239113
    137          1           0       20.773855    2.833610    1.902167
 ---------------------------------------------------------------------

 SCF Done:  E(RCAM-B3LYP) =  -2932.66741576     A.U. after   18 cycles

 Excitation energies and oscillator strengths:

 Excited State   1:      Singlet-A      2.0824 eV  595.40 nm  f=0.2459  <S**2>=0.000
     240 -> 243       -0.25471
     241 -> 242        0.64592
 This state for optimization and/or second-order correction.
 Total Energy, E(TD-HF/TD-KS) =  -2932.59089047
 Copying the excited state density for this state as the 1-particle RhoCI density.

 The electronic state is 1-A.
 Alpha  occ. eigenvalues --  -46.83615 -19.27716 -19.25117 -19.22379 -19.21369
 Alpha  occ. eigenvalues --  -19.21335 -14.41297 -14.40210 -14.39400 -14.38838
 Alpha  occ. eigenvalues --  -10.39839 -10.39305 -10.35884 -10.33757 -10.30937
 Alpha  occ. eigenvalues --  -10.30877 -10.30477 -10.30403 -10.30397 -10.29668
 Alpha  occ. eigenvalues --  -10.29573 -10.28700 -10.28533 -10.28533 -10.27986
 Alpha  occ. eigenvalues --  -10.27942 -10.27841 -10.27793 -10.27770 -10.27738
 Alpha  occ. eigenvalues --  -10.27581 -10.27388 -10.27305 -10.27250 -10.27077
 Alpha  occ. eigenvalues --  -10.26981 -10.26974 -10.26605 -10.26464 -10.26442
 Alpha  occ. eigenvalues --  -10.26437 -10.26336 -10.26279 -10.26243 -10.26231
 Alpha  occ. eigenvalues --  -10.26188 -10.26158 -10.26131 -10.26107 -10.26019
 Alpha  occ. eigenvalues --  -10.25979 -10.25364 -10.25288 -10.25195 -10.24993
 Alpha  occ. eigenvalues --  -10.24891 -10.24716 -10.24705 -10.24495 -10.24452
 Alpha  occ. eigenvalues --  -10.24311 -10.24163 -10.24131 -10.22985 -10.21848
 Alpha  occ. eigenvalues --   -3.12761  -1.87456  -1.87019  -1.86933  -1.21628
 Alpha  occ. eigenvalues --   -1.17398  -1.13671  -1.12493  -1.08099  -1.05150
 Alpha  occ. eigenvalues --   -1.03220  -1.02455  -1.00571  -0.92774  -0.92328
 Alpha  occ. eigenvalues --   -0.91774  -0.90870  -0.90328  -0.89773  -0.89181
 Alpha  occ. eigenvalues --   -0.88543  -0.88328  -0.88111  -0.87326  -0.86622
 Alpha  occ. eigenvalues --   -0.86082  -0.85087  -0.84230  -0.84036  -0.82332
 Alpha  occ. eigenvalues --   -0.81554  -0.81275  -0.80894  -0.80454  -0.78445
 Alpha  occ. eigenvalues --   -0.77872  -0.76645  -0.76424  -0.75473  -0.75388
 Alpha  occ. eigenvalues --   -0.74794  -0.74624  -0.74464  -0.73868  -0.72500
 Alpha  occ. eigenvalues --   -0.71967  -0.71405  -0.70208  -0.69424  -0.68390
 Alpha  occ. eigenvalues --   -0.67496  -0.66409  -0.65994  -0.64989  -0.64841
 Alpha  occ. eigenvalues --   -0.64503  -0.64027  -0.63661  -0.63442  -0.62799
 Alpha  occ. eigenvalues --   -0.62357  -0.60818  -0.60700  -0.59975  -0.59415
 Alpha  occ. eigenvalues --   -0.59069  -0.58474  -0.58119  -0.57585  -0.57152
 Alpha  occ. eigenvalues --   -0.56419  -0.55814  -0.55672  -0.55450  -0.55293
 Alpha  occ. eigenvalues --   -0.54922  -0.54534  -0.54333  -0.54248  -0.53524
 Alpha  occ. eigenvalues --   -0.53313  -0.53176  -0.52768  -0.52499  -0.52207
 Alpha  occ. eigenvalues --   -0.51959  -0.51738  -0.51567  -0.51456  -0.51210
 Alpha  occ. eigenvalues --   -0.50907  -0.50371  -0.50323  -0.50195  -0.49963
 Alpha  occ. eigenvalues --   -0.49592  -0.49566  -0.49213  -0.49152  -0.48543
 Alpha  occ. eigenvalues --   -0.48433  -0.48332  -0.48127  -0.47917  -0.47478
 Alpha  occ. eigenvalues --   -0.47300  -0.46861  -0.46480  -0.46074  -0.45964
 Alpha  occ. eigenvalues --   -0.45746  -0.45579  -0.45306  -0.45210  -0.45150
 Alpha  occ. eigenvalues --   -0.45030  -0.44918  -0.44763  -0.44473  -0.44337
 Alpha  occ. eigenvalues --   -0.44231  -0.43867  -0.43731  -0.43446  -0.43408
 Alpha  occ. eigenvalues --   -0.43195  -0.42786  -0.42672  -0.42595  -0.42176
 Alpha  occ. eigenvalues --   -0.42039  -0.41901  -0.41878  -0.41748  -0.41310
 Alpha  occ. eigenvalues --   -0.41294  -0.40841  -0.40700  -0.40503  -0.40399
 Alpha  occ. eigenvalues --   -0.40072  -0.39671  -0.39637  -0.39491  -0.39300
 Alpha  occ. eigenvalues --   -0.38802  -0.38671  -0.38572  -0.38250  -0.37904
 Alpha  occ. eigenvalues --   -0.37809  -0.37233  -0.37089  -0.36974  -0.36867
 Alpha  occ. eigenvalues --   -0.36571  -0.36518  -0.35793  -0.35776  -0.35164
 Alpha  occ. eigenvalues --   -0.35075  -0.34716  -0.34251  -0.34112  -0.33801
 Alpha  occ. eigenvalues --   -0.33438  -0.33214  -0.32658  -0.31372  -0.30666
 Alpha  occ. eigenvalues --   -0.29784  -0.29070  -0.28359  -0.27903  -0.23663
 Alpha  occ. eigenvalues --   -0.21407
 Alpha virt. eigenvalues --   -0.06448  -0.03505   0.01255   0.04660   0.05635
 Alpha virt. eigenvalues --    0.06074   0.06261   0.07083   0.07730   0.08065
 Alpha virt. eigenvalues --    0.08399   0.10631   0.11375   0.11789   0.11974

 Mulliken charges:
               1
     1  Mg   0.818430
     2  C    0.029496
     3  C   -0.223673
     4  C   -0.137274
     5  C   -0.136143
     6  N   -0.624938
     7  C    0.262012
     8  C   -0.130017
     9  C   -0.187767
    10  C    0.411336
    11  C   -0.305009
    12  C   -0.162462
    13  C   -0.277310
    14  C    0.625784
    15  O   -0.487489
    16  O   -0.497261
    17  N   -0.725464
    18  C    0.343471
    19  C   -0.016788
    20  C   -0.017515
    21  C    0.305268
    22  C   -0.375841
    23  C   -0.025843
    24  C   -0.246575
    25  N   -0.722710
    26  C    0.305661
    27  C   -0.025752
    28  C    0.097192
    29  C    0.266360
    30  C   -0.382364
    31  C   -0.267867
    32  C   -0.300147
    33  N   -0.720563
    34  C    0.294408
    35  C    0.052143
    36  C   -0.001910
    37  C    0.240985
    38  C   -0.410018
    39  C    0.385974
    40  O   -0.422141
    41  C   -0.318156
    42  C    0.613511
    43  O   -0.445624
    44  O   -0.382934
    45  C   -0.084936
    46  C    0.020049
    47  C   -0.146755
    48  C    0.119804
    49  C   -0.349936
    50  C   -0.218232
    51  C   -0.166906
    52  C   -0.159233
    53  C   -0.068447
    54  C   -0.314884
    55  C   -0.181172
    56  C   -0.157112
    57  C   -0.178248
    58  C   -0.094569
    59  C   -0.290268
    60  C   -0.162961
    61  C   -0.188897
    62  C   -0.144441
    63  C   -0.039238
    64  C   -0.299768
    65  C   -0.317910
    66  H    0.091054
    67  H    0.089698
    68  H    0.056219
    69  H    0.122230
    70  H    0.087331
    71  H    0.114055
    72  H    0.111840
    73  H    0.113972
    74  H    0.112927
    75  H    0.133599
    76  H    0.152350
    77  H    0.156673
    78  H    0.137623
    79  H    0.106102
    80  H    0.120506
    81  H    0.077281
    82  H    0.105219
    83  H    0.104939
    84  H    0.109702
    85  H    0.103201
    86  H    0.117783
    87  H    0.113376
    88  H    0.099300
    89  H    0.098670
    90  H    0.105587
    91  H    0.120355
    92  H    0.130790
    93  H    0.138119
    94  H    0.129169
    95  H    0.164536
    96  H    0.085075
    97  H    0.095273
    98  H    0.108445
    99  H    0.113857
   100  H    0.113347
   101  H    0.085229
   102  H    0.128875
   103  H    0.098978
   104  H    0.116346
   105  H    0.090448
   106  H    0.095072
   107  H    0.098360
   108  H    0.068264
   109  H    0.093161
   110  H    0.102577
   111  H    0.084248
   112  H    0.088357
   113  H    0.111391
   114  H    0.097644
   115  H    0.075814
   116  H    0.091195
   117  H    0.068342
   118  H    0.101767
   119  H    0.088027
   120  H    0.074732
   121  H    0.081239
   122  H    0.096098
   123  H    0.105309
   124  H    0.104352
   125  H    0.094958
   126  H    0.064180
   127  H    0.089018
   128  H    0.088128
   129  H    0.082822
   130  H    0.103827
   131  H    0.099656
   132  H    0.078067
   133  H    0.089544
   134  H    0.107406
   135  H    0.077080
   136  H    0.075689
   137  H    0.113180
 Sum of Mulliken charges =   0.00000

 Dipole moment (field-independent basis, Debye):
    X=             -0.0491    Y=              4.9674    Z=              0.6995  Tot=              5.0166
 Quadrupole moment (field-independent basis, Debye-Ang):
   XX=           -344.0309   YY=           -392.0710   ZZ=           -399.3372
   XY=            -13.9775   XZ=              8.8068   YZ=              0.6194

 Normal termination of Gaussian 09 at Sun Jun 30 09:34:53 2019.
