 Gaussian 09, Revision D.01,
 Gaussian 09:  ES64L-G09RevD.01 24-Apr-2013

 -------------------------------------
 # td=(NStates=1) CAM-B3LYP/6-31G(d,p)
 -------------------------------------

 --
 TD
 --
 Symbolic Z-matrix:
 Charge =  0 Multiplicity = 1

                         Standard orientation:
 ---------------------------------------------------------------------
 Center     Atomic      Atomic             Coordinates (Angstroms)
 Number     Number       Type             X           Y           Z
 ---------------------------------------------------------------------
      1         12           0       -7.165810    0.576691    0.302270
      2          6           0       -4.844902   -1.920410    0.680765
      3          6           0       -4.763039    2.879181    1.225398
      4          6           0       -9.410338    3.020492   -0.328112
      5          6           0       -9.586972   -1.793706   -0.853102
      6          7           0       -5.155672    0.438779    0.829882
      7          6           0       -4.388477   -0.622918    0.882592
      8          6           0       -3.035687   -0.451271    1.323850
      9          6           0       -2.961284    1.093691    1.729847
     10          6           0       -4.378177    1.438413    1.290747
     11          6           0       -2.802927    1.360649    3.171502
     12          6           0       -2.060969   -0.579086    0.153806
     13          6           0       -0.583871   -0.493164    0.569847
     14          6           0        0.466139   -0.702142   -0.570087
     15          8           0        0.150240   -0.920304   -1.709128
     16          8           0        1.624706   -0.352215   -0.214914
     17          7           0       -7.098702    2.642189    0.409628
     18          6           0       -6.086809    3.359203    0.830373
     19          6           0       -6.434043    4.742566    0.806320
     20          6           0       -7.781441    4.865345    0.395038
     21          6           0       -8.170774    3.508917    0.141786
     22          6           0       -5.617684    5.904873    1.336032
     23          6           0       -8.661924    6.005186    0.168919
     24          6           0       -8.262735    7.275611   -0.058908
     25          7           0       -9.187940    0.564103   -0.457876
     26          6           0       -9.906938    1.734194   -0.581732
     27          6           0      -11.255816    1.376106   -1.056189
     28          6           0      -11.307578    0.040883   -1.221680
     29          6           0       -9.993973   -0.447660   -0.776455
     30          6           0      -12.341776    2.328909   -1.481617
     31          6           0      -12.313012   -0.959982   -1.863700
     32          6           0      -12.162837   -1.213097   -3.327929
     33          7           0       -7.197008   -1.433551   -0.130564
     34          6           0       -8.290089   -2.289860   -0.485055
     35          6           0       -7.747784   -3.614154   -0.452632
     36          6           0       -6.475882   -3.501082   -0.177128
     37          6           0       -6.160221   -2.156397    0.100883
     38          6           0       -8.530363   -4.889067   -0.918790
     39          6           0       -5.279596   -4.333347    0.119832
     40          8           0       -5.122325   -5.507296    0.059754
     41          6           0       -4.189991   -3.238180    0.631386
     42          6           0       -3.603471   -3.698954    1.818235
     43          8           0       -3.832039   -3.157902    2.977943
     44          8           0       -2.719710   -4.702647    1.679358
     45          6           0       -2.086445   -5.141809    2.913934
     46          6           0        2.786607   -0.417770   -1.230537
     47          6           0        4.019677   -0.314950   -0.457637
     48          6           0        5.095450    0.342782   -0.970065
     49          6           0        5.136678    1.349952   -2.168172
     50          6           0        6.409994    0.416894   -0.212766
     51          6           0        7.722621   -0.001730   -1.065505
     52          6           0        8.882368   -0.168630   -0.221023
     53          6           0       10.274312   -0.510391   -0.934538
     54          6           0       10.220828   -1.959230   -1.541294
     55          6           0       11.508618   -0.275476   -0.028451
     56          6           0       12.805920   -0.385421   -0.761485
     57          6           0       13.991664   -0.066454    0.166376
     58          6           0       15.336551   -0.290760   -0.486230
     59          6           0       15.643386   -1.690943   -0.997125
     60          6           0       16.476657    0.394961    0.466428
     61          6           0       17.794165    0.554761   -0.192346
     62          6           0       18.789295    1.126568    0.716066
     63          6           0       20.257546    1.265999    0.220983
     64          6           0       20.438822    2.163454   -0.968901
     65          6           0       21.179850    1.694225    1.407539
     66          1           0       -4.028618    3.627206    1.601686
     67          1           0      -10.005644    3.804147   -0.332636
     68          1           0      -10.208588   -2.474684   -1.132415
     69          1           0       -2.477907   -0.934281    2.351254
     70          1           0       -2.325573    1.749240    1.201346
     71          1           0       -1.617667    1.057003    3.509763
     72          1           0       -2.777309    2.385776    3.548241
     73          1           0       -3.533507    0.891615    3.839960
     74          1           0       -2.242291   -1.524798   -0.385132
     75          1           0       -2.186589    0.108227   -0.675481
     76          1           0       -0.314532    0.437427    0.937068
     77          1           0       -0.456695   -1.190346    1.209856
     78          1           0       -5.209659    6.453093    0.404224
     79          1           0       -6.554185    6.595150    1.624069
     80          1           0       -4.902650    5.473153    2.146930
     81          1           0       -9.659617    5.752842    0.240204
     82          1           0       -9.001105    8.054743   -0.239652
     83          1           0       -7.224914    7.389590   -0.380361
     84          1           0      -12.015540    2.901247   -2.366561
     85          1           0      -13.295876    1.699211   -1.555617
     86          1           0      -12.605530    3.234990   -0.801700
     87          1           0      -12.111672   -1.970500   -1.383467
     88          1           0      -13.273874   -0.360936   -1.622958
     89          1           0      -13.001265   -1.908654   -3.694291
     90          1           0      -12.496868   -0.247145   -3.895785
     91          1           0      -11.126218   -1.530105   -3.675835
     92          1           0       -8.979441   -4.474613   -1.961502
     93          1           0       -7.963581   -5.794388   -0.875060
     94          1           0       -9.448281   -5.116707   -0.070104
     95          1           0       -3.404290   -3.428339   -0.127678
     96          1           0       -1.625495   -4.259526    3.308079
     97          1           0       -2.901585   -5.485974    3.694418
     98          1           0       -1.558661   -5.978936    2.571366
     99          1           0        2.699170   -1.426568   -1.534286
    100          1           0        2.660621    0.327734   -2.001240
    101          1           0        4.175751   -0.752122    0.509225
    102          1           0        4.090100    1.580014   -2.570989
    103          1           0        5.371369    2.350850   -1.670190
    104          1           0        5.737811    1.240588   -2.968156
    105          1           0        6.357811    1.407809   -0.053506
    106          1           0        6.281166   -0.249948    0.705403
    107          1           0        7.479148   -1.092520   -1.424615
    108          1           0        8.039102    0.608472   -1.928461
    109          1           0        8.968500    0.774742    0.177913
    110          1           0        8.736030   -0.930036    0.633540
    111          1           0       10.463885    0.295281   -1.742406
    112          1           0        9.365811   -2.339503   -2.042488
    113          1           0       11.136694   -2.123992   -2.242879
    114          1           0       10.290586   -2.678285   -0.659026
    115          1           0       11.534170    0.667435    0.283202
    116          1           0       11.656382   -0.970185    0.686678
    117          1           0       12.968043   -1.435798   -1.105557
    118          1           0       13.046200    0.130457   -1.769094
    119          1           0       13.884771    0.934492    0.528801
    120          1           0       13.899938   -0.554146    1.085045
    121          1           0       15.382175    0.327813   -1.310139
    122          1           0       15.658378   -2.369568   -0.252171
    123          1           0       14.838307   -1.997935   -1.462402
    124          1           0       16.717011   -1.771713   -1.577158
    125          1           0       16.129589    1.268829    0.941219
    126          1           0       16.494315   -0.245666    1.340669
    127          1           0       18.049025   -0.381531   -0.546319
    128          1           0       17.725734    1.124533   -1.127295
    129          1           0       18.489620    2.128263    1.160903
    130          1           0       19.061995    0.524903    1.630671
    131          1           0       20.617168    0.323865   -0.206111
    132          1           0       20.373227    3.182302   -0.381287
    133          1           0       21.479056    1.986951   -1.379908
    134          1           0       19.489078    1.828400   -1.754914
    135          1           0       21.172818    1.056623    2.267468
    136          1           0       22.256889    1.636633    1.297426
    137          1           0       20.859840    2.705142    1.645612
 ---------------------------------------------------------------------

 SCF Done:  E(RCAM-B3LYP) =  -2932.67314325     A.U. after   15 cycles

 Excitation energies and oscillator strengths:

 Excited State   1:      Singlet-A      1.9977 eV  620.63 nm  f=0.2423  <S**2>=0.000
     240 -> 243        0.24764
     241 -> 242        0.65590
 This state for optimization and/or second-order correction.
 Total Energy, E(TD-HF/TD-KS) =  -2932.59972841
 Copying the excited state density for this state as the 1-particle RhoCI density.

 The electronic state is 1-A.
 Alpha  occ. eigenvalues --  -46.85420 -19.26064 -19.25770 -19.21564 -19.18628
 Alpha  occ. eigenvalues --  -19.18363 -14.42330 -14.39338 -14.39022 -14.38939
 Alpha  occ. eigenvalues --  -10.37992 -10.37324 -10.35809 -10.32612 -10.31528
 Alpha  occ. eigenvalues --  -10.31007 -10.30277 -10.29273 -10.29117 -10.29114
 Alpha  occ. eigenvalues --  -10.29013 -10.28707 -10.28703 -10.28222 -10.28190
 Alpha  occ. eigenvalues --  -10.28057 -10.27805 -10.27671 -10.27613 -10.27582
 Alpha  occ. eigenvalues --  -10.27430 -10.27161 -10.27076 -10.27028 -10.26992
 Alpha  occ. eigenvalues --  -10.26928 -10.26840 -10.26826 -10.26686 -10.26651
 Alpha  occ. eigenvalues --  -10.26648 -10.26517 -10.26512 -10.26503 -10.26449
 Alpha  occ. eigenvalues --  -10.26428 -10.26402 -10.26292 -10.26212 -10.25768
 Alpha  occ. eigenvalues --  -10.25720 -10.25706 -10.25342 -10.25267 -10.25016
 Alpha  occ. eigenvalues --  -10.24996 -10.24885 -10.24718 -10.24066 -10.23969
 Alpha  occ. eigenvalues --  -10.23904 -10.23897 -10.23834 -10.23669 -10.23538
 Alpha  occ. eigenvalues --   -3.14238  -1.88959  -1.88499  -1.88373  -1.19165
 Alpha  occ. eigenvalues --   -1.16647  -1.13427  -1.07776  -1.06905  -1.04646
 Alpha  occ. eigenvalues --   -1.04153  -1.03828  -1.02922  -0.92432  -0.91940
 Alpha  occ. eigenvalues --   -0.91267  -0.90510  -0.90086  -0.89440  -0.88657
 Alpha  occ. eigenvalues --   -0.88488  -0.87921  -0.87619  -0.87019  -0.86652
 Alpha  occ. eigenvalues --   -0.85650  -0.84767  -0.83905  -0.83515  -0.82989
 Alpha  occ. eigenvalues --   -0.82813  -0.81309  -0.80396  -0.80206  -0.78074
 Alpha  occ. eigenvalues --   -0.77334  -0.77003  -0.76750  -0.76638  -0.75907
 Alpha  occ. eigenvalues --   -0.75438  -0.74711  -0.74442  -0.73711  -0.72198
 Alpha  occ. eigenvalues --   -0.71494  -0.70439  -0.69741  -0.68576  -0.68048
 Alpha  occ. eigenvalues --   -0.67460  -0.67359  -0.65847  -0.65425  -0.65319
 Alpha  occ. eigenvalues --   -0.65003  -0.63935  -0.63255  -0.63031  -0.61510
 Alpha  occ. eigenvalues --   -0.61206  -0.60926  -0.60205  -0.59770  -0.59400
 Alpha  occ. eigenvalues --   -0.59071  -0.58455  -0.57861  -0.57481  -0.57266
 Alpha  occ. eigenvalues --   -0.56354  -0.55908  -0.55486  -0.55100  -0.55003
 Alpha  occ. eigenvalues --   -0.54506  -0.54137  -0.53986  -0.53932  -0.53631
 Alpha  occ. eigenvalues --   -0.53458  -0.52951  -0.52645  -0.52081  -0.51760
 Alpha  occ. eigenvalues --   -0.51496  -0.51241  -0.51091  -0.50756  -0.50674
 Alpha  occ. eigenvalues --   -0.50529  -0.50341  -0.50180  -0.50035  -0.49601
 Alpha  occ. eigenvalues --   -0.49350  -0.49042  -0.48715  -0.48603  -0.48505
 Alpha  occ. eigenvalues --   -0.47986  -0.47860  -0.47734  -0.47614  -0.47480
 Alpha  occ. eigenvalues --   -0.47162  -0.46783  -0.46638  -0.46512  -0.46391
 Alpha  occ. eigenvalues --   -0.46006  -0.45705  -0.45594  -0.45195  -0.44869
 Alpha  occ. eigenvalues --   -0.44810  -0.44642  -0.44436  -0.44207  -0.44077
 Alpha  occ. eigenvalues --   -0.44028  -0.43739  -0.43675  -0.43607  -0.43384
 Alpha  occ. eigenvalues --   -0.43330  -0.43043  -0.42882  -0.42750  -0.42663
 Alpha  occ. eigenvalues --   -0.42304  -0.42244  -0.41929  -0.41703  -0.41513
 Alpha  occ. eigenvalues --   -0.41491  -0.41089  -0.40945  -0.40855  -0.40491
 Alpha  occ. eigenvalues --   -0.40211  -0.40108  -0.39949  -0.39851  -0.39467
 Alpha  occ. eigenvalues --   -0.39199  -0.39004  -0.38375  -0.37657  -0.37496
 Alpha  occ. eigenvalues --   -0.37464  -0.37411  -0.37143  -0.36757  -0.36559
 Alpha  occ. eigenvalues --   -0.36464  -0.36344  -0.35886  -0.35376  -0.35341
 Alpha  occ. eigenvalues --   -0.35192  -0.34969  -0.34080  -0.33166  -0.33149
 Alpha  occ. eigenvalues --   -0.31925  -0.31629  -0.31565  -0.30911  -0.30072
 Alpha  occ. eigenvalues --   -0.29966  -0.29510  -0.28525  -0.27031  -0.22690
 Alpha  occ. eigenvalues --   -0.20935
 Alpha virt. eigenvalues --   -0.06428  -0.02569   0.02113   0.04033   0.04670
 Alpha virt. eigenvalues --    0.05415   0.05523   0.06754   0.07425   0.08113
 Alpha virt. eigenvalues --    0.09668   0.10688   0.11356   0.11480   0.11782

 Mulliken charges:
               1
     1  Mg   0.837231
     2  C    0.129959
     3  C   -0.214461
     4  C   -0.132587
     5  C   -0.118061
     6  N   -0.623047
     7  C    0.349141
     8  C   -0.184898
     9  C   -0.113278
    10  C    0.287322
    11  C   -0.306196
    12  C   -0.185120
    13  C   -0.248425
    14  C    0.554505
    15  O   -0.490635
    16  O   -0.460742
    17  N   -0.722250
    18  C    0.369039
    19  C   -0.050065
    20  C    0.046144
    21  C    0.233432
    22  C   -0.365125
    23  C   -0.053269
    24  C   -0.261853
    25  N   -0.666530
    26  C    0.298947
    27  C    0.010500
    28  C    0.031278
    29  C    0.280466
    30  C   -0.373539
    31  C   -0.214858
    32  C   -0.292654
    33  N   -0.740788
    34  C    0.220446
    35  C   -0.004337
    36  C    0.012221
    37  C    0.300271
    38  C   -0.344296
    39  C    0.379342
    40  O   -0.423753
    41  C   -0.384201
    42  C    0.657295
    43  O   -0.544290
    44  O   -0.467042
    45  C   -0.070557
    46  C    0.017581
    47  C   -0.133945
    48  C    0.093171
    49  C   -0.367296
    50  C   -0.215693
    51  C   -0.176351
    52  C   -0.158601
    53  C   -0.069579
    54  C   -0.317760
    55  C   -0.147596
    56  C   -0.206542
    57  C   -0.189525
    58  C   -0.069094
    59  C   -0.304606
    60  C   -0.192262
    61  C   -0.168287
    62  C   -0.156418
    63  C   -0.079022
    64  C   -0.264783
    65  C   -0.324752
    66  H    0.078483
    67  H    0.049944
    68  H    0.058628
    69  H    0.132023
    70  H    0.124844
    71  H    0.063045
    72  H    0.114194
    73  H    0.131036
    74  H    0.109700
    75  H    0.121292
    76  H    0.129639
    77  H    0.128785
    78  H    0.119862
    79  H    0.120337
    80  H    0.111844
    81  H    0.097015
    82  H    0.107882
    83  H    0.110577
    84  H    0.130725
    85  H    0.103735
    86  H    0.101619
    87  H    0.106271
    88  H    0.096835
    89  H    0.102272
    90  H    0.095090
    91  H    0.113398
    92  H    0.114644
    93  H    0.153584
    94  H    0.090301
    95  H    0.170767
    96  H    0.138085
    97  H    0.125251
    98  H    0.132051
    99  H    0.151890
   100  H    0.142265
   101  H    0.102888
   102  H    0.098028
   103  H    0.112605
   104  H    0.141855
   105  H    0.118739
   106  H    0.092526
   107  H    0.082058
   108  H    0.099318
   109  H    0.094652
   110  H    0.076821
   111  H    0.069473
   112  H    0.113738
   113  H    0.096168
   114  H    0.091377
   115  H    0.102322
   116  H    0.103753
   117  H    0.087699
   118  H    0.077882
   119  H    0.092143
   120  H    0.090211
   121  H    0.093900
   122  H    0.109381
   123  H    0.109825
   124  H    0.082581
   125  H    0.089063
   126  H    0.087434
   127  H    0.102593
   128  H    0.090211
   129  H    0.076341
   130  H    0.090599
   131  H    0.080079
   132  H    0.079763
   133  H    0.101045
   134  H    0.070557
   135  H    0.103358
   136  H    0.100113
   137  H    0.101661
 Sum of Mulliken charges =   0.00000

 Dipole moment (field-independent basis, Debye):
    X=              3.2208    Y=              3.4607    Z=              0.3002  Tot=              4.7371
 Quadrupole moment (field-independent basis, Debye-Ang):
   XX=           -345.4668   YY=           -394.3184   ZZ=           -400.9333
   XY=            -25.3123   XZ=             17.7924   YZ=             -2.8372

 Normal termination of Gaussian 09 at Thu Jun 27 16:52:40 2019.
