 Gaussian 09, Revision D.01,
 Gaussian 09:  ES64L-G09RevD.01 24-Apr-2013

 -------------------------------------
 # td=(NStates=1) CAM-B3LYP/6-31G(d,p)
 -------------------------------------

 --
 TD
 --
 Symbolic Z-matrix:
 Charge =  0 Multiplicity = 1

                         Standard orientation:
 ---------------------------------------------------------------------
 Center     Atomic      Atomic             Coordinates (Angstroms)
 Number     Number       Type             X           Y           Z
 ---------------------------------------------------------------------
      1         12           0       -7.143661    0.649101    0.050010
      2          6           0       -4.790560   -1.969515    0.360991
      3          6           0       -4.837138    2.729595    1.098877
      4          6           0       -9.572941    3.110816   -0.352953
      5          6           0       -9.570103   -1.711610   -0.804643
      6          7           0       -5.079294    0.389202    0.658142
      7          6           0       -4.290436   -0.713776    0.733713
      8          6           0       -2.874843   -0.381057    1.218907
      9          6           0       -3.027148    1.020634    1.614888
     10          6           0       -4.394837    1.520959    1.154558
     11          6           0       -2.967348    1.269130    3.124166
     12          6           0       -1.860626   -0.667131    0.030022
     13          6           0       -0.358078   -0.454395    0.445352
     14          6           0        0.524415   -0.716469   -0.748308
     15          8           0        0.178578   -1.022443   -1.889395
     16          8           0        1.780656   -0.425453   -0.266175
     17          7           0       -7.073239    2.612579    0.275538
     18          6           0       -6.073114    3.315970    0.837318
     19          6           0       -6.409758    4.752516    0.859798
     20          6           0       -7.768316    4.801962    0.449516
     21          6           0       -8.234203    3.483498    0.081517
     22          6           0       -5.626029    5.856661    1.428946
     23          6           0       -8.676221    6.040877    0.388752
     24          6           0       -8.256812    7.264178    0.099733
     25          7           0       -9.182367    0.717299   -0.497452
     26          6           0       -9.925902    1.828710   -0.648432
     27          6           0      -11.285938    1.325867   -1.102298
     28          6           0      -11.222079    0.006495   -1.172231
     29          6           0      -10.000666   -0.412063   -0.813471
     30          6           0      -12.424888    2.302492   -1.263107
     31          6           0      -12.385422   -0.839281   -1.674421
     32          6           0      -12.333220   -1.107422   -3.303203
     33          7           0       -7.217238   -1.293140   -0.160357
     34          6           0       -8.302136   -2.232094   -0.407391
     35          6           0       -7.841359   -3.634768   -0.362701
     36          6           0       -6.448251   -3.514083   -0.080970
     37          6           0       -6.120444   -2.136188    0.007209
     38          6           0       -8.391695   -4.940251   -0.692525
     39          6           0       -5.338842   -4.362378    0.166501
     40          8           0       -5.181657   -5.568530    0.071396
     41          6           0       -4.121610   -3.404979    0.453824
     42          6           0       -3.540280   -3.699518    1.802311
     43          8           0       -3.828382   -3.111556    2.811158
     44          8           0       -2.549840   -4.636956    1.747110
     45          6           0       -2.009388   -4.989936    3.024140
     46          6           0        2.849761   -0.684269   -1.188543
     47          6           0        4.185750   -0.451405   -0.536292
     48          6           0        5.110313    0.464672   -0.878832
     49          6           0        4.974303    1.502795   -1.983687
     50          6           0        6.508937    0.388278   -0.164666
     51          6           0        7.692711   -0.113696   -0.972478
     52          6           0        8.858048   -0.203858   -0.099368
     53          6           0       10.220793   -0.388754   -0.899601
     54          6           0       10.130148   -1.833593   -1.604215
     55          6           0       11.397012   -0.339523    0.101751
     56          6           0       12.748616   -0.438671   -0.635706
     57          6           0       14.037298   -0.336963    0.334522
     58          6           0       15.369141   -0.235894   -0.460288
     59          6           0       15.651775   -1.683038   -0.706363
     60          6           0       16.410836    0.368234    0.418345
     61          6           0       17.807242    0.546951   -0.199566
     62          6           0       18.945146    1.165703    0.823661
     63          6           0       20.193374    1.355445    0.211286
     64          6           0       20.302603    2.175446   -1.192307
     65          6           0       21.213170    1.941666    1.197760
     66          1           0       -4.201046    3.424514    1.555928
     67          1           0      -10.306551    3.854094   -0.301806
     68          1           0      -10.367238   -2.513789   -0.935011
     69          1           0       -2.470671   -0.904990    2.098625
     70          1           0       -2.421950    1.684619    1.037280
     71          1           0       -2.009642    0.936702    3.427118
     72          1           0       -3.072226    2.334094    3.501900
     73          1           0       -3.816002    0.786238    3.523837
     74          1           0       -2.001091   -1.495180   -0.253616
     75          1           0       -2.093646   -0.117311   -0.787087
     76          1           0       -0.214702    0.547803    0.900025
     77          1           0       -0.184334   -0.971363    1.258491
     78          1           0       -5.052777    6.347210    0.734879
     79          1           0       -6.346143    6.373811    2.082786
     80          1           0       -4.884286    5.490959    2.151719
     81          1           0       -9.723705    5.944413    0.488932
     82          1           0       -9.034910    8.015239   -0.090206
     83          1           0       -7.224137    7.612448   -0.191021
     84          1           0      -12.584441    2.978747   -2.114932
     85          1           0      -13.417059    1.855672   -1.504688
     86          1           0      -12.536460    2.844954   -0.279801
     87          1           0      -12.396921   -1.832575   -1.429369
     88          1           0      -13.350087   -0.400240   -1.413134
     89          1           0      -13.139349   -1.938893   -3.414919
     90          1           0      -12.480669   -0.008397   -3.623672
     91          1           0      -11.222761   -1.435229   -3.698883
     92          1           0       -9.270364   -4.837918   -1.553685
     93          1           0       -7.740854   -5.593041   -0.750212
     94          1           0       -9.098171   -5.273923    0.237767
     95          1           0       -3.474332   -3.636808   -0.296947
     96          1           0       -1.480850   -4.198885    3.753405
     97          1           0       -3.197821   -5.399340    3.499711
     98          1           0       -1.381422   -5.994964    2.998980
     99          1           0        2.804724   -1.619799   -1.706720
    100          1           0        2.637829    0.031629   -1.875746
    101          1           0        4.615184   -1.173084    0.185762
    102          1           0        3.682003    1.756461   -2.004860
    103          1           0        5.855270    2.296178   -1.639760
    104          1           0        5.337475    1.027253   -2.996002
    105          1           0        6.725298    1.414324    0.106166
    106          1           0        6.411255   -0.305284    0.527461
    107          1           0        7.458863   -1.026966   -1.288538
    108          1           0        7.732876    0.470870   -2.070973
    109          1           0        9.045182    0.750201    0.536103
    110          1           0        8.592798   -1.079766    0.560420
    111          1           0       10.279782    0.420835   -1.578340
    112          1           0        9.154697   -2.148314   -2.227535
    113          1           0       10.907922   -2.070747   -2.103106
    114          1           0        9.963992   -2.727848   -0.751811
    115          1           0       11.313361    0.556720    0.777357
    116          1           0       11.163692   -1.066882    0.912878
    117          1           0       12.640588   -1.415867   -1.061192
    118          1           0       12.768754    0.411285   -1.258297
    119          1           0       13.765194    0.666677    0.822412
    120          1           0       14.321739   -1.249957    1.173759
    121          1           0       15.169396    0.075124   -1.407850
    122          1           0       16.025312   -2.443262    0.043420
    123          1           0       14.792162   -1.955340   -1.341255
    124          1           0       16.558498   -1.778317   -1.515844
    125          1           0       16.006274    1.382861    0.921457
    126          1           0       16.498442   -0.413149    1.167832
    127          1           0       18.151372   -0.393010   -0.562840
    128          1           0       17.782920    1.502745   -1.104936
    129          1           0       18.678781    2.213832    1.029363
    130          1           0       18.887918    0.621059    1.786274
    131          1           0       20.529519    0.402508   -0.114811
    132          1           0       19.899905    3.262735   -0.994506
    133          1           0       21.412688    2.337279   -1.286518
    134          1           0       19.641050    1.816037   -1.987574
    135          1           0       21.210927    1.623780    2.241723
    136          1           0       22.140575    2.021439    0.754264
    137          1           0       20.921895    3.017952    1.277212
 ---------------------------------------------------------------------

 SCF Done:  E(RCAM-B3LYP) =  -2932.53249640     A.U. after   15 cycles

 Excitation energies and oscillator strengths:

 Excited State   1:      Singlet-A      1.9380 eV  639.75 nm  f=0.3066  <S**2>=0.000
     240 -> 243        0.22024
     241 -> 242        0.66391
 This state for optimization and/or second-order correction.
 Total Energy, E(TD-HF/TD-KS) =  -2932.46127553
 Copying the excited state density for this state as the 1-particle RhoCI density.

 The electronic state is 1-A.
 Alpha  occ. eigenvalues --  -46.83029 -19.26511 -19.26239 -19.22256 -19.20777
 Alpha  occ. eigenvalues --  -19.20143 -14.40898 -14.39595 -14.39449 -14.39041
 Alpha  occ. eigenvalues --  -10.40046 -10.38985 -10.34599 -10.34556 -10.30834
 Alpha  occ. eigenvalues --  -10.30818 -10.30303 -10.30266 -10.30062 -10.29891
 Alpha  occ. eigenvalues --  -10.29423 -10.29232 -10.28969 -10.28643 -10.28064
 Alpha  occ. eigenvalues --  -10.27982 -10.27899 -10.27832 -10.27666 -10.27579
 Alpha  occ. eigenvalues --  -10.27565 -10.27342 -10.27280 -10.27084 -10.27064
 Alpha  occ. eigenvalues --  -10.27063 -10.26957 -10.26805 -10.26679 -10.26484
 Alpha  occ. eigenvalues --  -10.26418 -10.26339 -10.26300 -10.26277 -10.26267
 Alpha  occ. eigenvalues --  -10.26196 -10.26007 -10.25890 -10.25840 -10.25703
 Alpha  occ. eigenvalues --  -10.25673 -10.25557 -10.25488 -10.25365 -10.25247
 Alpha  occ. eigenvalues --  -10.25236 -10.24981 -10.24943 -10.24887 -10.24866
 Alpha  occ. eigenvalues --  -10.24724 -10.24575 -10.24214 -10.23737 -10.23692
 Alpha  occ. eigenvalues --   -3.12231  -1.86925  -1.86453  -1.86447  -1.18186
 Alpha  occ. eigenvalues --   -1.17408  -1.10764  -1.09630  -1.09411  -1.03395
 Alpha  occ. eigenvalues --   -1.02828  -1.01556  -1.00806  -0.91981  -0.91796
 Alpha  occ. eigenvalues --   -0.91156  -0.90464  -0.89634  -0.89625  -0.89063
 Alpha  occ. eigenvalues --   -0.88857  -0.88135  -0.87431  -0.87096  -0.86749
 Alpha  occ. eigenvalues --   -0.85710  -0.84656  -0.83464  -0.82748  -0.82085
 Alpha  occ. eigenvalues --   -0.81481  -0.80959  -0.80294  -0.79597  -0.78553
 Alpha  occ. eigenvalues --   -0.78044  -0.77132  -0.75528  -0.75432  -0.75411
 Alpha  occ. eigenvalues --   -0.74929  -0.74887  -0.74451  -0.73816  -0.73007
 Alpha  occ. eigenvalues --   -0.72002  -0.70804  -0.69908  -0.68538  -0.68270
 Alpha  occ. eigenvalues --   -0.66720  -0.66533  -0.65371  -0.65234  -0.64623
 Alpha  occ. eigenvalues --   -0.64384  -0.64110  -0.63244  -0.63092  -0.62354
 Alpha  occ. eigenvalues --   -0.61802  -0.60539  -0.60322  -0.59550  -0.59100
 Alpha  occ. eigenvalues --   -0.58578  -0.58357  -0.57922  -0.57756  -0.57377
 Alpha  occ. eigenvalues --   -0.56369  -0.56072  -0.55769  -0.55377  -0.54973
 Alpha  occ. eigenvalues --   -0.54880  -0.54243  -0.53720  -0.53607  -0.53310
 Alpha  occ. eigenvalues --   -0.53238  -0.53081  -0.52683  -0.52111  -0.51823
 Alpha  occ. eigenvalues --   -0.51668  -0.51447  -0.51003  -0.50687  -0.50454
 Alpha  occ. eigenvalues --   -0.50307  -0.50212  -0.50121  -0.49939  -0.49494
 Alpha  occ. eigenvalues --   -0.49373  -0.49063  -0.48963  -0.48458  -0.48286
 Alpha  occ. eigenvalues --   -0.47994  -0.47884  -0.47604  -0.47399  -0.47257
 Alpha  occ. eigenvalues --   -0.46985  -0.46577  -0.46451  -0.46051  -0.45708
 Alpha  occ. eigenvalues --   -0.45522  -0.45333  -0.45230  -0.45037  -0.44738
 Alpha  occ. eigenvalues --   -0.44617  -0.44536  -0.44174  -0.43870  -0.43818
 Alpha  occ. eigenvalues --   -0.43675  -0.43591  -0.43342  -0.43297  -0.43034
 Alpha  occ. eigenvalues --   -0.42832  -0.42774  -0.42614  -0.42419  -0.42180
 Alpha  occ. eigenvalues --   -0.41881  -0.41805  -0.41753  -0.41470  -0.41333
 Alpha  occ. eigenvalues --   -0.41174  -0.40736  -0.40521  -0.40402  -0.40024
 Alpha  occ. eigenvalues --   -0.39866  -0.39555  -0.39375  -0.39322  -0.39196
 Alpha  occ. eigenvalues --   -0.39057  -0.38922  -0.38567  -0.38299  -0.38090
 Alpha  occ. eigenvalues --   -0.37806  -0.37551  -0.37280  -0.36925  -0.36662
 Alpha  occ. eigenvalues --   -0.36375  -0.36094  -0.35763  -0.35465  -0.35218
 Alpha  occ. eigenvalues --   -0.34845  -0.34772  -0.34755  -0.34475  -0.33685
 Alpha  occ. eigenvalues --   -0.33312  -0.33123  -0.31963  -0.31581  -0.29982
 Alpha  occ. eigenvalues --   -0.29963  -0.29030  -0.28066  -0.27268  -0.23281
 Alpha  occ. eigenvalues --   -0.21084
 Alpha virt. eigenvalues --   -0.07145  -0.02625   0.01521   0.04962   0.05223
 Alpha virt. eigenvalues --    0.05483   0.05953   0.06753   0.06978   0.07395
 Alpha virt. eigenvalues --    0.08638   0.09828   0.10685   0.11651   0.11730

 Mulliken charges:
               1
     1  Mg   0.808400
     2  C   -0.001801
     3  C   -0.176314
     4  C   -0.148308
     5  C   -0.184104
     6  N   -0.642967
     7  C    0.313081
     8  C   -0.161200
     9  C   -0.144265
    10  C    0.329929
    11  C   -0.308381
    12  C   -0.142703
    13  C   -0.283672
    14  C    0.632970
    15  O   -0.479243
    16  O   -0.486984
    17  N   -0.715097
    18  C    0.317019
    19  C    0.002875
    20  C   -0.016122
    21  C    0.270801
    22  C   -0.377381
    23  C   -0.079193
    24  C   -0.235597
    25  N   -0.703845
    26  C    0.325242
    27  C   -0.000994
    28  C    0.079951
    29  C    0.289113
    30  C   -0.394275
    31  C   -0.247062
    32  C   -0.304258
    33  N   -0.728821
    34  C    0.221360
    35  C    0.076371
    36  C   -0.007011
    37  C    0.345253
    38  C   -0.341349
    39  C    0.335613
    40  O   -0.473438
    41  C   -0.283779
    42  C    0.635761
    43  O   -0.461611
    44  O   -0.452580
    45  C   -0.066822
    46  C    0.020802
    47  C   -0.140518
    48  C    0.104382
    49  C   -0.329579
    50  C   -0.208959
    51  C   -0.163811
    52  C   -0.170041
    53  C   -0.053925
    54  C   -0.306392
    55  C   -0.190890
    56  C   -0.191431
    57  C   -0.157918
    58  C   -0.053463
    59  C   -0.316685
    60  C   -0.140103
    61  C   -0.170693
    62  C   -0.157202
    63  C   -0.048571
    64  C   -0.321849
    65  C   -0.323618
    66  H    0.063487
    67  H    0.097966
    68  H    0.094123
    69  H    0.119033
    70  H    0.111119
    71  H    0.107348
    72  H    0.100662
    73  H    0.135397
    74  H    0.111900
    75  H    0.120002
    76  H    0.134731
    77  H    0.142019
    78  H    0.134050
    79  H    0.135070
    80  H    0.109137
    81  H    0.097087
    82  H    0.095955
    83  H    0.108151
    84  H    0.123012
    85  H    0.103730
    86  H    0.118227
    87  H    0.108446
    88  H    0.109345
    89  H    0.104220
    90  H    0.110134
    91  H    0.100367
    92  H    0.105466
    93  H    0.147113
    94  H    0.107796
    95  H    0.163110
    96  H    0.125053
    97  H    0.084525
    98  H    0.123151
    99  H    0.134862
   100  H    0.114415
   101  H    0.078381
   102  H    0.096491
   103  H    0.095203
   104  H    0.125533
   105  H    0.101116
   106  H    0.098884
   107  H    0.113255
   108  H    0.052378
   109  H    0.078340
   110  H    0.093647
   111  H    0.097761
   112  H    0.089534
   113  H    0.118435
   114  H    0.068192
   115  H    0.078705
   116  H    0.092715
   117  H    0.113581
   118  H    0.110175
   119  H    0.075736
   120  H    0.066448
   121  H    0.095301
   122  H    0.107456
   123  H    0.105296
   124  H    0.059440
   125  H    0.070687
   126  H    0.089210
   127  H    0.102539
   128  H    0.044498
   129  H    0.083297
   130  H    0.089916
   131  H    0.088151
   132  H    0.077456
   133  H    0.105984
   134  H    0.118602
   135  H    0.105702
   136  H    0.106017
   137  H    0.091628
 Sum of Mulliken charges =   0.00000

 Dipole moment (field-independent basis, Debye):
    X=              1.7681    Y=              3.9842    Z=              0.8610  Tot=              4.4431
 Quadrupole moment (field-independent basis, Debye-Ang):
   XX=           -335.4130   YY=           -394.8484   ZZ=           -401.5073
   XY=            -26.3395   XZ=              6.8030   YZ=             -0.6401

 Normal termination of Gaussian 09 at Thu Jun 27 16:51:36 2019.
