 Gaussian 09, Revision D.01,
 Gaussian 09:  ES64L-G09RevD.01 24-Apr-2013

 -------------------------------------
 # td=(NStates=1) CAM-B3LYP/6-31G(d,p)
 -------------------------------------

 --
 TD
 --
 Symbolic Z-matrix:
 Charge =  0 Multiplicity = 1

                         Standard orientation:
 ---------------------------------------------------------------------
 Center     Atomic      Atomic             Coordinates (Angstroms)
 Number     Number       Type             X           Y           Z
 ---------------------------------------------------------------------
      1         12           0       -7.181562    0.543242    0.100213
      2          6           0       -4.858277   -1.936235    0.427682
      3          6           0       -4.938484    2.819358    1.190820
      4          6           0       -9.424135    3.108458   -0.391492
      5          6           0       -9.575699   -1.770331   -0.853945
      6          7           0       -5.145639    0.437979    0.778386
      7          6           0       -4.386490   -0.698760    0.729102
      8          6           0       -2.967222   -0.357546    1.317824
      9          6           0       -3.084643    1.111383    1.708392
     10          6           0       -4.472320    1.503781    1.222390
     11          6           0       -3.025623    1.339316    3.260626
     12          6           0       -1.954720   -0.633937    0.185266
     13          6           0       -0.464772   -0.332752    0.628244
     14          6           0        0.449050   -0.562785   -0.530630
     15          8           0        0.130596   -0.720586   -1.691998
     16          8           0        1.742706   -0.482253   -0.090162
     17          7           0       -7.174142    2.622403    0.218684
     18          6           0       -6.132414    3.342347    0.641362
     19          6           0       -6.462438    4.796785    0.806255
     20          6           0       -7.780808    4.816698    0.362219
     21          6           0       -8.177926    3.504133   -0.035293
     22          6           0       -5.561471    5.875666    1.394679
     23          6           0       -8.726008    5.903869    0.321487
     24          6           0       -8.417018    7.210247    0.024304
     25          7           0       -9.156303    0.587113   -0.608480
     26          6           0       -9.880024    1.710246   -0.646574
     27          6           0      -11.256664    1.385073   -1.116287
     28          6           0      -11.310793    0.011615   -1.216514
     29          6           0       -9.984357   -0.469088   -0.841747
     30          6           0      -12.344948    2.436391   -1.333169
     31          6           0      -12.473405   -0.777431   -1.629587
     32          6           0      -12.395599   -1.105537   -3.143811
     33          7           0       -7.174450   -1.398971   -0.157588
     34          6           0       -8.277516   -2.313887   -0.611758
     35          6           0       -7.795396   -3.663221   -0.444407
     36          6           0       -6.446811   -3.616193   -0.167910
     37          6           0       -6.157109   -2.201529    0.049852
     38          6           0       -8.631026   -4.882256   -0.851103
     39          6           0       -5.274531   -4.405773    0.155141
     40          8           0       -5.100745   -5.580532    0.103792
     41          6           0       -4.197663   -3.247565    0.548334
     42          6           0       -3.553919   -3.594887    1.864939
     43          8           0       -3.644323   -2.983303    2.897469
     44          8           0       -2.781655   -4.756540    1.784637
     45          6           0       -2.096683   -5.071334    2.992918
     46          6           0        2.771617   -0.628970   -1.056957
     47          6           0        4.120074   -0.547062   -0.470837
     48          6           0        5.149093    0.252946   -0.901531
     49          6           0        5.148098    1.130711   -2.188884
     50          6           0        6.425604    0.406457   -0.198458
     51          6           0        7.724847   -0.200400   -0.843800
     52          6           0        9.014678   -0.145065   -0.092199
     53          6           0       10.303126   -0.539377   -0.898635
     54          6           0       10.195193   -1.891341   -1.499697
     55          6           0       11.588529   -0.379069   -0.076237
     56          6           0       12.880990   -0.437844   -0.888223
     57          6           0       14.095457   -0.171989    0.009160
     58          6           0       15.447996   -0.196878   -0.566615
     59          6           0       15.847418   -1.623947   -1.006932
     60          6           0       16.495865    0.431203    0.416890
     61          6           0       17.934721    0.444536   -0.195535
     62          6           0       18.833342    1.278123    0.831670
     63          6           0       20.303630    1.369580    0.333831
     64          6           0       20.415075    2.239833   -1.015003
     65          6           0       21.122371    2.031416    1.376812
     66          1           0       -4.292846    3.611331    1.655937
     67          1           0      -10.075926    3.930724   -0.927844
     68          1           0      -10.206199   -2.616352   -1.207811
     69          1           0       -2.748510   -1.023794    2.277575
     70          1           0       -2.456097    1.785783    1.237882
     71          1           0       -2.023331    0.789917    3.657994
     72          1           0       -3.466531    2.212179    3.398360
     73          1           0       -3.791200    0.646958    3.538485
     74          1           0       -1.941848   -1.652254   -0.409800
     75          1           0       -2.138549    0.187979   -0.531680
     76          1           0       -0.377603    0.661553    1.178489
     77          1           0       -0.232220   -0.993694    1.532649
     78          1           0       -4.954369    6.200969    0.524525
     79          1           0       -6.416846    6.676972    1.330886
     80          1           0       -5.246192    5.569073    2.397854
     81          1           0       -9.690715    5.590712    0.554548
     82          1           0       -9.102614    8.129249    0.164869
     83          1           0       -7.323975    7.542214   -0.162801
     84          1           0      -11.641458    3.408039   -1.907732
     85          1           0      -13.235119    1.977238   -1.924238
     86          1           0      -12.749774    2.887978   -0.342634
     87          1           0      -12.583077   -1.830087   -1.213811
     88          1           0      -13.491105   -0.131042   -1.430555
     89          1           0      -13.289896   -1.668896   -3.434534
     90          1           0      -12.192561   -0.164201   -3.816259
     91          1           0      -11.514512   -1.589885   -3.283624
     92          1           0       -9.097617   -4.689487   -1.672010
     93          1           0       -7.965175   -5.702433   -0.984241
     94          1           0       -9.659739   -4.951273   -0.232779
     95          1           0       -3.576801   -3.466897   -0.510572
     96          1           0       -1.494978   -4.165512    3.437048
     97          1           0       -2.841275   -5.583192    3.801522
     98          1           0       -1.225587   -5.698769    2.882147
     99          1           0        2.634950   -1.784255   -1.370789
    100          1           0        2.334143   -0.066393   -1.873833
    101          1           0        4.207823   -1.016973    0.468886
    102          1           0        4.200550    1.305886   -2.652069
    103          1           0        5.692844    2.174131   -1.926202
    104          1           0        5.824860    0.529363   -2.977136
    105          1           0        6.564328    1.522287   -0.211734
    106          1           0        6.426069    0.275596    0.997638
    107          1           0        7.607669   -1.143533   -1.175473
    108          1           0        7.950892    0.262697   -1.857244
    109          1           0        9.369967    0.827636    0.344871
    110          1           0        8.919530   -0.810626    0.778437
    111          1           0       10.135746    0.332845   -1.814039
    112          1           0        9.202662   -1.977422   -2.131280
    113          1           0       11.027134   -2.326114   -1.962620
    114          1           0        9.984949   -2.535530   -0.577889
    115          1           0       11.545204    0.516959    0.239824
    116          1           0       11.530878   -1.153756    0.592808
    117          1           0       12.897817   -1.488985   -1.249417
    118          1           0       12.856185    0.145425   -1.555391
    119          1           0       13.886335    0.832431    0.496049
    120          1           0       14.102893   -1.028461    0.974540
    121          1           0       15.451345    0.382472   -1.464518
    122          1           0       16.022210   -2.243004   -0.173803
    123          1           0       15.216316   -2.200267   -1.760535
    124          1           0       16.903631   -1.433564   -1.538325
    125          1           0       16.116096    1.312385    0.734864
    126          1           0       16.355255   -0.197310    1.266675
    127          1           0       18.470099   -0.526745   -0.334052
    128          1           0       17.972392    0.920001   -1.252071
    129          1           0       18.609315    2.191230    1.075219
    130          1           0       18.669989    0.673070    1.869909
    131          1           0       20.762236    0.394555    0.061721
    132          1           0       19.847238    3.189293   -0.884118
    133          1           0       21.329525    2.115226   -1.271402
    134          1           0       19.751790    1.661354   -1.735965
    135          1           0       20.945003    1.268700    2.308363
    136          1           0       22.193511    1.792548    1.069407
    137          1           0       20.805550    3.009752    1.524823
 ---------------------------------------------------------------------

 SCF Done:  E(RCAM-B3LYP) =  -2932.61536121     A.U. after   17 cycles

 Excitation energies and oscillator strengths:

 Excited State   1:      Singlet-A      2.1755 eV  569.92 nm  f=0.1896  <S**2>=0.000
     240 -> 242       -0.21400
     240 -> 243        0.23735
     241 -> 242        0.60173
     241 -> 243        0.16053
 This state for optimization and/or second-order correction.
 Total Energy, E(TD-HF/TD-KS) =  -2932.53541399
 Copying the excited state density for this state as the 1-particle RhoCI density.

 The electronic state is 1-A.
 Alpha  occ. eigenvalues --  -46.84705 -19.25645 -19.25357 -19.21535 -19.21401
 Alpha  occ. eigenvalues --  -19.20651 -14.41457 -14.39931 -14.39785 -14.39275
 Alpha  occ. eigenvalues --  -10.39669 -10.39465 -10.35296 -10.31899 -10.31896
 Alpha  occ. eigenvalues --  -10.31258 -10.30787 -10.30585 -10.30195 -10.29609
 Alpha  occ. eigenvalues --  -10.29465 -10.29311 -10.29091 -10.28656 -10.28614
 Alpha  occ. eigenvalues --  -10.28530 -10.28460 -10.28366 -10.28296 -10.28244
 Alpha  occ. eigenvalues --  -10.28153 -10.28097 -10.28090 -10.27957 -10.27848
 Alpha  occ. eigenvalues --  -10.27844 -10.27691 -10.27351 -10.27346 -10.27321
 Alpha  occ. eigenvalues --  -10.27111 -10.26841 -10.26598 -10.26356 -10.26344
 Alpha  occ. eigenvalues --  -10.26208 -10.26183 -10.26100 -10.25833 -10.25798
 Alpha  occ. eigenvalues --  -10.25544 -10.25447 -10.25417 -10.25385 -10.25050
 Alpha  occ. eigenvalues --  -10.24978 -10.24941 -10.24917 -10.24854 -10.24773
 Alpha  occ. eigenvalues --  -10.24773 -10.24264 -10.23808 -10.23000 -10.22795
 Alpha  occ. eigenvalues --   -3.13728  -1.88439  -1.87943  -1.87926  -1.17841
 Alpha  occ. eigenvalues --   -1.17333  -1.12617  -1.09578  -1.09079  -1.05316
 Alpha  occ. eigenvalues --   -1.04272  -1.03757  -1.02066  -0.92542  -0.91699
 Alpha  occ. eigenvalues --   -0.90610  -0.90142  -0.89746  -0.89526  -0.89128
 Alpha  occ. eigenvalues --   -0.88590  -0.88393  -0.87667  -0.87335  -0.86288
 Alpha  occ. eigenvalues --   -0.85521  -0.84354  -0.83064  -0.82758  -0.82403
 Alpha  occ. eigenvalues --   -0.81430  -0.80764  -0.80372  -0.80005  -0.78620
 Alpha  occ. eigenvalues --   -0.78149  -0.76828  -0.76015  -0.75774  -0.75541
 Alpha  occ. eigenvalues --   -0.75104  -0.74801  -0.74449  -0.73397  -0.72555
 Alpha  occ. eigenvalues --   -0.71756  -0.70797  -0.69447  -0.69192  -0.68395
 Alpha  occ. eigenvalues --   -0.67567  -0.67244  -0.66207  -0.65520  -0.65046
 Alpha  occ. eigenvalues --   -0.63737  -0.63074  -0.62535  -0.62354  -0.61522
 Alpha  occ. eigenvalues --   -0.61378  -0.60841  -0.60053  -0.59960  -0.59352
 Alpha  occ. eigenvalues --   -0.59083  -0.58321  -0.57425  -0.57126  -0.56737
 Alpha  occ. eigenvalues --   -0.56521  -0.55856  -0.55530  -0.55287  -0.54545
 Alpha  occ. eigenvalues --   -0.54206  -0.54050  -0.53773  -0.53511  -0.53341
 Alpha  occ. eigenvalues --   -0.53125  -0.52860  -0.52745  -0.52105  -0.51938
 Alpha  occ. eigenvalues --   -0.51826  -0.51556  -0.51273  -0.50886  -0.50398
 Alpha  occ. eigenvalues --   -0.50361  -0.50117  -0.49947  -0.49671  -0.49505
 Alpha  occ. eigenvalues --   -0.49481  -0.49006  -0.48940  -0.48791  -0.48639
 Alpha  occ. eigenvalues --   -0.48093  -0.47869  -0.47696  -0.47416  -0.47347
 Alpha  occ. eigenvalues --   -0.47300  -0.47077  -0.46623  -0.46506  -0.46101
 Alpha  occ. eigenvalues --   -0.45921  -0.45682  -0.45502  -0.45468  -0.44973
 Alpha  occ. eigenvalues --   -0.44783  -0.44686  -0.44604  -0.44372  -0.44276
 Alpha  occ. eigenvalues --   -0.43998  -0.43785  -0.43752  -0.43628  -0.43419
 Alpha  occ. eigenvalues --   -0.43083  -0.42870  -0.42653  -0.42432  -0.42374
 Alpha  occ. eigenvalues --   -0.41851  -0.41524  -0.41368  -0.41208  -0.41181
 Alpha  occ. eigenvalues --   -0.40817  -0.40782  -0.40605  -0.40355  -0.40132
 Alpha  occ. eigenvalues --   -0.40081  -0.39897  -0.39464  -0.39442  -0.39008
 Alpha  occ. eigenvalues --   -0.38860  -0.38553  -0.38510  -0.38359  -0.38152
 Alpha  occ. eigenvalues --   -0.37962  -0.37057  -0.37040  -0.36926  -0.36525
 Alpha  occ. eigenvalues --   -0.36306  -0.36068  -0.35723  -0.35438  -0.35386
 Alpha  occ. eigenvalues --   -0.35241  -0.34786  -0.34403  -0.34256  -0.34157
 Alpha  occ. eigenvalues --   -0.33320  -0.33160  -0.32471  -0.31129  -0.29970
 Alpha  occ. eigenvalues --   -0.29419  -0.29118  -0.28525  -0.28010  -0.23428
 Alpha  occ. eigenvalues --   -0.21610
 Alpha virt. eigenvalues --   -0.06253  -0.03289   0.01551   0.03695   0.04648
 Alpha virt. eigenvalues --    0.05069   0.05626   0.05655   0.06616   0.07057
 Alpha virt. eigenvalues --    0.08075   0.09825   0.10812   0.10905   0.11739

 Mulliken charges:
               1
     1  Mg   0.819805
     2  C    0.132700
     3  C   -0.227066
     4  C   -0.219445
     5  C   -0.174806
     6  N   -0.647386
     7  C    0.286164
     8  C   -0.168630
     9  C   -0.146252
    10  C    0.339345
    11  C   -0.303036
    12  C   -0.170445
    13  C   -0.287547
    14  C    0.632276
    15  O   -0.473931
    16  O   -0.490005
    17  N   -0.686797
    18  C    0.315785
    19  C   -0.004194
    20  C    0.000642
    21  C    0.347432
    22  C   -0.358742
    23  C   -0.079885
    24  C   -0.254811
    25  N   -0.668133
    26  C    0.293637
    27  C    0.000848
    28  C    0.073536
    29  C    0.290851
    30  C   -0.339520
    31  C   -0.254331
    32  C   -0.304122
    33  N   -0.743816
    34  C    0.196789
    35  C    0.009507
    36  C    0.018795
    37  C    0.318326
    38  C   -0.365502
    39  C    0.353812
    40  O   -0.430721
    41  C   -0.372108
    42  C    0.644600
    43  O   -0.461977
    44  O   -0.460195
    45  C   -0.068527
    46  C    0.027167
    47  C   -0.134726
    48  C    0.119032
    49  C   -0.342321
    50  C   -0.230665
    51  C   -0.171810
    52  C   -0.169833
    53  C   -0.071545
    54  C   -0.299226
    55  C   -0.148735
    56  C   -0.145346
    57  C   -0.156878
    58  C   -0.069761
    59  C   -0.304518
    60  C   -0.165868
    61  C   -0.187765
    62  C   -0.149365
    63  C   -0.092599
    64  C   -0.297679
    65  C   -0.277764
    66  H    0.075365
    67  H    0.096078
    68  H    0.091393
    69  H    0.128273
    70  H    0.114103
    71  H    0.107832
    72  H    0.114421
    73  H    0.132491
    74  H    0.118683
    75  H    0.118800
    76  H    0.136756
    77  H    0.126374
    78  H    0.145311
    79  H    0.112827
    80  H    0.139857
    81  H    0.110723
    82  H    0.110117
    83  H    0.097993
    84  H    0.074322
    85  H    0.112605
    86  H    0.121905
    87  H    0.105014
    88  H    0.081109
    89  H    0.105602
    90  H    0.093640
    91  H    0.121279
    92  H    0.141435
    93  H    0.147210
    94  H    0.102336
    95  H    0.159074
    96  H    0.101485
    97  H    0.108843
    98  H    0.123295
    99  H    0.092875
   100  H    0.130117
   101  H    0.102743
   102  H    0.122609
   103  H    0.099656
   104  H    0.111460
   105  H    0.101899
   106  H    0.085389
   107  H    0.116872
   108  H    0.082669
   109  H    0.084712
   110  H    0.083326
   111  H    0.030370
   112  H    0.087734
   113  H    0.113874
   114  H    0.085696
   115  H    0.091998
   116  H    0.099763
   117  H    0.085799
   118  H    0.092732
   119  H    0.071900
   120  H    0.034134
   121  H    0.084561
   122  H    0.107235
   123  H    0.098273
   124  H    0.077572
   125  H    0.102198
   126  H    0.097620
   127  H    0.106842
   128  H    0.085545
   129  H    0.097691
   130  H    0.062634
   131  H    0.077488
   132  H    0.100644
   133  H    0.112347
   134  H    0.085921
   135  H    0.074639
   136  H    0.091599
   137  H    0.109601
 Sum of Mulliken charges =   0.00000

 Dipole moment (field-independent basis, Debye):
    X=              1.0891    Y=              5.3047    Z=              0.7523  Tot=              5.4673
 Quadrupole moment (field-independent basis, Debye-Ang):
   XX=           -343.8604   YY=           -393.7082   ZZ=           -402.3387
   XY=            -21.2602   XZ=              2.7350   YZ=              2.9219

 Normal termination of Gaussian 09 at Sun Jun 30 04:48:35 2019.
