 Gaussian 09, Revision D.01,
 Gaussian 09:  ES64L-G09RevD.01 24-Apr-2013

 -------------------------------------
 # td=(NStates=1) CAM-B3LYP/6-31G(d,p)
 -------------------------------------

 --
 TD
 --
 Symbolic Z-matrix:
 Charge =  0 Multiplicity = 1

                         Standard orientation:
 ---------------------------------------------------------------------
 Center     Atomic      Atomic             Coordinates (Angstroms)
 Number     Number       Type             X           Y           Z
 ---------------------------------------------------------------------
      1         12           0       -7.230593    0.558998   -0.017337
      2          6           0       -4.881758   -1.880998    0.427264
      3          6           0       -4.930101    2.939358    1.288988
      4          6           0       -9.411262    3.038701   -0.280869
      5          6           0       -9.529465   -1.821639   -0.828263
      6          7           0       -5.204303    0.514539    0.764597
      7          6           0       -4.426280   -0.609011    0.705229
      8          6           0       -3.021147   -0.307648    1.105392
      9          6           0       -3.065679    1.152304    1.545323
     10          6           0       -4.470484    1.621418    1.234611
     11          6           0       -2.826671    1.229725    3.110226
     12          6           0       -1.914744   -0.571295    0.094942
     13          6           0       -0.456895   -0.370784    0.568667
     14          6           0        0.518789   -0.469814   -0.581380
     15          8           0        0.166476   -0.804999   -1.677888
     16          8           0        1.773197   -0.471338   -0.152204
     17          7           0       -7.138601    2.535190    0.313735
     18          6           0       -6.121675    3.397325    0.843788
     19          6           0       -6.499482    4.802156    0.978135
     20          6           0       -7.822256    4.854717    0.425994
     21          6           0       -8.218548    3.424196    0.104378
     22          6           0       -5.617782    5.947826    1.394138
     23          6           0       -8.684834    5.950548    0.247715
     24          6           0       -8.384320    7.213905   -0.105497
     25          7           0       -9.148020    0.613182   -0.628215
     26          6           0       -9.921301    1.735887   -0.667382
     27          6           0      -11.188429    1.378480   -1.038596
     28          6           0      -11.280479   -0.003724   -1.251309
     29          6           0      -10.004993   -0.504350   -0.907482
     30          6           0      -12.296661    2.397892   -1.293461
     31          6           0      -12.374535   -0.928284   -1.820303
     32          6           0      -12.288223   -1.147522   -3.320339
     33          7           0       -7.279967   -1.373661   -0.138550
     34          6           0       -8.320446   -2.216375   -0.522329
     35          6           0       -7.979182   -3.642924   -0.345743
     36          6           0       -6.536046   -3.599770   -0.103159
     37          6           0       -6.172534   -2.148529    0.011562
     38          6           0       -8.714286   -4.959265   -0.659196
     39          6           0       -5.369408   -4.289200    0.125550
     40          8           0       -5.139659   -5.475224    0.161920
     41          6           0       -4.227529   -3.279553    0.511501
     42          6           0       -3.484780   -3.552409    1.833778
     43          8           0       -3.688466   -2.919703    2.877579
     44          8           0       -2.754898   -4.670197    1.792599
     45          6           0       -2.170569   -5.111164    2.952114
     46          6           0        2.780059   -0.790288   -1.144316
     47          6           0        4.070892   -0.563477   -0.456021
     48          6           0        5.080026    0.118528   -0.952447
     49          6           0        5.024325    1.090226   -2.198957
     50          6           0        6.401234    0.299476   -0.261830
     51          6           0        7.758746   -0.305931   -0.872657
     52          6           0        9.032557   -0.184229   -0.080244
     53          6           0       10.391867   -0.431857   -0.785370
     54          6           0       10.419140   -1.855505   -1.327491
     55          6           0       11.587347   -0.049414    0.071722
     56          6           0       12.849851   -0.399978   -0.539665
     57          6           0       14.072711   -0.046288    0.136840
     58          6           0       15.385943   -0.175207   -0.441970
     59          6           0       15.614602   -1.604190   -0.842494
     60          6           0       16.492535    0.307338    0.387324
     61          6           0       17.914097    0.418731   -0.157126
     62          6           0       18.890643    1.271447    0.654693
     63          6           0       20.209991    1.263518    0.173537
     64          6           0       20.391905    2.062754   -1.206905
     65          6           0       21.314874    1.887759    1.245444
     66          1           0       -4.159956    3.342850    1.659788
     67          1           0      -10.231877    3.832492   -0.439022
     68          1           0      -10.358452   -2.764044   -1.058545
     69          1           0       -2.766706   -0.872625    1.980521
     70          1           0       -2.382182    1.941978    1.380001
     71          1           0       -1.739395    1.064716    3.192207
     72          1           0       -2.816266    2.442778    3.404306
     73          1           0       -3.609906    0.526990    3.713745
     74          1           0       -1.946366   -1.572238   -0.389377
     75          1           0       -2.211252    0.048786   -0.759442
     76          1           0       -0.461219    0.591715    1.154586
     77          1           0       -0.189987   -1.053633    1.282286
     78          1           0       -4.917179    6.366852    0.499184
     79          1           0       -6.117912    6.712726    2.191696
     80          1           0       -4.725048    5.609851    2.073822
     81          1           0       -9.686018    5.675913    0.262563
     82          1           0       -8.930831    8.076268   -0.358457
     83          1           0       -7.401686    7.714086   -0.067025
     84          1           0      -12.091290    3.098966   -2.085644
     85          1           0      -13.200047    1.724616   -1.391021
     86          1           0      -12.381304    2.700071   -0.262979
     87          1           0      -12.357693   -1.925505   -1.255409
     88          1           0      -13.400330   -0.715233   -1.490824
     89          1           0      -13.035090   -1.792110   -3.694858
     90          1           0      -12.592232   -0.158221   -3.785202
     91          1           0      -11.296722   -1.655360   -3.660252
     92          1           0       -8.854944   -4.633492   -1.692294
     93          1           0       -7.994589   -5.746156   -0.473002
     94          1           0       -9.809228   -4.962413   -0.110775
     95          1           0       -3.293305   -3.387940   -0.221173
     96          1           0       -1.545547   -4.399636    3.374181
     97          1           0       -3.008480   -5.362043    3.770743
     98          1           0       -1.551150   -6.030790    2.747420
     99          1           0        2.396319   -1.794538   -1.605251
    100          1           0        2.711514   -0.149112   -1.965142
    101          1           0        4.392637   -1.254661    0.438098
    102          1           0        3.948822    1.138710   -2.522131
    103          1           0        5.304927    2.020419   -1.817174
    104          1           0        5.698371    0.823296   -3.090811
    105          1           0        6.756856    1.275026    0.042439
    106          1           0        6.359711   -0.088919    0.712785
    107          1           0        7.735978   -1.423325   -1.007978
    108          1           0        8.093040    0.174940   -2.008090
    109          1           0        8.922942    0.855181    0.272407
    110          1           0        8.906743   -0.741455    0.882991
    111          1           0       10.441758    0.257498   -1.775907
    112          1           0        9.239900   -2.130434   -1.569358
    113          1           0       11.192572   -2.186811   -2.097078
    114          1           0       10.328342   -2.606682   -0.518116
    115          1           0       11.468970    1.053994    0.461846
    116          1           0       11.536434   -0.638349    1.147093
    117          1           0       12.899061   -1.492608   -0.855382
    118          1           0       12.954180    0.300690   -1.406392
    119          1           0       13.909065    1.256873    0.417867
    120          1           0       13.935578   -0.379108    1.051227
    121          1           0       15.498343    0.425340   -1.488068
    122          1           0       15.580277   -2.379115   -0.148473
    123          1           0       14.947776   -1.894505   -1.437164
    124          1           0       16.720209   -1.823463   -1.127065
    125          1           0       16.151360    1.333723    0.703994
    126          1           0       16.537878   -0.306550    1.210363
    127          1           0       18.366270   -0.546227   -0.346871
    128          1           0       17.827974    0.786607   -1.215571
    129          1           0       18.296695    2.320495    0.616682
    130          1           0       19.002197    0.943688    1.709072
    131          1           0       20.586260    0.099465    0.113653
    132          1           0       19.996002    3.062291   -1.024327
    133          1           0       21.554330    2.033224   -1.407043
    134          1           0       19.831709    1.559873   -1.944776
    135          1           0       21.319236    1.293392    2.279837
    136          1           0       22.235338    1.571495    0.478196
    137          1           0       21.252672    2.906828    1.242560
 ---------------------------------------------------------------------

 SCF Done:  E(RCAM-B3LYP) =  -2932.57775666     A.U. after   17 cycles

 Excitation energies and oscillator strengths:

 Excited State   1:      Singlet-A      2.1920 eV  565.62 nm  f=0.1345  <S**2>=0.000
     240 -> 242        0.13820
     240 -> 243        0.30481
     241 -> 242        0.59637
     241 -> 243       -0.13676
 This state for optimization and/or second-order correction.
 Total Energy, E(TD-HF/TD-KS) =  -2932.49720228
 Copying the excited state density for this state as the 1-particle RhoCI density.

 The electronic state is 1-A.
 Alpha  occ. eigenvalues --  -46.82339 -19.26715 -19.26550 -19.20981 -19.20515
 Alpha  occ. eigenvalues --  -19.18784 -14.41077 -14.39641 -14.39309 -14.37891
 Alpha  occ. eigenvalues --  -10.39482 -10.39109 -10.33712 -10.32494 -10.31359
 Alpha  occ. eigenvalues --  -10.31124 -10.30896 -10.30855 -10.30679 -10.29568
 Alpha  occ. eigenvalues --  -10.29562 -10.29264 -10.29102 -10.28782 -10.28745
 Alpha  occ. eigenvalues --  -10.28717 -10.28479 -10.28416 -10.28364 -10.28233
 Alpha  occ. eigenvalues --  -10.28119 -10.28018 -10.27528 -10.27409 -10.27377
 Alpha  occ. eigenvalues --  -10.27367 -10.27255 -10.27178 -10.27041 -10.26993
 Alpha  occ. eigenvalues --  -10.26901 -10.26786 -10.26684 -10.26658 -10.26636
 Alpha  occ. eigenvalues --  -10.26589 -10.26465 -10.26439 -10.26296 -10.26193
 Alpha  occ. eigenvalues --  -10.26061 -10.26017 -10.25454 -10.25406 -10.25381
 Alpha  occ. eigenvalues --  -10.25328 -10.25265 -10.25070 -10.24971 -10.24967
 Alpha  occ. eigenvalues --  -10.24906 -10.24541 -10.23843 -10.23781 -10.22526
 Alpha  occ. eigenvalues --   -3.11711  -1.86388  -1.86002  -1.85873  -1.19438
 Alpha  occ. eigenvalues --   -1.19356  -1.10477  -1.10204  -1.08475  -1.03542
 Alpha  occ. eigenvalues --   -1.02442  -1.01544  -1.00381  -0.93168  -0.92419
 Alpha  occ. eigenvalues --   -0.91674  -0.90578  -0.90110  -0.89586  -0.89326
 Alpha  occ. eigenvalues --   -0.89003  -0.87831  -0.87461  -0.86825  -0.86640
 Alpha  occ. eigenvalues --   -0.85815  -0.84703  -0.83607  -0.83484  -0.82515
 Alpha  occ. eigenvalues --   -0.82000  -0.81856  -0.81066  -0.80443  -0.78669
 Alpha  occ. eigenvalues --   -0.77927  -0.77056  -0.76566  -0.76429  -0.75706
 Alpha  occ. eigenvalues --   -0.75511  -0.74669  -0.74538  -0.74077  -0.72577
 Alpha  occ. eigenvalues --   -0.71452  -0.70947  -0.70139  -0.69522  -0.68989
 Alpha  occ. eigenvalues --   -0.67914  -0.67290  -0.65826  -0.65051  -0.64311
 Alpha  occ. eigenvalues --   -0.64094  -0.63982  -0.63530  -0.62201  -0.62058
 Alpha  occ. eigenvalues --   -0.61052  -0.60895  -0.60649  -0.59698  -0.58870
 Alpha  occ. eigenvalues --   -0.58653  -0.57696  -0.57366  -0.56813  -0.56309
 Alpha  occ. eigenvalues --   -0.56094  -0.56001  -0.55412  -0.55013  -0.54813
 Alpha  occ. eigenvalues --   -0.54619  -0.54316  -0.54171  -0.53847  -0.53812
 Alpha  occ. eigenvalues --   -0.53719  -0.52831  -0.52495  -0.52288  -0.52105
 Alpha  occ. eigenvalues --   -0.51741  -0.51529  -0.51395  -0.51040  -0.50754
 Alpha  occ. eigenvalues --   -0.50407  -0.50230  -0.50117  -0.50084  -0.49740
 Alpha  occ. eigenvalues --   -0.49674  -0.48938  -0.48879  -0.48813  -0.48488
 Alpha  occ. eigenvalues --   -0.48306  -0.47968  -0.47724  -0.47545  -0.47236
 Alpha  occ. eigenvalues --   -0.46719  -0.46594  -0.46426  -0.46281  -0.46014
 Alpha  occ. eigenvalues --   -0.45845  -0.45533  -0.45407  -0.45063  -0.44848
 Alpha  occ. eigenvalues --   -0.44727  -0.44534  -0.44440  -0.44169  -0.43966
 Alpha  occ. eigenvalues --   -0.43816  -0.43570  -0.43280  -0.43250  -0.43185
 Alpha  occ. eigenvalues --   -0.42872  -0.42619  -0.42553  -0.42445  -0.42303
 Alpha  occ. eigenvalues --   -0.42036  -0.41635  -0.41534  -0.41333  -0.41247
 Alpha  occ. eigenvalues --   -0.40702  -0.40660  -0.40442  -0.39838  -0.39810
 Alpha  occ. eigenvalues --   -0.39488  -0.39475  -0.39318  -0.39101  -0.38777
 Alpha  occ. eigenvalues --   -0.38588  -0.38207  -0.37978  -0.37731  -0.37577
 Alpha  occ. eigenvalues --   -0.37541  -0.37084  -0.37009  -0.36969  -0.36278
 Alpha  occ. eigenvalues --   -0.36030  -0.35608  -0.35594  -0.35418  -0.35392
 Alpha  occ. eigenvalues --   -0.35257  -0.35156  -0.34517  -0.34101  -0.33978
 Alpha  occ. eigenvalues --   -0.33394  -0.32964  -0.32816  -0.31521  -0.30128
 Alpha  occ. eigenvalues --   -0.29495  -0.29071  -0.27323  -0.26792  -0.23342
 Alpha  occ. eigenvalues --   -0.21389
 Alpha virt. eigenvalues --   -0.05561  -0.04108   0.01033   0.03862   0.04832
 Alpha virt. eigenvalues --    0.05501   0.06402   0.06521   0.07298   0.07883
 Alpha virt. eigenvalues --    0.08590   0.10206   0.10636   0.10944   0.11133

 Mulliken charges:
               1
     1  Mg   0.807494
     2  C    0.114665
     3  C   -0.112510
     4  C   -0.220818
     5  C   -0.179037
     6  N   -0.657318
     7  C    0.310756
     8  C   -0.160659
     9  C   -0.166248
    10  C    0.308064
    11  C   -0.310123
    12  C   -0.168345
    13  C   -0.279171
    14  C    0.611589
    15  O   -0.465269
    16  O   -0.466049
    17  N   -0.704828
    18  C    0.308834
    19  C    0.061248
    20  C    0.028545
    21  C    0.371329
    22  C   -0.379865
    23  C   -0.094071
    24  C   -0.244838
    25  N   -0.722764
    26  C    0.353877
    27  C   -0.078316
    28  C    0.056723
    29  C    0.242497
    30  C   -0.357373
    31  C   -0.249985
    32  C   -0.293779
    33  N   -0.741291
    34  C    0.311592
    35  C    0.024838
    36  C    0.024229
    37  C    0.262701
    38  C   -0.355075
    39  C    0.323168
    40  O   -0.475235
    41  C   -0.318042
    42  C    0.610402
    43  O   -0.486614
    44  O   -0.407810
    45  C   -0.080197
    46  C    0.001732
    47  C   -0.124986
    48  C    0.124302
    49  C   -0.356411
    50  C   -0.245277
    51  C   -0.163185
    52  C   -0.192341
    53  C   -0.021628
    54  C   -0.318260
    55  C   -0.152379
    56  C   -0.164512
    57  C   -0.136071
    58  C   -0.041259
    59  C   -0.315095
    60  C   -0.153310
    61  C   -0.192353
    62  C   -0.125962
    63  C   -0.070858
    64  C   -0.308884
    65  C   -0.299284
    66  H    0.023071
    67  H    0.087510
    68  H    0.086641
    69  H    0.144043
    70  H    0.112973
    71  H    0.113430
    72  H    0.071346
    73  H    0.134388
    74  H    0.108832
    75  H    0.117210
    76  H    0.116608
    77  H    0.146732
    78  H    0.121697
    79  H    0.121108
    80  H    0.105757
    81  H    0.097031
    82  H    0.115727
    83  H    0.102160
    84  H    0.128766
    85  H    0.102381
    86  H    0.128773
    87  H    0.088160
    88  H    0.102823
    89  H    0.108912
    90  H    0.107482
    91  H    0.103354
    92  H    0.150901
    93  H    0.166786
    94  H    0.115163
    95  H    0.139849
    96  H    0.125806
    97  H    0.109993
    98  H    0.119798
    99  H    0.130865
   100  H    0.129486
   101  H    0.090498
   102  H    0.101984
   103  H    0.131146
   104  H    0.124050
   105  H    0.111114
   106  H    0.104166
   107  H    0.094671
   108  H    0.057084
   109  H    0.084877
   110  H    0.091845
   111  H    0.072008
   112  H    0.072755
   113  H    0.114197
   114  H    0.103074
   115  H    0.089144
   116  H    0.053323
   117  H    0.097040
   118  H    0.092982
   119  H    0.009271
   120  H    0.099307
   121  H    0.058103
   122  H    0.100763
   123  H    0.108159
   124  H    0.085568
   125  H    0.077738
   126  H    0.096384
   127  H    0.088375
   128  H    0.083524
   129  H    0.066828
   130  H    0.086594
   131  H    0.062074
   132  H    0.110097
   133  H    0.087565
   134  H    0.117561
   135  H    0.093402
   136  H    0.074512
   137  H    0.121759
 Sum of Mulliken charges =   0.00000

 Dipole moment (field-independent basis, Debye):
    X=              2.5968    Y=              3.9224    Z=              0.5658  Tot=              4.7380
 Quadrupole moment (field-independent basis, Debye-Ang):
   XX=           -366.3956   YY=           -385.6127   ZZ=           -402.5550
   XY=            -24.1085   XZ=             11.4655   YZ=              0.0607

 Normal termination of Gaussian 09 at Fri Jun 28 12:16:28 2019.
