 Gaussian 09, Revision D.01,
 Gaussian 09:  ES64L-G09RevD.01 24-Apr-2013

 -------------------------------------
 # td=(NStates=1) CAM-B3LYP/6-31G(d,p)
 -------------------------------------

 --
 TD
 --
 Symbolic Z-matrix:
 Charge =  0 Multiplicity = 1

                         Standard orientation:
 ---------------------------------------------------------------------
 Center     Atomic      Atomic             Coordinates (Angstroms)
 Number     Number       Type             X           Y           Z
 ---------------------------------------------------------------------
      1         12           0       -7.106973    0.580651    0.138672
      2          6           0       -4.873806   -1.906209    0.472884
      3          6           0       -4.832652    2.794483    1.245351
      4          6           0       -9.348057    3.159939   -0.404875
      5          6           0       -9.617311   -1.612812   -0.742728
      6          7           0       -5.102061    0.435005    0.700676
      7          6           0       -4.366516   -0.706083    0.772737
      8          6           0       -2.989577   -0.361123    1.170833
      9          6           0       -3.014370    0.983399    1.652482
     10          6           0       -4.384279    1.460235    1.159793
     11          6           0       -2.842023    1.127673    3.226523
     12          6           0       -1.917618   -0.667531    0.033318
     13          6           0       -0.470361   -0.572047    0.465592
     14          6           0        0.547812   -0.779706   -0.639036
     15          8           0        0.194740   -1.135037   -1.809200
     16          8           0        1.718047   -0.534840   -0.272434
     17          7           0       -7.083856    2.609759    0.360950
     18          6           0       -5.974296    3.333310    0.745594
     19          6           0       -6.363394    4.722027    0.886794
     20          6           0       -7.641364    4.924670    0.454599
     21          6           0       -8.096388    3.516784    0.088008
     22          6           0       -5.321499    5.800243    1.278669
     23          6           0       -8.455896    6.082276    0.332703
     24          6           0       -7.982200    7.321360    0.078344
     25          7           0       -9.102553    0.781223   -0.556199
     26          6           0       -9.832387    1.798793   -0.596800
     27          6           0      -11.180668    1.612800   -0.984869
     28          6           0      -11.294916    0.253444   -1.092556
     29          6           0       -9.997504   -0.245520   -0.759406
     30          6           0      -12.327376    2.518046   -1.168947
     31          6           0      -12.381768   -0.726078   -1.574897
     32          6           0      -12.418401   -1.020940   -3.115247
     33          7           0       -7.236244   -1.400229   -0.076376
     34          6           0       -8.373276   -2.244293   -0.558096
     35          6           0       -7.877534   -3.539566   -0.581959
     36          6           0       -6.552114   -3.568289   -0.108326
     37          6           0       -6.242105   -2.167842    0.103956
     38          6           0       -8.690112   -4.741380   -0.817381
     39          6           0       -5.291689   -4.318418    0.149930
     40          8           0       -5.135038   -5.503815    0.056592
     41          6           0       -4.193520   -3.252829    0.532104
     42          6           0       -3.627325   -3.686808    1.876763
     43          8           0       -4.069354   -3.328803    2.942156
     44          8           0       -2.766805   -4.678451    1.634973
     45          6           0       -2.310797   -5.389890    2.815026
     46          6           0        2.837078   -0.716870   -1.294841
     47          6           0        4.031230   -0.522126   -0.665584
     48          6           0        5.056995    0.332985   -1.055640
     49          6           0        4.941624    1.179934   -2.378454
     50          6           0        6.428338    0.271999   -0.343560
     51          6           0        7.738724   -0.139286   -1.080556
     52          6           0        8.956634   -0.160883   -0.273056
     53          6           0       10.307298   -0.468472   -1.041255
     54          6           0       10.225598   -1.975755   -1.450429
     55          6           0       11.393813   -0.189336   -0.084674
     56          6           0       12.840746   -0.348347   -0.746725
     57          6           0       13.923395   -0.101825    0.290106
     58          6           0       15.424613   -0.174926   -0.289648
     59          6           0       15.840345   -1.597787   -0.803051
     60          6           0       16.348657    0.422138    0.554196
     61          6           0       17.757322    0.610021   -0.021606
     62          6           0       18.802009    1.311722    0.805224
     63          6           0       20.224294    1.260913    0.282938
     64          6           0       20.301641    2.088524   -1.028392
     65          6           0       21.256475    1.802767    1.429439
     66          1           0       -4.017175    3.484051    1.633428
     67          1           0      -10.060341    4.026493   -0.532527
     68          1           0      -10.474120   -2.431272   -0.887375
     69          1           0       -2.887368   -1.121523    2.040063
     70          1           0       -2.376329    1.670341    1.411785
     71          1           0       -1.996290    0.790673    3.516272
     72          1           0       -2.841906    2.124399    3.370844
     73          1           0       -3.496036    0.624456    3.644861
     74          1           0       -2.122789   -1.640973   -0.193639
     75          1           0       -2.148864   -0.171141   -0.739629
     76          1           0       -0.241764    0.492618    0.766020
     77          1           0       -0.096970   -1.352964    1.110339
     78          1           0       -4.675747    6.212079    0.500718
     79          1           0       -5.794713    6.605907    1.743459
     80          1           0       -4.740377    5.396900    2.174020
     81          1           0       -9.593501    5.906380    0.550362
     82          1           0       -8.569643    8.251364    0.083711
     83          1           0       -6.915989    7.426552   -0.028451
     84          1           0      -12.279402    3.286842   -1.897398
     85          1           0      -13.218903    1.910014   -1.393243
     86          1           0      -12.640818    3.099119   -0.252517
     87          1           0      -12.527748   -1.703462   -0.931203
     88          1           0      -13.412801   -0.291442   -1.512266
     89          1           0      -13.370541   -1.585766   -3.395237
     90          1           0      -12.279126   -0.008862   -3.707784
     91          1           0      -11.590692   -1.558948   -3.297966
     92          1           0       -8.840724   -4.890248   -2.070840
     93          1           0       -8.156553   -5.774381   -0.799247
     94          1           0       -9.750600   -4.805440   -0.272032
     95          1           0       -3.466589   -3.408279   -0.272107
     96          1           0       -1.727981   -4.741018    3.515794
     97          1           0       -3.338802   -5.488506    3.552931
     98          1           0       -1.853940   -6.350211    2.339347
     99          1           0        2.770495   -1.642277   -1.766862
    100          1           0        2.445695   -0.027917   -2.045985
    101          1           0        4.267899   -1.084327    0.225018
    102          1           0        3.883882    1.068121   -2.541712
    103          1           0        5.334584    2.223221   -2.192859
    104          1           0        5.624750    0.741831   -3.190968
    105          1           0        6.469327    1.373487   -0.011025
    106          1           0        6.230492   -0.321326    0.561330
    107          1           0        7.548829   -1.089823   -1.618145
    108          1           0        7.999075    0.596352   -1.907666
    109          1           0        8.894394    0.884573    0.371778
    110          1           0        8.787646   -0.842688    0.583966
    111          1           0       10.370665    0.268852   -1.679449
    112          1           0        9.418780   -2.126427   -2.079024
    113          1           0       10.981157   -2.326973   -2.014856
    114          1           0       10.152928   -2.654769   -0.439878
    115          1           0       11.271040    0.831326    0.262643
    116          1           0       11.452791   -0.837255    0.722974
    117          1           0       12.716570   -1.342467   -1.272207
    118          1           0       12.902420    0.480247   -1.505652
    119          1           0       14.203956    0.849625    0.836938
    120          1           0       13.941357   -0.776003    1.168901
    121          1           0       15.423393    0.383102   -1.208411
    122          1           0       16.184483   -2.243484   -0.033375
    123          1           0       15.217453   -2.056576   -1.491242
    124          1           0       16.713462   -1.529290   -1.389558
    125          1           0       15.940139    1.223039    1.098447
    126          1           0       16.083023   -0.258552    1.641163
    127          1           0       18.318140   -0.454420   -0.163154
    128          1           0       17.643813    1.110053   -1.026609
    129          1           0       18.545799    2.560137    0.818969
    130          1           0       18.818164    0.861564    1.912849
    131          1           0       20.411802    0.158537    0.104676
    132          1           0       20.174866    3.103027   -0.767844
    133          1           0       21.380850    2.000857   -1.452753
    134          1           0       19.445439    1.786379   -1.628279
    135          1           0       21.175062    1.118145    2.296967
    136          1           0       22.282144    2.093230    0.998835
    137          1           0       20.893087    2.689530    1.759568
 ---------------------------------------------------------------------

 SCF Done:  E(RCAM-B3LYP) =  -2932.64470427     A.U. after   17 cycles

 Excitation energies and oscillator strengths:

 Excited State   1:      Singlet-A      2.2386 eV  553.84 nm  f=0.1760  <S**2>=0.000
     240 -> 242        0.14735
     240 -> 243       -0.25425
     241 -> 242        0.62289
     241 -> 243        0.11413
 This state for optimization and/or second-order correction.
 Total Energy, E(TD-HF/TD-KS) =  -2932.56243632
 Copying the excited state density for this state as the 1-particle RhoCI density.

 The electronic state is 1-A.
 Alpha  occ. eigenvalues --  -46.83993 -19.27054 -19.26563 -19.20846 -19.19283
 Alpha  occ. eigenvalues --  -19.18133 -14.40941 -14.39067 -14.38894 -14.38446
 Alpha  occ. eigenvalues --  -10.38802 -10.37871 -10.34319 -10.33292 -10.32058
 Alpha  occ. eigenvalues --  -10.31137 -10.29966 -10.29613 -10.29496 -10.29179
 Alpha  occ. eigenvalues --  -10.29103 -10.28280 -10.28270 -10.28184 -10.27871
 Alpha  occ. eigenvalues --  -10.27820 -10.27662 -10.27640 -10.27605 -10.27500
 Alpha  occ. eigenvalues --  -10.27445 -10.27435 -10.27431 -10.27419 -10.27367
 Alpha  occ. eigenvalues --  -10.27322 -10.27151 -10.26800 -10.26736 -10.26695
 Alpha  occ. eigenvalues --  -10.26663 -10.26450 -10.26419 -10.26413 -10.26280
 Alpha  occ. eigenvalues --  -10.26133 -10.26050 -10.25945 -10.25830 -10.25743
 Alpha  occ. eigenvalues --  -10.25647 -10.25479 -10.25426 -10.25420 -10.25397
 Alpha  occ. eigenvalues --  -10.25284 -10.25074 -10.24874 -10.24853 -10.24772
 Alpha  occ. eigenvalues --  -10.24210 -10.24036 -10.23910 -10.22462 -10.21978
 Alpha  occ. eigenvalues --   -3.13065  -1.87778  -1.87307  -1.87239  -1.19994
 Alpha  occ. eigenvalues --   -1.18334  -1.10911  -1.09557  -1.06225  -1.05484
 Alpha  occ. eigenvalues --   -1.05056  -1.02818  -1.02357  -0.92319  -0.91794
 Alpha  occ. eigenvalues --   -0.91573  -0.91093  -0.90691  -0.89448  -0.88685
 Alpha  occ. eigenvalues --   -0.88494  -0.88029  -0.87492  -0.87117  -0.86771
 Alpha  occ. eigenvalues --   -0.85797  -0.84203  -0.83544  -0.82831  -0.82287
 Alpha  occ. eigenvalues --   -0.81997  -0.80778  -0.80397  -0.80148  -0.79311
 Alpha  occ. eigenvalues --   -0.77662  -0.77224  -0.77078  -0.76861  -0.76043
 Alpha  occ. eigenvalues --   -0.75768  -0.75187  -0.74923  -0.74616  -0.72288
 Alpha  occ. eigenvalues --   -0.71885  -0.71236  -0.70070  -0.69341  -0.68285
 Alpha  occ. eigenvalues --   -0.67110  -0.66625  -0.65864  -0.65069  -0.64688
 Alpha  occ. eigenvalues --   -0.64523  -0.64364  -0.63373  -0.63065  -0.61682
 Alpha  occ. eigenvalues --   -0.61116  -0.60904  -0.60256  -0.60092  -0.59265
 Alpha  occ. eigenvalues --   -0.58315  -0.58118  -0.57602  -0.57361  -0.57108
 Alpha  occ. eigenvalues --   -0.55913  -0.55650  -0.55437  -0.55104  -0.54951
 Alpha  occ. eigenvalues --   -0.54548  -0.54237  -0.53915  -0.53565  -0.53251
 Alpha  occ. eigenvalues --   -0.52866  -0.52743  -0.52627  -0.52581  -0.51982
 Alpha  occ. eigenvalues --   -0.51731  -0.51166  -0.51122  -0.50902  -0.50687
 Alpha  occ. eigenvalues --   -0.50456  -0.50036  -0.49985  -0.49819  -0.49668
 Alpha  occ. eigenvalues --   -0.49484  -0.49401  -0.49102  -0.48565  -0.48469
 Alpha  occ. eigenvalues --   -0.48056  -0.47844  -0.47578  -0.47287  -0.47236
 Alpha  occ. eigenvalues --   -0.47159  -0.46641  -0.46577  -0.46485  -0.46118
 Alpha  occ. eigenvalues --   -0.45965  -0.45810  -0.45667  -0.45505  -0.45115
 Alpha  occ. eigenvalues --   -0.45015  -0.44929  -0.44538  -0.44370  -0.44084
 Alpha  occ. eigenvalues --   -0.43958  -0.43855  -0.43648  -0.43510  -0.43363
 Alpha  occ. eigenvalues --   -0.43080  -0.42922  -0.42830  -0.42698  -0.42485
 Alpha  occ. eigenvalues --   -0.42204  -0.42055  -0.41871  -0.41605  -0.41402
 Alpha  occ. eigenvalues --   -0.41193  -0.41073  -0.40949  -0.40742  -0.40493
 Alpha  occ. eigenvalues --   -0.40405  -0.40127  -0.39945  -0.39731  -0.39401
 Alpha  occ. eigenvalues --   -0.39275  -0.39205  -0.38333  -0.38263  -0.38132
 Alpha  occ. eigenvalues --   -0.38083  -0.37355  -0.37181  -0.36912  -0.36764
 Alpha  occ. eigenvalues --   -0.36601  -0.36174  -0.35972  -0.35723  -0.35600
 Alpha  occ. eigenvalues --   -0.35062  -0.34996  -0.33648  -0.33332  -0.33251
 Alpha  occ. eigenvalues --   -0.32855  -0.32204  -0.31536  -0.30242  -0.29705
 Alpha  occ. eigenvalues --   -0.29063  -0.28815  -0.28152  -0.27879  -0.22930
 Alpha  occ. eigenvalues --   -0.21292
 Alpha virt. eigenvalues --   -0.05388  -0.02745   0.02568   0.04102   0.04502
 Alpha virt. eigenvalues --    0.06358   0.06728   0.06880   0.08221   0.08468
 Alpha virt. eigenvalues --    0.08755   0.11192   0.11362   0.11747   0.12032

 Mulliken charges:
               1
     1  Mg   0.813586
     2  C    0.078364
     3  C   -0.228209
     4  C   -0.196664
     5  C   -0.193106
     6  N   -0.661935
     7  C    0.317260
     8  C   -0.189384
     9  C   -0.134500
    10  C    0.342789
    11  C   -0.288897
    12  C   -0.126188
    13  C   -0.256887
    14  C    0.576175
    15  O   -0.546795
    16  O   -0.441354
    17  N   -0.706427
    18  C    0.353541
    19  C   -0.023864
    20  C    0.060085
    21  C    0.291336
    22  C   -0.375287
    23  C   -0.090920
    24  C   -0.242935
    25  N   -0.636154
    26  C    0.319344
    27  C    0.024830
    28  C    0.062366
    29  C    0.243926
    30  C   -0.387710
    31  C   -0.259615
    32  C   -0.296148
    33  N   -0.753606
    34  C    0.253134
    35  C    0.019558
    36  C    0.014870
    37  C    0.335962
    38  C   -0.389440
    39  C    0.360864
    40  O   -0.453547
    41  C   -0.331226
    42  C    0.628555
    43  O   -0.481858
    44  O   -0.434657
    45  C   -0.094245
    46  C   -0.018160
    47  C   -0.114513
    48  C    0.073902
    49  C   -0.340679
    50  C   -0.219150
    51  C   -0.163697
    52  C   -0.173966
    53  C   -0.046980
    54  C   -0.310699
    55  C   -0.174554
    56  C   -0.191698
    57  C   -0.183092
    58  C   -0.047886
    59  C   -0.321364
    60  C   -0.161409
    61  C   -0.167771
    62  C   -0.149694
    63  C   -0.056686
    64  C   -0.306861
    65  C   -0.319405
    66  H    0.073628
    67  H    0.082678
    68  H    0.097071
    69  H    0.110908
    70  H    0.101612
    71  H    0.117365
    72  H    0.104163
    73  H    0.127838
    74  H    0.118532
    75  H    0.119786
    76  H    0.119961
    77  H    0.135164
    78  H    0.130657
    79  H    0.125672
    80  H    0.104834
    81  H    0.099299
    82  H    0.111670
    83  H    0.106175
    84  H    0.121805
    85  H    0.114896
    86  H    0.109641
    87  H    0.098353
    88  H    0.099694
    89  H    0.100545
    90  H    0.098107
    91  H    0.127350
    92  H    0.083923
    93  H    0.143468
    94  H    0.113322
    95  H    0.164975
    96  H    0.132657
    97  H    0.119032
    98  H    0.137445
    99  H    0.158618
   100  H    0.149571
   101  H    0.100447
   102  H    0.110268
   103  H    0.113666
   104  H    0.122781
   105  H    0.095160
   106  H    0.098098
   107  H    0.099416
   108  H    0.082919
   109  H    0.058967
   110  H    0.088160
   111  H    0.093299
   112  H    0.111430
   113  H    0.114237
   114  H    0.090708
   115  H    0.091612
   116  H    0.096763
   117  H    0.102516
   118  H    0.088950
   119  H    0.087988
   120  H    0.090814
   121  H    0.078253
   122  H    0.099737
   123  H    0.101099
   124  H    0.100274
   125  H    0.109883
   126  H    0.025127
   127  H    0.084585
   128  H    0.100745
   129  H    0.042495
   130  H    0.078101
   131  H    0.078183
   132  H    0.110285
   133  H    0.093714
   134  H    0.104243
   135  H    0.103363
   136  H    0.092735
   137  H    0.117943
 Sum of Mulliken charges =   0.00000

 Dipole moment (field-independent basis, Debye):
    X=              4.5262    Y=              5.3666    Z=              0.5996  Tot=              7.0460
 Quadrupole moment (field-independent basis, Debye-Ang):
   XX=           -351.1782   YY=           -388.5244   ZZ=           -400.1241
   XY=            -24.5049   XZ=             -1.9420   YZ=             -0.8326

 Normal termination of Gaussian 09 at Thu Jun 27 15:09:25 2019.
