 Gaussian 09, Revision D.01,
 Gaussian 09:  ES64L-G09RevD.01 24-Apr-2013

 -------------------------------------
 # td=(NStates=1) CAM-B3LYP/6-31G(d,p)
 -------------------------------------

 --
 TD
 --
 Symbolic Z-matrix:
 Charge =  0 Multiplicity = 1

                         Standard orientation:
 ---------------------------------------------------------------------
 Center     Atomic      Atomic             Coordinates (Angstroms)
 Number     Number       Type             X           Y           Z
 ---------------------------------------------------------------------
      1         12           0       -7.080559    0.553647    0.039436
      2          6           0       -4.746731   -2.040304    0.506916
      3          6           0       -4.809967    2.824933    1.189220
      4          6           0       -9.471323    3.030175   -0.221111
      5          6           0       -9.437376   -1.775657   -0.939650
      6          7           0       -5.125745    0.376250    0.811314
      7          6           0       -4.304660   -0.766337    0.912831
      8          6           0       -2.869312   -0.369312    1.292379
      9          6           0       -3.074905    1.103859    1.774885
     10          6           0       -4.428612    1.530285    1.196161
     11          6           0       -2.950091    1.216249    3.246695
     12          6           0       -1.959621   -0.547984    0.109790
     13          6           0       -0.511208   -0.379418    0.551726
     14          6           0        0.499034   -0.554158   -0.625515
     15          8           0        0.067615   -0.814619   -1.726903
     16          8           0        1.731609   -0.309166   -0.248290
     17          7           0       -7.144538    2.623129    0.444329
     18          6           0       -6.104602    3.327342    0.867800
     19          6           0       -6.447479    4.756166    0.890936
     20          6           0       -7.845331    4.869976    0.483730
     21          6           0       -8.263903    3.370646    0.240666
     22          6           0       -5.679656    5.897306    1.404239
     23          6           0       -8.741936    5.836179    0.352388
     24          6           0       -8.302226    7.183468    0.119034
     25          7           0       -9.161148    0.627166   -0.529517
     26          6           0       -9.914677    1.782251   -0.565684
     27          6           0      -11.242974    1.394594   -1.147122
     28          6           0      -11.187141   -0.006142   -1.295769
     29          6           0       -9.895772   -0.421750   -0.962408
     30          6           0      -12.215856    2.374973   -1.421147
     31          6           0      -12.299398   -0.796192   -1.894207
     32          6           0      -12.114897   -1.051524   -3.427115
     33          7           0       -7.212646   -1.451786   -0.235151
     34          6           0       -8.234228   -2.291781   -0.600656
     35          6           0       -7.722406   -3.634392   -0.567599
     36          6           0       -6.393470   -3.560821   -0.150472
     37          6           0       -6.120117   -2.121403    0.054548
     38          6           0       -8.430250   -4.943327   -0.999511
     39          6           0       -5.207394   -4.351546    0.193872
     40          8           0       -4.993900   -5.564399    0.157951
     41          6           0       -4.099267   -3.344751    0.524590
     42          6           0       -3.485234   -3.668395    1.857583
     43          8           0       -3.614213   -3.082654    2.963267
     44          8           0       -2.724847   -4.785596    1.788472
     45          6           0       -2.184866   -5.335262    3.074822
     46          6           0        2.693177   -0.527254   -1.263913
     47          6           0        4.019867   -0.366516   -0.546769
     48          6           0        5.057968    0.495722   -0.885064
     49          6           0        4.937374    1.481074   -2.011085
     50          6           0        6.337107    0.434355   -0.105107
     51          6           0        7.590138   -0.007726   -0.982279
     52          6           0        8.846545   -0.060079   -0.056087
     53          6           0       10.148711   -0.440141   -0.892850
     54          6           0       10.111933   -2.004017   -1.184656
     55          6           0       11.379439   -0.156137   -0.086747
     56          6           0       12.761381   -0.410051   -0.691345
     57          6           0       13.913355   -0.138632    0.153749
     58          6           0       15.404988   -0.309396   -0.482607
     59          6           0       15.594399   -1.755739   -0.784280
     60          6           0       16.365201    0.374769    0.410376
     61          6           0       17.749468    0.561539   -0.237081
     62          6           0       18.875005    1.308215    0.736855
     63          6           0       20.341335    1.182906    0.227555
     64          6           0       20.473949    1.877076   -1.221561
     65          6           0       21.186220    1.956575    1.152998
     66          1           0       -4.167854    3.550133    1.477504
     67          1           0      -10.202448    3.777537   -0.409625
     68          1           0      -10.344856   -2.593268   -1.121734
     69          1           0       -2.654195   -0.996087    2.292029
     70          1           0       -2.242738    1.782026    1.259752
     71          1           0       -1.774256    0.876660    3.608934
     72          1           0       -3.106207    2.202482    3.605030
     73          1           0       -3.682307    0.686862    3.694012
     74          1           0       -2.182632   -1.482808   -0.221137
     75          1           0       -2.313498   -0.083381   -0.753631
     76          1           0       -0.258712    0.751898    0.692430
     77          1           0        0.180572   -0.834362    1.511623
     78          1           0       -5.022123    6.182404    0.648537
     79          1           0       -6.304396    6.920426    1.739999
     80          1           0       -5.055236    5.761178    2.235674
     81          1           0       -9.928561    5.595452    0.495261
     82          1           0       -9.208243    7.787487    0.045383
     83          1           0       -7.462026    7.401751   -0.428744
     84          1           0      -12.020659    3.105831   -2.055461
     85          1           0      -13.079566    1.876575   -1.786232
     86          1           0      -12.503670    2.973624   -0.523051
     87          1           0      -12.352773   -1.827240   -1.417060
     88          1           0      -13.130314   -0.503869   -1.629752
     89          1           0      -13.063284   -1.582161   -3.577086
     90          1           0      -12.093790   -0.128090   -3.976149
     91          1           0      -10.979218   -1.266510   -3.769672
     92          1           0       -8.922237   -4.834406   -2.031903
     93          1           0       -7.811167   -5.831860   -0.895620
     94          1           0       -9.497618   -4.969398   -0.386209
     95          1           0       -3.188520   -3.522636   -0.304056
     96          1           0       -1.773971   -4.583338    3.744772
     97          1           0       -3.028468   -5.716203    3.632634
     98          1           0       -1.509727   -6.114664    2.825972
     99          1           0        2.846496   -1.565174   -1.787296
    100          1           0        2.681075    0.186369   -2.165365
    101          1           0        4.267291   -0.804993    0.195357
    102          1           0        3.869952    1.578833   -2.369419
    103          1           0        5.364880    2.401750   -1.635765
    104          1           0        5.479904    0.919221   -2.826263
    105          1           0        6.695380    1.556959    0.207960
    106          1           0        6.111854   -0.288181    0.690866
    107          1           0        7.195104   -1.058667   -1.233046
    108          1           0        7.855888    0.835514   -1.896730
    109          1           0        9.191901    0.881870    0.366235
    110          1           0        8.649141   -0.510269    0.927959
    111          1           0       10.105469    0.094079   -1.802103
    112          1           0        9.271943   -2.111725   -1.954791
    113          1           0       11.020855   -2.356259   -1.822135
    114          1           0        9.821770   -2.633191   -0.265962
    115          1           0       11.483352    1.028240   -0.115884
    116          1           0       11.296750   -0.575540    1.016564
    117          1           0       12.668610   -1.530102   -1.021009
    118          1           0       12.765413    0.293368   -1.579639
    119          1           0       13.976850    0.739367    0.521788
    120          1           0       13.925252   -0.911561    0.947353
    121          1           0       15.316040    0.384476   -1.412070
    122          1           0       15.768384   -2.419256    0.112151
    123          1           0       14.835505   -2.214106   -1.487999
    124          1           0       16.548594   -2.000478   -1.356474
    125          1           0       16.019727    1.396583    0.615842
    126          1           0       16.439276   -0.050054    1.282213
    127          1           0       18.187651   -0.382106   -0.672430
    128          1           0       17.732338    1.167112   -1.218208
    129          1           0       18.680552    2.405030    1.059382
    130          1           0       18.654620    0.730659    1.669850
    131          1           0       20.681263    0.138474    0.143468
    132          1           0       20.044836    2.849127   -1.150569
    133          1           0       21.390136    1.994483   -1.510912
    134          1           0       19.814903    1.422382   -1.893151
    135          1           0       21.051757    1.339827    2.071134
    136          1           0       22.227283    2.122241    0.805229
    137          1           0       20.953576    2.961118    1.273725
 ---------------------------------------------------------------------

 SCF Done:  E(RCAM-B3LYP) =  -2932.57565825     A.U. after   16 cycles

 Excitation energies and oscillator strengths:

 Excited State   1:      Singlet-A      2.0533 eV  603.82 nm  f=0.2937  <S**2>=0.000
     240 -> 243       -0.22325
     241 -> 242        0.65774
 This state for optimization and/or second-order correction.
 Total Energy, E(TD-HF/TD-KS) =  -2932.50019975
 Copying the excited state density for this state as the 1-particle RhoCI density.

 The electronic state is 1-A.
 Alpha  occ. eigenvalues --  -46.85203 -19.28429 -19.25831 -19.20541 -19.20298
 Alpha  occ. eigenvalues --  -19.20273 -14.41545 -14.40056 -14.39810 -14.38710
 Alpha  occ. eigenvalues --  -10.39424 -10.38992 -10.35363 -10.33663 -10.31308
 Alpha  occ. eigenvalues --  -10.30859 -10.30744 -10.30623 -10.29920 -10.29893
 Alpha  occ. eigenvalues --  -10.29548 -10.29155 -10.29134 -10.29085 -10.29000
 Alpha  occ. eigenvalues --  -10.28837 -10.28334 -10.28153 -10.27994 -10.27778
 Alpha  occ. eigenvalues --  -10.27748 -10.27602 -10.27349 -10.27272 -10.27129
 Alpha  occ. eigenvalues --  -10.27075 -10.26999 -10.26379 -10.26371 -10.26332
 Alpha  occ. eigenvalues --  -10.26247 -10.26219 -10.26198 -10.26117 -10.26019
 Alpha  occ. eigenvalues --  -10.25993 -10.25989 -10.25944 -10.25878 -10.25762
 Alpha  occ. eigenvalues --  -10.25753 -10.25491 -10.25476 -10.25395 -10.25363
 Alpha  occ. eigenvalues --  -10.25275 -10.25150 -10.24857 -10.24794 -10.23949
 Alpha  occ. eigenvalues --  -10.23822 -10.23817 -10.23404 -10.23193 -10.22022
 Alpha  occ. eigenvalues --   -3.13999  -1.88729  -1.88219  -1.88168  -1.20687
 Alpha  occ. eigenvalues --   -1.16140  -1.10181  -1.10162  -1.06169  -1.04998
 Alpha  occ. eigenvalues --   -1.03834  -1.02160  -1.01476  -0.93307  -0.91207
 Alpha  occ. eigenvalues --   -0.90825  -0.90101  -0.89685  -0.89200  -0.89172
 Alpha  occ. eigenvalues --   -0.88579  -0.88272  -0.87679  -0.86872  -0.85886
 Alpha  occ. eigenvalues --   -0.85299  -0.84462  -0.84324  -0.83373  -0.83035
 Alpha  occ. eigenvalues --   -0.81375  -0.81330  -0.79886  -0.79512  -0.78118
 Alpha  occ. eigenvalues --   -0.77773  -0.76682  -0.76558  -0.76500  -0.76202
 Alpha  occ. eigenvalues --   -0.75359  -0.75244  -0.74188  -0.73594  -0.72795
 Alpha  occ. eigenvalues --   -0.71551  -0.70948  -0.70634  -0.69049  -0.68714
 Alpha  occ. eigenvalues --   -0.68221  -0.66506  -0.65273  -0.64966  -0.64526
 Alpha  occ. eigenvalues --   -0.64435  -0.63533  -0.63438  -0.62519  -0.62240
 Alpha  occ. eigenvalues --   -0.61989  -0.60880  -0.59903  -0.59550  -0.59163
 Alpha  occ. eigenvalues --   -0.58850  -0.57832  -0.57637  -0.56831  -0.56635
 Alpha  occ. eigenvalues --   -0.56018  -0.55622  -0.55461  -0.55212  -0.54841
 Alpha  occ. eigenvalues --   -0.54256  -0.54037  -0.53430  -0.53323  -0.53111
 Alpha  occ. eigenvalues --   -0.52986  -0.52517  -0.52133  -0.52053  -0.51755
 Alpha  occ. eigenvalues --   -0.51111  -0.51004  -0.50736  -0.50653  -0.50568
 Alpha  occ. eigenvalues --   -0.50325  -0.50114  -0.50047  -0.49810  -0.49578
 Alpha  occ. eigenvalues --   -0.49468  -0.49293  -0.49107  -0.48803  -0.48594
 Alpha  occ. eigenvalues --   -0.48342  -0.48102  -0.47953  -0.47560  -0.47363
 Alpha  occ. eigenvalues --   -0.47227  -0.47142  -0.46678  -0.46511  -0.46425
 Alpha  occ. eigenvalues --   -0.46144  -0.45948  -0.45711  -0.45395  -0.45178
 Alpha  occ. eigenvalues --   -0.44773  -0.44594  -0.44323  -0.44209  -0.44046
 Alpha  occ. eigenvalues --   -0.43865  -0.43753  -0.43638  -0.43456  -0.43271
 Alpha  occ. eigenvalues --   -0.43225  -0.42852  -0.42453  -0.42180  -0.42126
 Alpha  occ. eigenvalues --   -0.42023  -0.41970  -0.41683  -0.41553  -0.41256
 Alpha  occ. eigenvalues --   -0.40932  -0.40806  -0.40668  -0.40193  -0.40122
 Alpha  occ. eigenvalues --   -0.40019  -0.39459  -0.39432  -0.39399  -0.39190
 Alpha  occ. eigenvalues --   -0.39042  -0.38650  -0.38169  -0.38141  -0.37587
 Alpha  occ. eigenvalues --   -0.37514  -0.37395  -0.37191  -0.37011  -0.36621
 Alpha  occ. eigenvalues --   -0.36608  -0.36149  -0.35977  -0.35165  -0.35044
 Alpha  occ. eigenvalues --   -0.34779  -0.34645  -0.33694  -0.33046  -0.32751
 Alpha  occ. eigenvalues --   -0.32383  -0.32218  -0.32135  -0.31156  -0.30107
 Alpha  occ. eigenvalues --   -0.29745  -0.28382  -0.26924  -0.25666  -0.23439
 Alpha  occ. eigenvalues --   -0.21189
 Alpha virt. eigenvalues --   -0.06473  -0.03530   0.01090   0.02336   0.04919
 Alpha virt. eigenvalues --    0.05124   0.06226   0.07043   0.07303   0.07357
 Alpha virt. eigenvalues --    0.08232   0.10471   0.10899   0.11186   0.11731

 Mulliken charges:
               1
     1  Mg   0.816764
     2  C    0.056696
     3  C   -0.168659
     4  C   -0.137594
     5  C   -0.182417
     6  N   -0.674619
     7  C    0.303090
     8  C   -0.175361
     9  C   -0.138263
    10  C    0.359067
    11  C   -0.284547
    12  C   -0.153135
    13  C   -0.265825
    14  C    0.607025
    15  O   -0.480419
    16  O   -0.430527
    17  N   -0.717940
    18  C    0.339504
    19  C   -0.005340
    20  C    0.102711
    21  C    0.293830
    22  C   -0.385966
    23  C   -0.176251
    24  C   -0.255120
    25  N   -0.697789
    26  C    0.267043
    27  C    0.035733
    28  C   -0.011699
    29  C    0.303239
    30  C   -0.392766
    31  C   -0.206592
    32  C   -0.310308
    33  N   -0.779554
    34  C    0.310302
    35  C    0.020431
    36  C   -0.026973
    37  C    0.370167
    38  C   -0.365104
    39  C    0.382540
    40  O   -0.468635
    41  C   -0.325381
    42  C    0.634544
    43  O   -0.507428
    44  O   -0.463385
    45  C   -0.086861
    46  C    0.003142
    47  C   -0.087414
    48  C    0.090565
    49  C   -0.352280
    50  C   -0.226459
    51  C   -0.167930
    52  C   -0.178641
    53  C   -0.044999
    54  C   -0.312901
    55  C   -0.159987
    56  C   -0.173681
    57  C   -0.143158
    58  C   -0.060719
    59  C   -0.315376
    60  C   -0.164235
    61  C   -0.199936
    62  C   -0.174763
    63  C   -0.064650
    64  C   -0.317201
    65  C   -0.294576
    66  H    0.071184
    67  H    0.082070
    68  H    0.094452
    69  H    0.138156
    70  H    0.081148
    71  H    0.075530
    72  H    0.107517
    73  H    0.134606
    74  H    0.121087
    75  H    0.139203
    76  H    0.125257
    77  H    0.122524
    78  H    0.130762
    79  H    0.107813
    80  H    0.121165
    81  H    0.103533
    82  H    0.094213
    83  H    0.123522
    84  H    0.134981
    85  H    0.108962
    86  H    0.110019
    87  H    0.081574
    88  H    0.103267
    89  H    0.112011
    90  H    0.111749
    91  H    0.105498
    92  H    0.125013
    93  H    0.155729
    94  H    0.098308
    95  H    0.165549
    96  H    0.140278
    97  H    0.139439
    98  H    0.133228
    99  H    0.128476
   100  H    0.115928
   101  H    0.039901
   102  H    0.105098
   103  H    0.117370
   104  H    0.124396
   105  H    0.079822
   106  H    0.103226
   107  H    0.105254
   108  H    0.079445
   109  H    0.094839
   110  H    0.094334
   111  H    0.092076
   112  H    0.090477
   113  H    0.095614
   114  H    0.101846
   115  H    0.060749
   116  H    0.075445
   117  H    0.078749
   118  H    0.076463
   119  H    0.085270
   120  H    0.081435
   121  H    0.071224
   122  H    0.098590
   123  H    0.109265
   124  H    0.088191
   125  H    0.095701
   126  H    0.101336
   127  H    0.092236
   128  H    0.081755
   129  H    0.083194
   130  H    0.085490
   131  H    0.090065
   132  H    0.096654
   133  H    0.106088
   134  H    0.102261
   135  H    0.095012
   136  H    0.087051
   137  H    0.107290
 Sum of Mulliken charges =   0.00000

 Dipole moment (field-independent basis, Debye):
    X=              1.8215    Y=              3.6737    Z=             -0.2534  Tot=              4.1083
 Quadrupole moment (field-independent basis, Debye-Ang):
   XX=           -348.8298   YY=           -396.3236   ZZ=           -398.8140
   XY=            -15.4309   XZ=             15.3852   YZ=             -6.7393

 Normal termination of Gaussian 09 at Fri Jun 28 10:26:40 2019.
