 Gaussian 09, Revision D.01,
 Gaussian 09:  ES64L-G09RevD.01 24-Apr-2013

 -------------------------------------
 # td=(NStates=1) CAM-B3LYP/6-31G(d,p)
 -------------------------------------

 --
 TD
 --
 Symbolic Z-matrix:
 Charge =  0 Multiplicity = 1

                         Standard orientation:
 ---------------------------------------------------------------------
 Center     Atomic      Atomic             Coordinates (Angstroms)
 Number     Number       Type             X           Y           Z
 ---------------------------------------------------------------------
      1         12           0       -7.117194    0.564751    0.141334
      2          6           0       -4.852495   -1.946621    0.461470
      3          6           0       -4.808422    2.820663    1.179981
      4          6           0       -9.334382    3.044259   -0.355555
      5          6           0       -9.487234   -1.753843   -0.858712
      6          7           0       -5.131324    0.439876    0.517129
      7          6           0       -4.350946   -0.710393    0.679183
      8          6           0       -2.952684   -0.315021    1.214456
      9          6           0       -3.058994    1.091087    1.641046
     10          6           0       -4.413271    1.471685    1.126020
     11          6           0       -2.906815    1.243921    3.129658
     12          6           0       -1.926711   -0.538448    0.042720
     13          6           0       -0.483696   -0.264976    0.513390
     14          6           0        0.490207   -0.689780   -0.648393
     15          8           0        0.255110   -1.127265   -1.705936
     16          8           0        1.836941   -0.437859   -0.243616
     17          7           0       -7.016590    2.619760    0.263955
     18          6           0       -6.016371    3.331932    0.772867
     19          6           0       -6.362037    4.720211    0.872945
     20          6           0       -7.704601    4.771082    0.405930
     21          6           0       -8.149308    3.475380    0.111287
     22          6           0       -5.585379    5.837705    1.332204
     23          6           0       -8.683347    5.809056    0.543369
     24          6           0       -8.452242    7.149157    0.287787
     25          7           0       -9.085668    0.698918   -0.530829
     26          6           0       -9.858992    1.788432   -0.712005
     27          6           0      -11.075036    1.465655   -1.169301
     28          6           0      -11.256470    0.037850   -1.263422
     29          6           0       -9.893429   -0.425694   -0.838167
     30          6           0      -12.266690    2.475003   -1.395089
     31          6           0      -12.368559   -0.787772   -1.751168
     32          6           0      -12.345098   -1.073903   -3.281239
     33          7           0       -7.233030   -1.432795   -0.066565
     34          6           0       -8.275884   -2.171723   -0.507703
     35          6           0       -7.827745   -3.680513   -0.585792
     36          6           0       -6.470714   -3.611598   -0.215206
     37          6           0       -6.148351   -2.242680    0.128149
     38          6           0       -8.569221   -4.786615   -0.889656
     39          6           0       -5.295054   -4.419133    0.181135
     40          8           0       -5.097778   -5.589716    0.193051
     41          6           0       -4.143082   -3.349458    0.582448
     42          6           0       -3.487039   -3.647812    1.922821
     43          8           0       -3.729175   -3.061153    2.976591
     44          8           0       -2.644983   -4.713405    1.797272
     45          6           0       -2.152570   -5.075993    3.086891
     46          6           0        2.745951   -0.734504   -1.212222
     47          6           0        4.075397   -0.451017   -0.569772
     48          6           0        5.090504    0.400916   -0.936257
     49          6           0        5.065793    1.327061   -2.155838
     50          6           0        6.315989    0.476298   -0.102945
     51          6           0        7.569080    0.001822   -0.773086
     52          6           0        8.873392   -0.074112   -0.006916
     53          6           0       10.140806   -0.418661   -0.879450
     54          6           0       10.017372   -1.880625   -1.445382
     55          6           0       11.411164   -0.262160   -0.035307
     56          6           0       12.691160   -0.564321   -0.739604
     57          6           0       13.837636   -0.147676    0.147077
     58          6           0       15.320359   -0.180020   -0.425195
     59          6           0       15.871115   -1.645979   -0.851805
     60          6           0       16.374305    0.473017    0.496516
     61          6           0       17.865947    0.546781   -0.149544
     62          6           0       18.820118    1.223686    0.759733
     63          6           0       20.182264    1.255592    0.202256
     64          6           0       20.269455    2.030595   -1.138783
     65          6           0       21.273660    1.778612    1.106894
     66          1           0       -3.986263    3.362468    1.325826
     67          1           0      -10.143362    3.708905   -0.272211
     68          1           0      -10.248485   -2.376333   -1.188405
     69          1           0       -2.955033   -0.977259    2.081887
     70          1           0       -2.373608    1.560018    0.960633
     71          1           0       -1.969045    0.938040    3.568909
     72          1           0       -2.905648    2.388255    3.301064
     73          1           0       -3.886946    0.679203    3.403012
     74          1           0       -2.142785   -1.619468   -0.393370
     75          1           0       -2.142149    0.190165   -0.845913
     76          1           0       -0.220408    0.854482    0.716696
     77          1           0       -0.072919   -0.931613    1.312238
     78          1           0       -5.120706    6.429471    0.430422
     79          1           0       -6.287699    6.520139    1.842311
     80          1           0       -4.724404    5.493338    1.921909
     81          1           0       -9.858585    5.776076    0.860741
     82          1           0       -9.221715    7.987429    0.375234
     83          1           0       -7.366055    7.572191   -0.147749
     84          1           0      -11.922844    3.070130   -2.225721
     85          1           0      -13.238016    2.025741   -1.663864
     86          1           0      -12.439825    3.182895   -0.401192
     87          1           0      -12.126221   -1.958472   -0.997420
     88          1           0      -13.345581   -0.314226   -1.379146
     89          1           0      -13.184474   -1.505113   -3.376910
     90          1           0      -12.273718   -0.185204   -4.050105
     91          1           0      -11.340323   -1.556604   -3.465247
     92          1           0       -8.814404   -5.009978   -1.984923
     93          1           0       -7.927103   -5.665606   -0.644720
     94          1           0       -9.472083   -4.791059   -0.231334
     95          1           0       -3.331594   -3.708960   -0.179487
     96          1           0       -1.601710   -4.399914    3.647710
     97          1           0       -2.991027   -5.438631    3.696677
     98          1           0       -1.658418   -5.803807    2.690800
     99          1           0        2.575367   -1.726918   -1.658356
    100          1           0        2.462157    0.113903   -2.058068
    101          1           0        4.174498   -1.258396    0.222651
    102          1           0        4.116833    1.366903   -2.683517
    103          1           0        5.274890    2.403857   -1.855030
    104          1           0        6.067932    1.011228   -2.812288
    105          1           0        6.511431    1.531486    0.169328
    106          1           0        6.143256    0.130729    0.990861
    107          1           0        7.295706   -0.873649   -1.136662
    108          1           0        7.567536    0.681213   -1.831448
    109          1           0        9.120177    0.771360    0.470717
    110          1           0        8.871297   -0.744388    0.793620
    111          1           0       10.079898    0.261795   -1.755073
    112          1           0        9.198242   -2.014584   -2.293461
    113          1           0       10.860574   -2.260244   -1.901776
    114          1           0        9.949238   -2.604169   -0.544272
    115          1           0       11.590287    0.766493    0.427934
    116          1           0       11.414671   -0.951224    0.920820
    117          1           0       12.939351   -1.470057   -1.085137
    118          1           0       12.601983   -0.011459   -1.647001
    119          1           0       13.714282    0.920944    0.617539
    120          1           0       13.711429   -0.834347    1.091299
    121          1           0       15.398466    0.522278   -1.288880
    122          1           0       16.013822   -2.286096   -0.067989
    123          1           0       14.883372   -2.418838   -1.201871
    124          1           0       16.639996   -1.540654   -1.660408
    125          1           0       16.111936    1.540518    0.861730
    126          1           0       16.238275   -0.017652    1.421397
    127          1           0       18.222359   -0.483860   -0.261653
    128          1           0       17.853067    1.006285   -1.044202
    129          1           0       18.511753    2.158191    1.029989
    130          1           0       18.965428    0.866461    1.856061
    131          1           0       20.435243    0.326411    0.049557
    132          1           0       19.922471    3.074808   -0.906225
    133          1           0       21.320006    2.120682   -1.364611
    134          1           0       19.910574    1.701571   -2.063338
    135          1           0       21.256908    1.120218    1.955380
    136          1           0       22.228169    2.032942    0.629922
    137          1           0       20.819118    2.768979    1.595062
 ---------------------------------------------------------------------

 SCF Done:  E(RCAM-B3LYP) =  -2932.62422983     A.U. after   17 cycles

 Excitation energies and oscillator strengths:

 Excited State   1:      Singlet-A      2.1309 eV  581.84 nm  f=0.2086  <S**2>=0.000
     240 -> 243       -0.27225
     241 -> 242        0.64438
 This state for optimization and/or second-order correction.
 Total Energy, E(TD-HF/TD-KS) =  -2932.54592070
 Copying the excited state density for this state as the 1-particle RhoCI density.

 The electronic state is 1-A.
 Alpha  occ. eigenvalues --  -46.83146 -19.27005 -19.24599 -19.22756 -19.21570
 Alpha  occ. eigenvalues --  -19.21409 -14.41519 -14.39768 -14.38292 -14.38203
 Alpha  occ. eigenvalues --  -10.39655 -10.39474 -10.36115 -10.31361 -10.30825
 Alpha  occ. eigenvalues --  -10.30780 -10.29855 -10.29819 -10.29728 -10.29546
 Alpha  occ. eigenvalues --  -10.29449 -10.29318 -10.29194 -10.29053 -10.28988
 Alpha  occ. eigenvalues --  -10.28485 -10.28083 -10.28057 -10.28047 -10.27719
 Alpha  occ. eigenvalues --  -10.27317 -10.27171 -10.26999 -10.26917 -10.26880
 Alpha  occ. eigenvalues --  -10.26850 -10.26735 -10.26662 -10.26654 -10.26596
 Alpha  occ. eigenvalues --  -10.26565 -10.26546 -10.26524 -10.26482 -10.26243
 Alpha  occ. eigenvalues --  -10.26230 -10.26225 -10.26175 -10.26159 -10.26124
 Alpha  occ. eigenvalues --  -10.26063 -10.25627 -10.25619 -10.25408 -10.25310
 Alpha  occ. eigenvalues --  -10.25234 -10.25209 -10.24817 -10.24645 -10.23859
 Alpha  occ. eigenvalues --  -10.23736 -10.23720 -10.23690 -10.23522 -10.23180
 Alpha  occ. eigenvalues --   -3.12339  -1.87041  -1.86571  -1.86532  -1.19141
 Alpha  occ. eigenvalues --   -1.18526  -1.13469  -1.11410  -1.09327  -1.04199
 Alpha  occ. eigenvalues --   -1.03248  -1.02631  -1.01404  -0.92601  -0.91115
 Alpha  occ. eigenvalues --   -0.90928  -0.90750  -0.89703  -0.89604  -0.89080
 Alpha  occ. eigenvalues --   -0.88612  -0.87932  -0.87386  -0.87035  -0.86398
 Alpha  occ. eigenvalues --   -0.85224  -0.84518  -0.83563  -0.82640  -0.82485
 Alpha  occ. eigenvalues --   -0.82174  -0.81160  -0.80896  -0.79780  -0.78338
 Alpha  occ. eigenvalues --   -0.77665  -0.77027  -0.76037  -0.75815  -0.75744
 Alpha  occ. eigenvalues --   -0.74557  -0.74553  -0.73984  -0.72954  -0.72514
 Alpha  occ. eigenvalues --   -0.71879  -0.70344  -0.69796  -0.69079  -0.68343
 Alpha  occ. eigenvalues --   -0.67081  -0.66533  -0.65808  -0.65536  -0.64916
 Alpha  occ. eigenvalues --   -0.64699  -0.64424  -0.63788  -0.62914  -0.62222
 Alpha  occ. eigenvalues --   -0.62183  -0.60241  -0.59969  -0.59132  -0.58866
 Alpha  occ. eigenvalues --   -0.58622  -0.57970  -0.57754  -0.56931  -0.56576
 Alpha  occ. eigenvalues --   -0.56374  -0.55918  -0.55296  -0.54867  -0.54825
 Alpha  occ. eigenvalues --   -0.54672  -0.54239  -0.53868  -0.53474  -0.53377
 Alpha  occ. eigenvalues --   -0.53170  -0.52584  -0.52423  -0.52277  -0.51954
 Alpha  occ. eigenvalues --   -0.51511  -0.51292  -0.51239  -0.50859  -0.50729
 Alpha  occ. eigenvalues --   -0.50505  -0.50301  -0.49878  -0.49640  -0.49606
 Alpha  occ. eigenvalues --   -0.49392  -0.48925  -0.48791  -0.48402  -0.48368
 Alpha  occ. eigenvalues --   -0.48127  -0.48076  -0.47782  -0.47478  -0.47086
 Alpha  occ. eigenvalues --   -0.46669  -0.46299  -0.46244  -0.46143  -0.45995
 Alpha  occ. eigenvalues --   -0.45748  -0.45471  -0.45381  -0.45279  -0.45062
 Alpha  occ. eigenvalues --   -0.44974  -0.44747  -0.44621  -0.44524  -0.44366
 Alpha  occ. eigenvalues --   -0.44132  -0.43882  -0.43704  -0.43531  -0.43447
 Alpha  occ. eigenvalues --   -0.43272  -0.43193  -0.42973  -0.42684  -0.42447
 Alpha  occ. eigenvalues --   -0.42383  -0.42134  -0.41828  -0.41782  -0.41748
 Alpha  occ. eigenvalues --   -0.41546  -0.41162  -0.41105  -0.40932  -0.40489
 Alpha  occ. eigenvalues --   -0.39575  -0.39447  -0.39306  -0.38987  -0.38901
 Alpha  occ. eigenvalues --   -0.38382  -0.38286  -0.37996  -0.37848  -0.37500
 Alpha  occ. eigenvalues --   -0.37453  -0.37079  -0.36895  -0.36732  -0.36668
 Alpha  occ. eigenvalues --   -0.36303  -0.36109  -0.36089  -0.35888  -0.35823
 Alpha  occ. eigenvalues --   -0.35379  -0.34743  -0.34467  -0.34121  -0.33952
 Alpha  occ. eigenvalues --   -0.33781  -0.32991  -0.32280  -0.30945  -0.30439
 Alpha  occ. eigenvalues --   -0.29795  -0.28851  -0.26919  -0.26261  -0.23433
 Alpha  occ. eigenvalues --   -0.21257
 Alpha virt. eigenvalues --   -0.05878  -0.03638   0.01460   0.04172   0.04976
 Alpha virt. eigenvalues --    0.05868   0.05916   0.06610   0.07023   0.07152
 Alpha virt. eigenvalues --    0.08171   0.09264   0.10791   0.11050   0.11267

 Mulliken charges:
               1
     1  Mg   0.799198
     2  C    0.084040
     3  C   -0.187034
     4  C   -0.165781
     5  C   -0.136514
     6  N   -0.630682
     7  C    0.249927
     8  C   -0.153026
     9  C   -0.142349
    10  C    0.288961
    11  C   -0.280148
    12  C   -0.181600
    13  C   -0.257587
    14  C    0.583808
    15  O   -0.419044
    16  O   -0.486474
    17  N   -0.720268
    18  C    0.378008
    19  C    0.035485
    20  C    0.019620
    21  C    0.304795
    22  C   -0.381065
    23  C   -0.105974
    24  C   -0.247701
    25  N   -0.699299
    26  C    0.348864
    27  C   -0.032981
    28  C    0.049403
    29  C    0.236938
    30  C   -0.356089
    31  C   -0.243070
    32  C   -0.278497
    33  N   -0.736203
    34  C    0.306498
    35  C    0.072987
    36  C   -0.013108
    37  C    0.276655
    38  C   -0.436947
    39  C    0.377433
    40  O   -0.429885
    41  C   -0.333211
    42  C    0.637180
    43  O   -0.489593
    44  O   -0.456026
    45  C   -0.078162
    46  C    0.023770
    47  C   -0.129235
    48  C    0.114083
    49  C   -0.348183
    50  C   -0.228840
    51  C   -0.156207
    52  C   -0.166740
    53  C   -0.071002
    54  C   -0.310664
    55  C   -0.175004
    56  C   -0.152146
    57  C   -0.188880
    58  C   -0.056061
    59  C   -0.305497
    60  C   -0.187704
    61  C   -0.179097
    62  C   -0.164774
    63  C   -0.047384
    64  C   -0.323377
    65  C   -0.313348
    66  H    0.071081
    67  H    0.079272
    68  H    0.082548
    69  H    0.142521
    70  H    0.109149
    71  H    0.122114
    72  H    0.097381
    73  H    0.120914
    74  H    0.119691
    75  H    0.118852
    76  H    0.140892
    77  H    0.146334
    78  H    0.112070
    79  H    0.131810
    80  H    0.111551
    81  H    0.103426
    82  H    0.103616
    83  H    0.081981
    84  H    0.128835
    85  H    0.108802
    86  H    0.089993
    87  H    0.039481
    88  H    0.106740
    89  H    0.124702
    90  H    0.101250
    91  H    0.113579
    92  H    0.135132
    93  H    0.150229
    94  H    0.133143
    95  H    0.154752
    96  H    0.132987
    97  H    0.127763
    98  H    0.128630
    99  H    0.122452
   100  H    0.064909
   101  H    0.089432
   102  H    0.120627
   103  H    0.111937
   104  H    0.099180
   105  H    0.094808
   106  H    0.090468
   107  H    0.118599
   108  H    0.047605
   109  H    0.096739
   110  H    0.098219
   111  H    0.087497
   112  H    0.090605
   113  H    0.113347
   114  H    0.087987
   115  H    0.090771
   116  H    0.069390
   117  H    0.106885
   118  H    0.092967
   119  H    0.075163
   120  H    0.070926
   121  H    0.084386
   122  H    0.126184
   123  H    0.040117
   124  H    0.116352
   125  H    0.070643
   126  H    0.096846
   127  H    0.100769
   128  H    0.112514
   129  H    0.093752
   130  H    0.065831
   131  H    0.098371
   132  H    0.093095
   133  H    0.092484
   134  H    0.104958
   135  H    0.105147
   136  H    0.109712
   137  H    0.071916
 Sum of Mulliken charges =   0.00000

 Dipole moment (field-independent basis, Debye):
    X=              1.1535    Y=              2.2367    Z=              0.5500  Tot=              2.5760
 Quadrupole moment (field-independent basis, Debye-Ang):
   XX=           -339.3444   YY=           -393.5691   ZZ=           -397.5250
   XY=            -10.4475   XZ=              9.3282   YZ=             -1.0079

 Normal termination of Gaussian 09 at Thu Jun 27 21:50:52 2019.
