 Gaussian 09, Revision D.01,
 Gaussian 09:  ES64L-G09RevD.01 24-Apr-2013

 -------------------------------------
 # td=(NStates=1) CAM-B3LYP/6-31G(d,p)
 -------------------------------------

 --
 TD
 --
 Symbolic Z-matrix:
 Charge =  0 Multiplicity = 1

                         Standard orientation:
 ---------------------------------------------------------------------
 Center     Atomic      Atomic             Coordinates (Angstroms)
 Number     Number       Type             X           Y           Z
 ---------------------------------------------------------------------
      1         12           0       -7.105186    0.641178    0.106674
      2          6           0       -4.826128   -1.968437    0.528347
      3          6           0       -4.818216    2.808551    1.190091
      4          6           0       -9.425185    3.041267   -0.084630
      5          6           0       -9.465308   -1.800016   -0.737142
      6          7           0       -5.110773    0.396223    0.795174
      7          6           0       -4.312995   -0.814328    0.903185
      8          6           0       -2.874802   -0.420392    1.368430
      9          6           0       -3.051072    1.089838    1.706866
     10          6           0       -4.385175    1.547948    1.181857
     11          6           0       -2.826719    1.407237    3.174416
     12          6           0       -1.944391   -0.647670    0.102115
     13          6           0       -0.488406   -0.348750    0.446260
     14          6           0        0.368534   -0.452596   -0.749419
     15          8           0        0.139988   -0.799456   -1.872538
     16          8           0        1.644543   -0.317933   -0.340016
     17          7           0       -7.135966    2.601631    0.348010
     18          6           0       -6.075297    3.315666    0.777611
     19          6           0       -6.378442    4.738609    0.830744
     20          6           0       -7.627634    4.852667    0.336565
     21          6           0       -8.173538    3.464725    0.187624
     22          6           0       -5.461978    5.882811    1.227543
     23          6           0       -8.545213    6.017470    0.266371
     24          6           0       -8.303852    7.320985    0.044255
     25          7           0       -9.183514    0.676603   -0.310794
     26          6           0       -9.906281    1.838984   -0.449525
     27          6           0      -11.217139    1.484009   -1.114172
     28          6           0      -11.200635    0.070077   -1.210318
     29          6           0       -9.891043   -0.391924   -0.826256
     30          6           0      -12.277690    2.462780   -1.394023
     31          6           0      -12.333975   -0.916635   -1.631196
     32          6           0      -12.284257   -1.241814   -3.090352
     33          7           0       -7.172817   -1.374765   -0.161291
     34          6           0       -8.232415   -2.168374   -0.394858
     35          6           0       -7.808545   -3.696133   -0.479206
     36          6           0       -6.490926   -3.577156   -0.128691
     37          6           0       -6.116830   -2.190187    0.147688
     38          6           0       -8.821048   -4.779260   -0.720349
     39          6           0       -5.273737   -4.460312    0.162691
     40          8           0       -5.060668   -5.543375    0.146826
     41          6           0       -4.196778   -3.314357    0.429823
     42          6           0       -3.487730   -3.741206    1.844276
     43          8           0       -3.636943   -3.139604    2.879807
     44          8           0       -2.568610   -4.796660    1.620073
     45          6           0       -1.951630   -5.238563    2.870436
     46          6           0        2.699948   -0.675517   -1.257330
     47          6           0        4.095536   -0.298192   -0.656200
     48          6           0        5.085404    0.382604   -1.124127
     49          6           0        4.985436    1.142435   -2.518947
     50          6           0        6.353208    0.552078   -0.384002
     51          6           0        7.557710   -0.109685   -1.175398
     52          6           0        8.874471   -0.045959   -0.234918
     53          6           0       10.241171   -0.609198   -0.938328
     54          6           0       10.070783   -2.041140   -1.484775
     55          6           0       11.412848   -0.261745   -0.019683
     56          6           0       12.714191   -0.412783   -0.712334
     57          6           0       13.882429   -0.164744    0.229584
     58          6           0       15.299197   -0.299633   -0.439018
     59          6           0       15.719070   -1.727442   -0.799430
     60          6           0       16.416118    0.334940    0.575191
     61          6           0       17.726259    0.590676   -0.041451
     62          6           0       18.739069    1.151498    0.872386
     63          6           0       20.196033    1.309012    0.309565
     64          6           0       20.254913    2.201086   -0.935592
     65          6           0       21.055316    1.790433    1.417585
     66          1           0       -3.985979    3.516589    1.410719
     67          1           0      -10.062454    3.899695   -0.374553
     68          1           0      -10.257360   -2.575127   -0.866754
     69          1           0       -2.698416   -1.126027    2.229033
     70          1           0       -2.186332    1.570159    1.176193
     71          1           0       -1.885913    0.952863    3.752752
     72          1           0       -2.814671    2.502907    3.398017
     73          1           0       -3.660939    0.936365    3.892685
     74          1           0       -2.032960   -1.706304   -0.353653
     75          1           0       -2.130029    0.077789   -0.808607
     76          1           0       -0.432837    0.636173    0.875775
     77          1           0        0.087124   -1.058618    1.217832
     78          1           0       -4.918231    6.204254    0.369417
     79          1           0       -5.939882    6.652740    1.814250
     80          1           0       -4.809700    5.490841    1.858929
     81          1           0       -9.532933    5.716599    0.416596
     82          1           0       -9.074213    8.047019   -0.176682
     83          1           0       -7.146984    7.830161    0.179480
     84          1           0      -12.001084    3.008884   -2.482744
     85          1           0      -13.268819    2.167109   -1.374274
     86          1           0      -12.111291    3.237171   -0.480335
     87          1           0      -12.363281   -1.952509   -1.155393
     88          1           0      -13.254347   -0.558915   -1.551134
     89          1           0      -13.218715   -1.983944   -3.178541
     90          1           0      -12.256400   -0.419171   -3.777133
     91          1           0      -11.387401   -1.909708   -3.336533
     92          1           0       -9.557970   -4.905449   -1.721899
     93          1           0       -8.208749   -5.730577   -0.510091
     94          1           0       -9.413713   -4.874879    0.129325
     95          1           0       -3.380485   -3.507629   -0.262892
     96          1           0       -1.475931   -4.534556    3.403817
     97          1           0       -2.846708   -5.498269    3.407009
     98          1           0       -1.050454   -5.915943    2.685283
     99          1           0        2.781145   -1.615509   -1.484169
    100          1           0        2.393487   -0.307953   -2.345123
    101          1           0        4.247192   -0.969755    0.192613
    102          1           0        3.994502    1.099071   -2.789096
    103          1           0        5.716261    2.088430   -2.709573
    104          1           0        5.432094    0.467899   -3.291725
    105          1           0        6.570272    1.607626   -0.077636
    106          1           0        6.259802    0.046945    0.649589
    107          1           0        7.333555   -1.107283   -1.413108
    108          1           0        7.921366    0.562681   -2.023855
    109          1           0        9.209623    0.906376    0.203814
    110          1           0        8.623741   -0.529164    0.693285
    111          1           0       10.373580    0.145212   -1.807028
    112          1           0        9.131578   -2.092668   -2.157647
    113          1           0       11.062156   -2.334646   -1.993329
    114          1           0        9.928770   -2.651612   -0.591732
    115          1           0       11.342135    0.815733    0.317508
    116          1           0       11.316119   -0.932307    0.836743
    117          1           0       12.904960   -1.273646   -1.179336
    118          1           0       12.713565    0.310128   -1.585641
    119          1           0       13.807390    0.797523    0.634975
    120          1           0       13.769943   -0.626840    1.168091
    121          1           0       15.337435    0.241293   -1.419830
    122          1           0       15.617341   -2.316900    0.075176
    123          1           0       15.276666   -2.171054   -1.630808
    124          1           0       16.790126   -1.871029   -1.034861
    125          1           0       16.004215    1.327907    0.974553
    126          1           0       16.503582   -0.217151    1.371386
    127          1           0       18.115130   -0.337561   -0.374133
    128          1           0       17.538657    1.092406   -1.100710
    129          1           0       18.662351    2.302912    1.171967
    130          1           0       18.692874    0.727979    1.782712
    131          1           0       20.574526    0.395705    0.135009
    132          1           0       19.790525    3.196504   -0.810894
    133          1           0       21.092689    2.313690   -1.158152
    134          1           0       19.848758    1.839144   -1.777655
    135          1           0       21.108187    1.412165    2.358565
    136          1           0       22.084754    1.627462    1.103054
    137          1           0       21.108420    2.919441    1.431096
 ---------------------------------------------------------------------

 SCF Done:  E(RCAM-B3LYP) =  -2932.63637716     A.U. after   16 cycles

 Excitation energies and oscillator strengths:

 Excited State   1:      Singlet-A      2.1064 eV  588.60 nm  f=0.2305  <S**2>=0.000
     240 -> 243        0.24061
     241 -> 242        0.64814
 This state for optimization and/or second-order correction.
 Total Energy, E(TD-HF/TD-KS) =  -2932.55896715
 Copying the excited state density for this state as the 1-particle RhoCI density.

 The electronic state is 1-A.
 Alpha  occ. eigenvalues --  -46.83647 -19.26303 -19.25278 -19.22776 -19.22695
 Alpha  occ. eigenvalues --  -19.20917 -14.40803 -14.39957 -14.39312 -14.38521
 Alpha  occ. eigenvalues --  -10.40257 -10.38683 -10.35908 -10.31300 -10.30949
 Alpha  occ. eigenvalues --  -10.30692 -10.30075 -10.30032 -10.29926 -10.29755
 Alpha  occ. eigenvalues --  -10.28884 -10.28611 -10.28550 -10.28545 -10.28508
 Alpha  occ. eigenvalues --  -10.28419 -10.28168 -10.28134 -10.28090 -10.27739
 Alpha  occ. eigenvalues --  -10.27473 -10.27300 -10.27245 -10.27151 -10.26991
 Alpha  occ. eigenvalues --  -10.26633 -10.26621 -10.26550 -10.26540 -10.26487
 Alpha  occ. eigenvalues --  -10.26462 -10.26429 -10.26382 -10.26286 -10.26008
 Alpha  occ. eigenvalues --  -10.25991 -10.25961 -10.25919 -10.25650 -10.25447
 Alpha  occ. eigenvalues --  -10.25382 -10.25351 -10.25257 -10.25181 -10.24955
 Alpha  occ. eigenvalues --  -10.24513 -10.24428 -10.24171 -10.23916 -10.23672
 Alpha  occ. eigenvalues --  -10.23659 -10.23637 -10.23256 -10.23061 -10.21199
 Alpha  occ. eigenvalues --   -3.12740  -1.87445  -1.86983  -1.86918  -1.19625
 Alpha  occ. eigenvalues --   -1.18521  -1.16792  -1.09593  -1.09125  -1.04224
 Alpha  occ. eigenvalues --   -1.03910  -1.00930  -1.00256  -0.93332  -0.90765
 Alpha  occ. eigenvalues --   -0.90583  -0.89880  -0.89526  -0.88936  -0.88513
 Alpha  occ. eigenvalues --   -0.87797  -0.87732  -0.87184  -0.86818  -0.85873
 Alpha  occ. eigenvalues --   -0.85034  -0.84243  -0.83370  -0.83087  -0.82949
 Alpha  occ. eigenvalues --   -0.81478  -0.80928  -0.80555  -0.79756  -0.78471
 Alpha  occ. eigenvalues --   -0.78331  -0.77789  -0.76897  -0.76309  -0.75856
 Alpha  occ. eigenvalues --   -0.75724  -0.74996  -0.74379  -0.73300  -0.72418
 Alpha  occ. eigenvalues --   -0.71189  -0.70248  -0.69069  -0.67995  -0.67675
 Alpha  occ. eigenvalues --   -0.66937  -0.66812  -0.65751  -0.65270  -0.64978
 Alpha  occ. eigenvalues --   -0.64500  -0.64066  -0.64039  -0.62953  -0.61932
 Alpha  occ. eigenvalues --   -0.61725  -0.60343  -0.60162  -0.59107  -0.58695
 Alpha  occ. eigenvalues --   -0.58304  -0.57695  -0.57387  -0.56982  -0.56575
 Alpha  occ. eigenvalues --   -0.56246  -0.55982  -0.55290  -0.55121  -0.54689
 Alpha  occ. eigenvalues --   -0.54518  -0.54023  -0.53869  -0.53617  -0.53569
 Alpha  occ. eigenvalues --   -0.52838  -0.52474  -0.52300  -0.52035  -0.51994
 Alpha  occ. eigenvalues --   -0.51945  -0.51325  -0.51133  -0.50986  -0.50711
 Alpha  occ. eigenvalues --   -0.50675  -0.50324  -0.50172  -0.49812  -0.49299
 Alpha  occ. eigenvalues --   -0.49210  -0.49058  -0.48979  -0.48658  -0.48579
 Alpha  occ. eigenvalues --   -0.48248  -0.48127  -0.47925  -0.47627  -0.47382
 Alpha  occ. eigenvalues --   -0.46893  -0.46655  -0.46252  -0.46182  -0.46000
 Alpha  occ. eigenvalues --   -0.45882  -0.45762  -0.45500  -0.45257  -0.45166
 Alpha  occ. eigenvalues --   -0.45043  -0.44954  -0.44898  -0.44686  -0.44395
 Alpha  occ. eigenvalues --   -0.44232  -0.43973  -0.43727  -0.43681  -0.43519
 Alpha  occ. eigenvalues --   -0.43106  -0.42714  -0.42376  -0.42176  -0.42153
 Alpha  occ. eigenvalues --   -0.42029  -0.41914  -0.41905  -0.41468  -0.41210
 Alpha  occ. eigenvalues --   -0.40941  -0.40746  -0.40703  -0.40517  -0.40502
 Alpha  occ. eigenvalues --   -0.39876  -0.39817  -0.39574  -0.39075  -0.38758
 Alpha  occ. eigenvalues --   -0.38610  -0.38426  -0.38397  -0.38196  -0.38097
 Alpha  occ. eigenvalues --   -0.38002  -0.37478  -0.37258  -0.37039  -0.36759
 Alpha  occ. eigenvalues --   -0.36413  -0.36141  -0.35970  -0.35624  -0.35413
 Alpha  occ. eigenvalues --   -0.34972  -0.34775  -0.34449  -0.34408  -0.33663
 Alpha  occ. eigenvalues --   -0.32879  -0.32693  -0.32060  -0.31687  -0.30315
 Alpha  occ. eigenvalues --   -0.30266  -0.30151  -0.27608  -0.26646  -0.23659
 Alpha  occ. eigenvalues --   -0.20468
 Alpha virt. eigenvalues --   -0.05374  -0.03219   0.02410   0.04664   0.05499
 Alpha virt. eigenvalues --    0.06081   0.06383   0.07420   0.07616   0.07724
 Alpha virt. eigenvalues --    0.08833   0.10679   0.11221   0.11624   0.12051

 Mulliken charges:
               1
     1  Mg   0.813654
     2  C    0.137936
     3  C   -0.204023
     4  C   -0.184308
     5  C   -0.170086
     6  N   -0.678642
     7  C    0.260921
     8  C   -0.143067
     9  C   -0.144836
    10  C    0.381120
    11  C   -0.306567
    12  C   -0.189213
    13  C   -0.261904
    14  C    0.609432
    15  O   -0.471001
    16  O   -0.482215
    17  N   -0.717110
    18  C    0.327640
    19  C   -0.008562
    20  C    0.017718
    21  C    0.276324
    22  C   -0.355024
    23  C   -0.068039
    24  C   -0.256032
    25  N   -0.668197
    26  C    0.295499
    27  C    0.016933
    28  C    0.002984
    29  C    0.252839
    30  C   -0.359977
    31  C   -0.218264
    32  C   -0.293757
    33  N   -0.701428
    34  C    0.294880
    35  C    0.041252
    36  C   -0.069541
    37  C    0.289900
    38  C   -0.397222
    39  C    0.396932
    40  O   -0.338618
    41  C   -0.374524
    42  C    0.591721
    43  O   -0.448949
    44  O   -0.482440
    45  C   -0.084123
    46  C    0.011613
    47  C   -0.173365
    48  C    0.163127
    49  C   -0.359241
    50  C   -0.242338
    51  C   -0.179585
    52  C   -0.198930
    53  C   -0.061348
    54  C   -0.304481
    55  C   -0.174668
    56  C   -0.170472
    57  C   -0.181041
    58  C   -0.070537
    59  C   -0.319893
    60  C   -0.176766
    61  C   -0.168070
    62  C   -0.152081
    63  C   -0.069383
    64  C   -0.284793
    65  C   -0.328274
    66  H    0.083599
    67  H    0.086628
    68  H    0.098870
    69  H    0.143905
    70  H    0.098761
    71  H    0.095083
    72  H    0.108014
    73  H    0.104687
    74  H    0.118638
    75  H    0.122315
    76  H    0.144880
    77  H    0.133374
    78  H    0.132347
    79  H    0.124930
    80  H    0.118611
    81  H    0.097262
    82  H    0.110373
    83  H    0.079530
    84  H    0.097266
    85  H    0.127172
    86  H    0.099708
    87  H    0.094913
    88  H    0.112439
    89  H    0.071613
    90  H    0.117048
    91  H    0.093112
    92  H    0.123996
    93  H    0.130208
    94  H    0.154871
    95  H    0.163289
    96  H    0.134460
    97  H    0.136333
    98  H    0.120169
    99  H    0.133954
   100  H    0.107871
   101  H    0.087779
   102  H    0.122902
   103  H    0.103535
   104  H    0.115273
   105  H    0.109618
   106  H    0.088133
   107  H    0.113069
   108  H    0.098895
   109  H    0.084844
   110  H    0.084841
   111  H    0.064271
   112  H    0.103207
   113  H    0.098140
   114  H    0.106603
   115  H    0.091910
   116  H    0.089000
   117  H    0.103622
   118  H    0.079598
   119  H    0.092504
   120  H    0.090200
   121  H    0.078343
   122  H    0.104257
   123  H    0.105406
   124  H    0.095092
   125  H    0.076143
   126  H    0.097924
   127  H    0.095938
   128  H    0.072957
   129  H    0.059885
   130  H    0.091897
   131  H    0.091894
   132  H    0.093291
   133  H    0.100530
   134  H    0.105202
   135  H    0.112436
   136  H    0.090447
   137  H    0.090691
 Sum of Mulliken charges =   0.00000

 Dipole moment (field-independent basis, Debye):
    X=              2.6520    Y=              0.6976    Z=              1.0994  Tot=              2.9544
 Quadrupole moment (field-independent basis, Debye-Ang):
   XX=           -342.2354   YY=           -387.0233   ZZ=           -396.8869
   XY=             -8.9764   XZ=              5.1524   YZ=             -3.9002

 Normal termination of Gaussian 09 at Thu Jun 27 12:04:42 2019.
