 Gaussian 09, Revision D.01,
 Gaussian 09:  ES64L-G09RevD.01 24-Apr-2013

 -------------------------------------
 # td=(NStates=1) CAM-B3LYP/6-31G(d,p)
 -------------------------------------

 --
 TD
 --
 Symbolic Z-matrix:
 Charge =  0 Multiplicity = 1

                         Standard orientation:
 ---------------------------------------------------------------------
 Center     Atomic      Atomic             Coordinates (Angstroms)
 Number     Number       Type             X           Y           Z
 ---------------------------------------------------------------------
      1         12           0       -7.220319    0.658270    0.107066
      2          6           0       -4.838958   -2.004726    0.550794
      3          6           0       -4.832452    2.777445    1.110811
      4          6           0       -9.449654    3.210800   -0.502325
      5          6           0       -9.522883   -1.673481   -0.914132
      6          7           0       -5.148987    0.384573    0.720492
      7          6           0       -4.369555   -0.719906    0.758741
      8          6           0       -2.960276   -0.430465    1.167784
      9          6           0       -2.953918    1.087166    1.628553
     10          6           0       -4.389564    1.479792    1.152003
     11          6           0       -2.840881    1.346941    3.102799
     12          6           0       -1.892292   -0.724283    0.094228
     13          6           0       -0.424597   -0.505692    0.537349
     14          6           0        0.627981   -0.769606   -0.482232
     15          8           0        0.239198   -1.039032   -1.646837
     16          8           0        1.932321   -0.610563   -0.179185
     17          7           0       -7.110871    2.624575    0.347640
     18          6           0       -6.016586    3.415638    0.833283
     19          6           0       -6.401870    4.848128    0.930835
     20          6           0       -7.748209    4.842634    0.345747
     21          6           0       -8.110393    3.533469    0.010798
     22          6           0       -5.499407    5.882491    1.416156
     23          6           0       -8.646128    5.974256    0.328044
     24          6           0       -8.175814    7.225121   -0.109868
     25          7           0       -9.157563    0.753024   -0.500745
     26          6           0       -9.916927    1.876465   -0.649950
     27          6           0      -11.267638    1.565155   -1.038512
     28          6           0      -11.306917    0.136174   -1.291794
     29          6           0       -9.899359   -0.322291   -0.841151
     30          6           0      -12.367375    2.491825   -1.361224
     31          6           0      -12.422010   -0.713770   -1.729881
     32          6           0      -12.288991   -0.988628   -3.173523
     33          7           0       -7.222262   -1.372803   -0.173763
     34          6           0       -8.303214   -2.202617   -0.519618
     35          6           0       -7.913955   -3.584249   -0.485630
     36          6           0       -6.615203   -3.625602   -0.100797
     37          6           0       -6.225621   -2.192149    0.150115
     38          6           0       -8.659793   -4.853563   -0.721288
     39          6           0       -5.464488   -4.404005    0.158437
     40          8           0       -5.254385   -5.593589    0.117067
     41          6           0       -4.235882   -3.312314    0.583605
     42          6           0       -3.637357   -3.642892    1.876588
     43          8           0       -4.113388   -3.064796    2.940655
     44          8           0       -2.743194   -4.614457    1.757065
     45          6           0       -2.130296   -5.052465    2.999671
     46          6           0        2.890061   -0.785561   -1.304810
     47          6           0        4.086460   -0.608348   -0.548015
     48          6           0        5.175502    0.186277   -0.879757
     49          6           0        5.206476    0.873076   -2.225955
     50          6           0        6.384644    0.215979   -0.155787
     51          6           0        7.683007   -0.411437   -0.877726
     52          6           0        8.957101   -0.323019   -0.065282
     53          6           0       10.254425   -0.565868   -0.906557
     54          6           0       10.209516   -1.962842   -1.535198
     55          6           0       11.437776   -0.206295   -0.076932
     56          6           0       12.864595   -0.456545   -0.777639
     57          6           0       13.999784   -0.064148    0.325562
     58          6           0       15.361535   -0.187125   -0.379410
     59          6           0       15.579662   -1.678593   -0.831581
     60          6           0       16.548774    0.472105    0.393718
     61          6           0       17.788671    0.638641   -0.285697
     62          6           0       18.843041    1.359178    0.663287
     63          6           0       20.318225    1.489036    0.284829
     64          6           0       20.397654    2.116934   -1.167206
     65          6           0       21.116313    2.117009    1.422275
     66          1           0       -4.101514    3.432922    1.614007
     67          1           0      -10.135019    4.018360   -0.672596
     68          1           0      -10.358769   -2.323409   -1.173172
     69          1           0       -2.631255   -0.922663    2.060667
     70          1           0       -2.152651    1.647672    1.063637
     71          1           0       -1.897487    0.840912    3.473899
     72          1           0       -3.070128    2.494875    3.240423
     73          1           0       -3.440479    0.917181    3.787889
     74          1           0       -2.014277   -1.887600   -0.160599
     75          1           0       -1.962910   -0.188434   -0.699603
     76          1           0       -0.612912    0.712464    0.778227
     77          1           0       -0.040784   -1.113168    1.505452
     78          1           0       -4.780329    6.032754    0.554560
     79          1           0       -5.961232    7.125718    1.547024
     80          1           0       -4.804460    5.555201    2.295865
     81          1           0       -9.661600    5.906153    1.009873
     82          1           0       -8.856811    8.054162    0.126179
     83          1           0       -7.204818    7.450377   -0.306204
     84          1           0      -12.041138    3.252307   -2.262825
     85          1           0      -13.066384    1.912608   -1.359358
     86          1           0      -12.480969    3.171195   -0.569628
     87          1           0      -12.603762   -1.660413   -1.254612
     88          1           0      -13.528536   -0.182697   -1.626137
     89          1           0      -13.065061   -1.690067   -3.468345
     90          1           0      -12.092802   -0.201938   -3.869644
     91          1           0      -11.469524   -1.458212   -3.492012
     92          1           0       -8.928226   -4.772498   -1.794943
     93          1           0       -7.931235   -5.617084   -0.427788
     94          1           0       -9.616467   -4.953494   -0.115564
     95          1           0       -3.594132   -3.522336   -0.241492
     96          1           0       -1.693349   -4.220559    3.673876
     97          1           0       -3.062030   -5.524124    3.572281
     98          1           0       -1.486743   -5.798746    2.588149
     99          1           0        2.765609   -1.943232   -1.673574
    100          1           0        2.483661   -0.110461   -2.008583
    101          1           0        4.238717   -1.298739    0.319984
    102          1           0        4.211887    0.837015   -2.552947
    103          1           0        5.628943    2.028439   -1.842807
    104          1           0        5.751772    0.388970   -2.930068
    105          1           0        6.574159    1.322669    0.279763
    106          1           0        6.336752   -0.293529    0.767603
    107          1           0        7.545608   -1.625180   -1.089986
    108          1           0        7.655791   -0.201214   -1.955821
    109          1           0        8.910875    0.710318    0.215868
    110          1           0        8.892351   -0.875262    0.857901
    111          1           0       10.429111    0.074556   -1.658579
    112          1           0        9.490929   -2.171455   -2.346785
    113          1           0       11.140824   -2.318221   -1.972983
    114          1           0        9.976753   -2.590445   -0.861631
    115          1           0       11.441183    0.832212    0.289837
    116          1           0       11.424921   -0.939312    0.774298
    117          1           0       13.211683   -1.559366   -0.975815
    118          1           0       12.615907    0.177338   -1.655350
    119          1           0       13.919984    0.990079    0.780834
    120          1           0       13.834001   -0.466542    1.158077
    121          1           0       15.211091    0.442644   -1.214573
    122          1           0       15.680153   -2.382805   -0.073301
    123          1           0       14.872110   -2.091016   -1.683690
    124          1           0       16.579548   -1.927172   -1.300716
    125          1           0       16.058851    1.349964    0.573719
    126          1           0       16.765738   -0.100596    1.488165
    127          1           0       18.308435   -0.223216   -0.701100
    128          1           0       17.633030    1.389963   -1.056396
    129          1           0       18.393923    2.425137    0.797999
    130          1           0       18.916243    1.027615    1.670363
    131          1           0       20.649063    0.339846    0.276174
    132          1           0       19.964502    3.148824   -1.125360
    133          1           0       21.501472    2.387658   -1.563261
    134          1           0       19.868984    1.646680   -2.004330
    135          1           0       21.146105    1.486069    2.356877
    136          1           0       22.241758    2.111505    1.203531
    137          1           0       20.696116    3.132009    1.769688
 ---------------------------------------------------------------------

 SCF Done:  E(RCAM-B3LYP) =  -2932.55819316     A.U. after   16 cycles

 Excitation energies and oscillator strengths:

 Excited State   1:      Singlet-A      1.9099 eV  649.15 nm  f=0.2404  <S**2>=0.000
     240 -> 243       -0.23256
     241 -> 242        0.66071
 This state for optimization and/or second-order correction.
 Total Energy, E(TD-HF/TD-KS) =  -2932.48800418
 Copying the excited state density for this state as the 1-particle RhoCI density.

 The electronic state is 1-A.
 Alpha  occ. eigenvalues --  -46.83917 -19.27798 -19.26136 -19.21104 -19.19714
 Alpha  occ. eigenvalues --  -19.19678 -14.41584 -14.39851 -14.39605 -14.39041
 Alpha  occ. eigenvalues --  -10.39041 -10.38927 -10.35698 -10.33022 -10.32883
 Alpha  occ. eigenvalues --  -10.30657 -10.30279 -10.29952 -10.29935 -10.29626
 Alpha  occ. eigenvalues --  -10.29433 -10.29390 -10.29235 -10.29083 -10.28850
 Alpha  occ. eigenvalues --  -10.28622 -10.28343 -10.28270 -10.28183 -10.27831
 Alpha  occ. eigenvalues --  -10.27573 -10.27523 -10.27467 -10.27307 -10.27225
 Alpha  occ. eigenvalues --  -10.27165 -10.26877 -10.26830 -10.26731 -10.26557
 Alpha  occ. eigenvalues --  -10.26553 -10.26510 -10.26389 -10.26280 -10.26262
 Alpha  occ. eigenvalues --  -10.26205 -10.26191 -10.26092 -10.26076 -10.25933
 Alpha  occ. eigenvalues --  -10.25917 -10.25885 -10.25378 -10.25321 -10.25247
 Alpha  occ. eigenvalues --  -10.25195 -10.25049 -10.25010 -10.24945 -10.24856
 Alpha  occ. eigenvalues --  -10.24822 -10.24525 -10.24504 -10.23203 -10.22859
 Alpha  occ. eigenvalues --   -3.13013  -1.87712  -1.87249  -1.87204  -1.18100
 Alpha  occ. eigenvalues --   -1.16917  -1.11869  -1.06844  -1.05445  -1.04080
 Alpha  occ. eigenvalues --   -1.02858  -1.02566  -1.00628  -0.92015  -0.91895
 Alpha  occ. eigenvalues --   -0.90746  -0.90086  -0.89819  -0.89358  -0.88904
 Alpha  occ. eigenvalues --   -0.88201  -0.87871  -0.87791  -0.87368  -0.86061
 Alpha  occ. eigenvalues --   -0.85181  -0.84850  -0.84124  -0.83334  -0.82477
 Alpha  occ. eigenvalues --   -0.81883  -0.81315  -0.80403  -0.79508  -0.78370
 Alpha  occ. eigenvalues --   -0.77621  -0.77239  -0.77067  -0.76000  -0.75925
 Alpha  occ. eigenvalues --   -0.75482  -0.75047  -0.74620  -0.73122  -0.72519
 Alpha  occ. eigenvalues --   -0.71671  -0.70887  -0.70088  -0.69300  -0.68375
 Alpha  occ. eigenvalues --   -0.67514  -0.66539  -0.65678  -0.65388  -0.64930
 Alpha  occ. eigenvalues --   -0.64462  -0.63949  -0.62953  -0.62814  -0.62139
 Alpha  occ. eigenvalues --   -0.61458  -0.61208  -0.60444  -0.59505  -0.58879
 Alpha  occ. eigenvalues --   -0.58530  -0.57957  -0.57496  -0.57123  -0.56703
 Alpha  occ. eigenvalues --   -0.55677  -0.55364  -0.55269  -0.54881  -0.54615
 Alpha  occ. eigenvalues --   -0.54457  -0.54123  -0.53794  -0.53382  -0.53029
 Alpha  occ. eigenvalues --   -0.52960  -0.52109  -0.51764  -0.51640  -0.51416
 Alpha  occ. eigenvalues --   -0.51252  -0.51042  -0.50897  -0.50773  -0.50535
 Alpha  occ. eigenvalues --   -0.49958  -0.49916  -0.49862  -0.49708  -0.49469
 Alpha  occ. eigenvalues --   -0.49191  -0.48914  -0.48744  -0.48567  -0.48338
 Alpha  occ. eigenvalues --   -0.48134  -0.47987  -0.47820  -0.47493  -0.47195
 Alpha  occ. eigenvalues --   -0.47161  -0.46932  -0.46462  -0.46438  -0.46162
 Alpha  occ. eigenvalues --   -0.46036  -0.45605  -0.45528  -0.45392  -0.45318
 Alpha  occ. eigenvalues --   -0.44924  -0.44788  -0.44646  -0.44422  -0.44147
 Alpha  occ. eigenvalues --   -0.43992  -0.43588  -0.43504  -0.43407  -0.43288
 Alpha  occ. eigenvalues --   -0.42975  -0.42768  -0.42307  -0.42280  -0.42248
 Alpha  occ. eigenvalues --   -0.42121  -0.41989  -0.41707  -0.41586  -0.41556
 Alpha  occ. eigenvalues --   -0.41375  -0.41140  -0.40871  -0.40730  -0.40628
 Alpha  occ. eigenvalues --   -0.40299  -0.40156  -0.39996  -0.39340  -0.39004
 Alpha  occ. eigenvalues --   -0.38917  -0.38667  -0.38107  -0.37713  -0.37469
 Alpha  occ. eigenvalues --   -0.36913  -0.36875  -0.36765  -0.36521  -0.36113
 Alpha  occ. eigenvalues --   -0.36015  -0.35874  -0.35589  -0.35415  -0.35389
 Alpha  occ. eigenvalues --   -0.35182  -0.34747  -0.33689  -0.32924  -0.32861
 Alpha  occ. eigenvalues --   -0.32518  -0.32285  -0.31455  -0.30907  -0.30247
 Alpha  occ. eigenvalues --   -0.29618  -0.28566  -0.27665  -0.26646  -0.22721
 Alpha  occ. eigenvalues --   -0.20863
 Alpha virt. eigenvalues --   -0.06872  -0.02961   0.01502   0.03619   0.04347
 Alpha virt. eigenvalues --    0.04570   0.05142   0.05817   0.06697   0.07054
 Alpha virt. eigenvalues --    0.08057   0.10058   0.10564   0.11456   0.11937

 Mulliken charges:
               1
     1  Mg   0.825968
     2  C    0.130436
     3  C   -0.208955
     4  C   -0.169042
     5  C   -0.163610
     6  N   -0.633852
     7  C    0.347200
     8  C   -0.164610
     9  C   -0.144308
    10  C    0.311811
    11  C   -0.300600
    12  C   -0.144652
    13  C   -0.257960
    14  C    0.619103
    15  O   -0.502384
    16  O   -0.485170
    17  N   -0.723049
    18  C    0.284896
    19  C    0.095280
    20  C   -0.026231
    21  C    0.323911
    22  C   -0.390246
    23  C   -0.128271
    24  C   -0.226765
    25  N   -0.704002
    26  C    0.317080
    27  C   -0.031132
    28  C    0.025713
    29  C    0.285194
    30  C   -0.310159
    31  C   -0.254657
    32  C   -0.313960
    33  N   -0.709246
    34  C    0.268284
    35  C    0.024720
    36  C    0.056780
    37  C    0.253972
    38  C   -0.366866
    39  C    0.328216
    40  O   -0.451972
    41  C   -0.359590
    42  C    0.651429
    43  O   -0.535763
    44  O   -0.443367
    45  C   -0.088385
    46  C    0.000138
    47  C   -0.103962
    48  C    0.102741
    49  C   -0.320662
    50  C   -0.228108
    51  C   -0.182879
    52  C   -0.176672
    53  C   -0.052103
    54  C   -0.324128
    55  C   -0.194064
    56  C   -0.190505
    57  C   -0.171506
    58  C   -0.052733
    59  C   -0.335560
    60  C   -0.149762
    61  C   -0.170003
    62  C   -0.167516
    63  C   -0.039254
    64  C   -0.314357
    65  C   -0.314893
    66  H    0.058662
    67  H    0.099777
    68  H    0.094149
    69  H    0.122621
    70  H    0.106526
    71  H    0.097753
    72  H    0.095596
    73  H    0.142173
    74  H    0.096656
    75  H    0.129745
    76  H    0.104852
    77  H    0.105402
    78  H    0.134148
    79  H    0.089981
    80  H    0.118440
    81  H    0.106183
    82  H    0.095724
    83  H    0.108609
    84  H    0.106975
    85  H    0.104091
    86  H    0.119159
    87  H    0.117211
    88  H    0.088206
    89  H    0.095141
    90  H    0.114309
    91  H    0.118793
    92  H    0.128323
    93  H    0.152374
    94  H    0.121916
    95  H    0.156997
    96  H    0.136611
    97  H    0.133097
    98  H    0.138799
    99  H    0.121258
   100  H    0.152087
   101  H    0.100675
   102  H    0.102473
   103  H    0.075284
   104  H    0.136564
   105  H    0.079847
   106  H    0.106714
   107  H    0.058968
   108  H    0.104801
   109  H    0.097290
   110  H    0.104685
   111  H    0.089806
   112  H    0.098256
   113  H    0.098197
   114  H    0.116897
   115  H    0.099851
   116  H    0.074137
   117  H    0.104444
   118  H    0.090407
   119  H    0.059125
   120  H    0.106161
   121  H    0.098848
   122  H    0.115978
   123  H    0.093478
   124  H    0.086102
   125  H    0.102547
   126  H    0.049994
   127  H    0.099862
   128  H    0.098066
   129  H    0.062972
   130  H    0.089736
   131  H    0.066924
   132  H    0.097758
   133  H    0.076230
   134  H    0.115721
   135  H    0.104484
   136  H    0.100028
   137  H    0.098943
 Sum of Mulliken charges =   0.00000

 Dipole moment (field-independent basis, Debye):
    X=              2.5259    Y=              2.5871    Z=              0.7804  Tot=              3.6990
 Quadrupole moment (field-independent basis, Debye-Ang):
   XX=           -347.9284   YY=           -392.2128   ZZ=           -397.6589
   XY=            -16.0810   XZ=             10.4592   YZ=              0.7156

 Normal termination of Gaussian 09 at Sat Jun 29 06:10:17 2019.
