 Gaussian 09, Revision D.01,
 Gaussian 09:  ES64L-G09RevD.01 24-Apr-2013

 -------------------------------------
 # td=(NStates=1) CAM-B3LYP/6-31G(d,p)
 -------------------------------------

 --
 TD
 --
 Symbolic Z-matrix:
 Charge =  0 Multiplicity = 1

                         Standard orientation:
 ---------------------------------------------------------------------
 Center     Atomic      Atomic             Coordinates (Angstroms)
 Number     Number       Type             X           Y           Z
 ---------------------------------------------------------------------
      1         12           0       -7.140639    0.618347    0.091835
      2          6           0       -4.864039   -1.910790    0.548961
      3          6           0       -4.838284    2.867284    1.186861
      4          6           0       -9.486392    3.032627   -0.242393
      5          6           0       -9.472648   -1.786528   -0.940643
      6          7           0       -5.086363    0.458557    0.703924
      7          6           0       -4.315523   -0.754104    0.845126
      8          6           0       -2.939115   -0.392740    1.155708
      9          6           0       -3.049047    1.127040    1.595855
     10          6           0       -4.362825    1.483812    1.079685
     11          6           0       -2.788208    1.379026    3.201181
     12          6           0       -1.963158   -0.680617    0.029924
     13          6           0       -0.560557   -0.496922    0.536635
     14          6           0        0.358656   -0.677204   -0.625923
     15          8           0        0.098081   -0.994363   -1.741858
     16          8           0        1.654094   -0.488978   -0.256573
     17          7           0       -7.172609    2.675577    0.293054
     18          6           0       -6.143666    3.353969    0.820222
     19          6           0       -6.521817    4.694899    0.994893
     20          6           0       -7.862763    4.857148    0.451931
     21          6           0       -8.214877    3.449862    0.096228
     22          6           0       -5.821982    5.881485    1.432155
     23          6           0       -8.750124    6.010918    0.358822
     24          6           0       -8.224639    7.213033    0.112210
     25          7           0       -9.114761    0.636157   -0.592069
     26          6           0       -9.934136    1.654012   -0.644172
     27          6           0      -11.229359    1.379056   -1.186202
     28          6           0      -11.175629    0.031116   -1.357680
     29          6           0       -9.870925   -0.458471   -0.947473
     30          6           0      -12.376732    2.335566   -1.285057
     31          6           0      -12.309642   -0.801381   -1.823569
     32          6           0      -12.142878   -1.044349   -3.280935
     33          7           0       -7.144452   -1.351695   -0.234831
     34          6           0       -8.091290   -2.196120   -0.652066
     35          6           0       -7.739147   -3.656171   -0.445961
     36          6           0       -6.455414   -3.508794   -0.134779
     37          6           0       -6.126081   -2.153726    0.076889
     38          6           0       -8.410377   -4.915334   -0.782718
     39          6           0       -5.216718   -4.289623    0.131973
     40          8           0       -5.038454   -5.447074    0.127103
     41          6           0       -4.136041   -3.338097    0.603149
     42          6           0       -3.434095   -3.706294    2.009171
     43          8           0       -3.725717   -3.179306    3.085026
     44          8           0       -2.674096   -4.831396    1.837580
     45          6           0       -2.049948   -5.232657    3.037265
     46          6           0        2.703365   -0.672638   -1.120942
     47          6           0        4.091322   -0.406704   -0.508554
     48          6           0        5.022904    0.366725   -1.004930
     49          6           0        4.953087    1.153398   -2.344807
     50          6           0        6.362400    0.455387   -0.180802
     51          6           0        7.574426   -0.027460   -0.908908
     52          6           0        8.846559   -0.032317   -0.156217
     53          6           0       10.147027   -0.398624   -0.893099
     54          6           0       10.100649   -1.916680   -1.411943
     55          6           0       11.417695   -0.168197    0.018417
     56          6           0       12.764169   -0.455192   -0.652218
     57          6           0       13.998982    0.044166    0.153343
     58          6           0       15.389969   -0.071263   -0.499130
     59          6           0       15.798421   -1.521074   -0.871074
     60          6           0       16.370986    0.509887    0.358066
     61          6           0       17.794911    0.506542   -0.092630
     62          6           0       18.834818    1.201586    0.790403
     63          6           0       20.297621    1.149035    0.204126
     64          6           0       20.397044    1.877050   -1.192239
     65          6           0       21.200994    1.886249    1.313529
     66          1           0       -4.053622    3.709872    1.774309
     67          1           0      -10.025094    3.674824   -0.690614
     68          1           0      -10.359441   -2.737968   -0.996236
     69          1           0       -2.760950   -0.994152    2.076571
     70          1           0       -2.344749    1.745241    1.099116
     71          1           0       -1.825831    0.910387    3.524205
     72          1           0       -2.673087    2.516506    3.201702
     73          1           0       -3.610288    1.035508    3.970246
     74          1           0       -2.144973   -1.819288   -0.345370
     75          1           0       -2.201021   -0.048783   -0.801304
     76          1           0       -0.328091    0.469543    0.841775
     77          1           0       -0.296442   -1.340669    1.404348
     78          1           0       -5.368945    6.523945    0.609737
     79          1           0       -6.444519    6.538038    1.941710
     80          1           0       -4.931391    5.615632    2.028517
     81          1           0       -9.782895    5.913842    0.708546
     82          1           0       -8.966828    7.942886    0.366863
     83          1           0       -6.971739    7.359452   -0.153819
     84          1           0      -12.338670    3.156120   -1.865630
     85          1           0      -13.295491    1.858464   -1.513625
     86          1           0      -12.613254    2.677210   -0.383212
     87          1           0      -12.263574   -1.799978   -1.262891
     88          1           0      -13.186768   -0.315563   -1.456023
     89          1           0      -13.088420   -1.600901   -3.535926
     90          1           0      -12.259236   -0.168959   -3.945656
     91          1           0      -11.080036   -1.585551   -3.457650
     92          1           0       -8.617340   -5.120799   -2.076188
     93          1           0       -7.870096   -5.915982   -0.553990
     94          1           0       -9.482608   -4.824377   -0.271284
     95          1           0       -3.273578   -3.395950   -0.226181
     96          1           0       -1.628030   -4.352900    3.628001
     97          1           0       -2.776902   -5.733747    3.715474
     98          1           0       -1.339560   -6.054939    2.823366
     99          1           0        2.647274   -1.710078   -1.568672
    100          1           0        2.496556   -0.017548   -1.864284
    101          1           0        4.267866   -0.779352    0.509920
    102          1           0        3.919875    1.254050   -2.773370
    103          1           0        5.592702    2.199626   -2.125262
    104          1           0        5.455445    0.758093   -3.220481
    105          1           0        6.450306    1.373818    0.177325
    106          1           0        6.074537   -0.117709    0.666627
    107          1           0        7.322791   -1.129619   -1.176470
    108          1           0        7.753407    0.540902   -1.891870
    109          1           0        9.098837    0.895756    0.387190
    110          1           0        8.817278   -0.700296    0.767221
    111          1           0       10.332260    0.427217   -1.587694
    112          1           0        9.350733   -2.215953   -2.272806
    113          1           0       11.059880   -2.241553   -1.685378
    114          1           0       10.060636   -2.736176   -0.731158
    115          1           0       11.324675    0.919133    0.343225
    116          1           0       11.384200   -0.786922    0.976547
    117          1           0       12.982859   -1.491765   -1.029615
    118          1           0       13.064234    0.266807   -1.536172
    119          1           0       13.559577    0.997418    0.358844
    120          1           0       14.107982   -0.510118    1.128967
    121          1           0       15.097717    0.486009   -1.527651
    122          1           0       15.753240   -1.994485    0.211152
    123          1           0       15.140720   -1.998223   -1.752390
    124          1           0       16.699966   -1.564984   -1.368001
    125          1           0       16.065953    1.550826    0.799872
    126          1           0       16.171492    0.057476    1.361241
    127          1           0       18.175289   -0.605785   -0.188193
    128          1           0       17.846894    1.128541   -0.947728
    129          1           0       18.484529    2.270831    1.068082
    130          1           0       18.809864    0.730135    1.850883
    131          1           0       20.807872    0.167585    0.242624
    132          1           0       19.863684    2.756400   -1.327166
    133          1           0       21.501235    2.145516   -1.633932
    134          1           0       19.983667    1.131244   -1.928328
    135          1           0       21.015371    1.560791    2.396812
    136          1           0       22.171065    1.903672    1.047715
    137          1           0       21.007120    3.035509    1.226731
 ---------------------------------------------------------------------

 SCF Done:  E(RCAM-B3LYP) =  -2932.63811535     A.U. after   18 cycles

 Excitation energies and oscillator strengths:

 Excited State   1:      Singlet-A      2.1341 eV  580.96 nm  f=0.2013  <S**2>=0.000
     240 -> 242       -0.14657
     240 -> 243        0.24253
     241 -> 242        0.62869
     241 -> 243        0.13110
 This state for optimization and/or second-order correction.
 Total Energy, E(TD-HF/TD-KS) =  -2932.55968803
 Copying the excited state density for this state as the 1-particle RhoCI density.

 The electronic state is 1-A.
 Alpha  occ. eigenvalues --  -46.84885 -19.27620 -19.24796 -19.22349 -19.21006
 Alpha  occ. eigenvalues --  -19.19851 -14.41532 -14.39971 -14.38941 -14.38563
 Alpha  occ. eigenvalues --  -10.40965 -10.38883 -10.34095 -10.31800 -10.31262
 Alpha  occ. eigenvalues --  -10.30749 -10.30194 -10.29715 -10.29627 -10.29269
 Alpha  occ. eigenvalues --  -10.28971 -10.28914 -10.28898 -10.28753 -10.28628
 Alpha  occ. eigenvalues --  -10.28279 -10.28005 -10.27953 -10.27928 -10.27620
 Alpha  occ. eigenvalues --  -10.27580 -10.27562 -10.27526 -10.27497 -10.27426
 Alpha  occ. eigenvalues --  -10.27098 -10.27083 -10.27024 -10.27009 -10.26904
 Alpha  occ. eigenvalues --  -10.26725 -10.26659 -10.26519 -10.26345 -10.26238
 Alpha  occ. eigenvalues --  -10.26202 -10.26082 -10.26018 -10.25971 -10.25941
 Alpha  occ. eigenvalues --  -10.25663 -10.25633 -10.25357 -10.25328 -10.25217
 Alpha  occ. eigenvalues --  -10.25146 -10.25082 -10.25072 -10.24732 -10.24692
 Alpha  occ. eigenvalues --  -10.24503 -10.24481 -10.24453 -10.23824 -10.23693
 Alpha  occ. eigenvalues --   -3.13843  -1.88563  -1.88052  -1.88040  -1.19096
 Alpha  occ. eigenvalues --   -1.18523  -1.13352  -1.10331  -1.09702  -1.05687
 Alpha  occ. eigenvalues --   -1.04871  -1.04176  -1.03615  -0.92403  -0.91515
 Alpha  occ. eigenvalues --   -0.91087  -0.90618  -0.89482  -0.89160  -0.88895
 Alpha  occ. eigenvalues --   -0.88177  -0.87621  -0.87498  -0.86342  -0.86120
 Alpha  occ. eigenvalues --   -0.85112  -0.84581  -0.83398  -0.82969  -0.82752
 Alpha  occ. eigenvalues --   -0.81290  -0.80677  -0.79793  -0.79636  -0.78342
 Alpha  occ. eigenvalues --   -0.77678  -0.76856  -0.76544  -0.76063  -0.75515
 Alpha  occ. eigenvalues --   -0.75396  -0.75092  -0.74701  -0.73951  -0.72095
 Alpha  occ. eigenvalues --   -0.71567  -0.70590  -0.69504  -0.69042  -0.67867
 Alpha  occ. eigenvalues --   -0.66872  -0.66441  -0.65168  -0.64168  -0.63958
 Alpha  occ. eigenvalues --   -0.63865  -0.63197  -0.62959  -0.62465  -0.62380
 Alpha  occ. eigenvalues --   -0.61664  -0.60521  -0.60237  -0.59778  -0.59314
 Alpha  occ. eigenvalues --   -0.58244  -0.57909  -0.57884  -0.57330  -0.56641
 Alpha  occ. eigenvalues --   -0.56328  -0.55649  -0.55286  -0.55089  -0.54964
 Alpha  occ. eigenvalues --   -0.54691  -0.54558  -0.54132  -0.53549  -0.53091
 Alpha  occ. eigenvalues --   -0.52771  -0.52690  -0.52372  -0.52184  -0.51726
 Alpha  occ. eigenvalues --   -0.51543  -0.51238  -0.50919  -0.50640  -0.50472
 Alpha  occ. eigenvalues --   -0.50101  -0.49733  -0.49545  -0.49433  -0.49365
 Alpha  occ. eigenvalues --   -0.48979  -0.48695  -0.48477  -0.48427  -0.48351
 Alpha  occ. eigenvalues --   -0.48087  -0.47843  -0.47388  -0.47206  -0.47094
 Alpha  occ. eigenvalues --   -0.46956  -0.46471  -0.46268  -0.46064  -0.45783
 Alpha  occ. eigenvalues --   -0.45738  -0.45605  -0.45496  -0.45308  -0.45069
 Alpha  occ. eigenvalues --   -0.44750  -0.44567  -0.44421  -0.44206  -0.44031
 Alpha  occ. eigenvalues --   -0.43920  -0.43684  -0.43576  -0.43289  -0.43030
 Alpha  occ. eigenvalues --   -0.42833  -0.42679  -0.42473  -0.42350  -0.42081
 Alpha  occ. eigenvalues --   -0.41993  -0.41978  -0.41783  -0.41525  -0.41467
 Alpha  occ. eigenvalues --   -0.41057  -0.41002  -0.40732  -0.40491  -0.40275
 Alpha  occ. eigenvalues --   -0.40199  -0.39976  -0.39739  -0.39526  -0.39296
 Alpha  occ. eigenvalues --   -0.38851  -0.38304  -0.37798  -0.37733  -0.37569
 Alpha  occ. eigenvalues --   -0.37156  -0.36985  -0.36963  -0.36485  -0.36399
 Alpha  occ. eigenvalues --   -0.36354  -0.36069  -0.35875  -0.35777  -0.35373
 Alpha  occ. eigenvalues --   -0.35046  -0.34775  -0.34658  -0.34252  -0.33901
 Alpha  occ. eigenvalues --   -0.33769  -0.32881  -0.32025  -0.30745  -0.30619
 Alpha  occ. eigenvalues --   -0.30018  -0.29508  -0.28490  -0.27001  -0.22502
 Alpha  occ. eigenvalues --   -0.20790
 Alpha virt. eigenvalues --   -0.05661  -0.02880   0.02188   0.03824   0.05004
 Alpha virt. eigenvalues --    0.05825   0.06372   0.06777   0.07303   0.07459
 Alpha virt. eigenvalues --    0.08347   0.09879   0.10317   0.10632   0.11344

 Mulliken charges:
               1
     1  Mg   0.830115
     2  C    0.074534
     3  C   -0.224206
     4  C   -0.154508
     5  C   -0.180468
     6  N   -0.637619
     7  C    0.248593
     8  C   -0.169899
     9  C   -0.166241
    10  C    0.384323
    11  C   -0.304564
    12  C   -0.156582
    13  C   -0.246547
    14  C    0.594018
    15  O   -0.458100
    16  O   -0.485147
    17  N   -0.722542
    18  C    0.364829
    19  C    0.010810
    20  C   -0.009742
    21  C    0.306941
    22  C   -0.385055
    23  C   -0.095607
    24  C   -0.224687
    25  N   -0.661757
    26  C    0.250155
    27  C    0.038934
    28  C   -0.006493
    29  C    0.299002
    30  C   -0.375868
    31  C   -0.227663
    32  C   -0.294420
    33  N   -0.691907
    34  C    0.202961
    35  C    0.026095
    36  C    0.015391
    37  C    0.288569
    38  C   -0.363568
    39  C    0.376781
    40  O   -0.428755
    41  C   -0.301384
    42  C    0.619551
    43  O   -0.467678
    44  O   -0.424331
    45  C   -0.094598
    46  C    0.043945
    47  C   -0.155529
    48  C    0.122312
    49  C   -0.361115
    50  C   -0.216423
    51  C   -0.160500
    52  C   -0.164718
    53  C   -0.044400
    54  C   -0.330454
    55  C   -0.191031
    56  C   -0.181772
    57  C   -0.176077
    58  C   -0.050095
    59  C   -0.295066
    60  C   -0.164020
    61  C   -0.165146
    62  C   -0.177224
    63  C   -0.052839
    64  C   -0.319718
    65  C   -0.310842
    66  H    0.071699
    67  H    0.075820
    68  H    0.100276
    69  H    0.124313
    70  H    0.113077
    71  H    0.115061
    72  H    0.103198
    73  H    0.122491
    74  H    0.101795
    75  H    0.128929
    76  H    0.145846
    77  H    0.127195
    78  H    0.110869
    79  H    0.139455
    80  H    0.095641
    81  H    0.113302
    82  H    0.101941
    83  H    0.102773
    84  H    0.127433
    85  H    0.108537
    86  H    0.136085
    87  H    0.091545
    88  H    0.105412
    89  H    0.094977
    90  H    0.112963
    91  H    0.106608
    92  H    0.083063
    93  H    0.151023
    94  H    0.101342
    95  H    0.145251
    96  H    0.124749
    97  H    0.127898
    98  H    0.125071
    99  H    0.108096
   100  H    0.106525
   101  H    0.089685
   102  H    0.113978
   103  H    0.086770
   104  H    0.131303
   105  H    0.109295
   106  H    0.097813
   107  H    0.095491
   108  H    0.086032
   109  H    0.075991
   110  H    0.079881
   111  H    0.093818
   112  H    0.092149
   113  H    0.105777
   114  H    0.107117
   115  H    0.085854
   116  H    0.090210
   117  H    0.099670
   118  H    0.071836
   119  H    0.098374
   120  H    0.065119
   121  H    0.052802
   122  H    0.089828
   123  H    0.082507
   124  H    0.124641
   125  H    0.076959
   126  H    0.084476
   127  H    0.087725
   128  H    0.108570
   129  H    0.083327
   130  H    0.075288
   131  H    0.100098
   132  H    0.121482
   133  H    0.079059
   134  H    0.105797
   135  H    0.095376
   136  H    0.107521
   137  H    0.077168
 Sum of Mulliken charges =   0.00000

 Dipole moment (field-independent basis, Debye):
    X=              1.7951    Y=              4.0826    Z=              1.4693  Tot=              4.6956
 Quadrupole moment (field-independent basis, Debye-Ang):
   XX=           -338.2617   YY=           -392.7938   ZZ=           -399.8211
   XY=            -23.3806   XZ=              0.0486   YZ=             -2.8485

 Normal termination of Gaussian 09 at Sat Jun 29 18:36:57 2019.
