 Gaussian 09, Revision D.01,
 Gaussian 09:  ES64L-G09RevD.01 24-Apr-2013

 -------------------------------------
 # td=(NStates=1) CAM-B3LYP/6-31G(d,p)
 -------------------------------------

 --
 TD
 --
 Symbolic Z-matrix:
 Charge =  0 Multiplicity = 1

                         Standard orientation:
 ---------------------------------------------------------------------
 Center     Atomic      Atomic             Coordinates (Angstroms)
 Number     Number       Type             X           Y           Z
 ---------------------------------------------------------------------
      1         12           0       -7.178843    0.521432    0.117147
      2          6           0       -4.753253   -1.987150    0.402043
      3          6           0       -4.754739    2.813743    1.227444
      4          6           0       -9.421249    3.125600   -0.210473
      5          6           0       -9.566201   -1.731844   -0.679199
      6          7           0       -5.037268    0.399180    0.816226
      7          6           0       -4.304606   -0.778557    0.763373
      8          6           0       -2.902501   -0.370249    1.222510
      9          6           0       -2.975066    1.047366    1.647519
     10          6           0       -4.380349    1.466013    1.135216
     11          6           0       -2.855151    1.172695    3.193238
     12          6           0       -1.810233   -0.552789    0.014716
     13          6           0       -0.461793   -0.456612    0.529930
     14          6           0        0.489387   -0.529576   -0.742128
     15          8           0        0.130669   -0.794923   -1.888626
     16          8           0        1.689761   -0.337178   -0.251937
     17          7           0       -7.132285    2.522286    0.405789
     18          6           0       -6.095087    3.293236    0.835888
     19          6           0       -6.491130    4.700157    0.855019
     20          6           0       -7.748128    4.899410    0.355281
     21          6           0       -8.122770    3.465686    0.137050
     22          6           0       -5.583504    5.814675    1.424707
     23          6           0       -8.620681    6.021548    0.287979
     24          6           0       -8.136269    7.290667   -0.103975
     25          7           0       -9.154192    0.656974   -0.455215
     26          6           0       -9.908233    1.865707   -0.595191
     27          6           0      -11.169984    1.450448   -1.012123
     28          6           0      -11.255179    0.094526   -1.077270
     29          6           0       -9.936388   -0.391895   -0.694933
     30          6           0      -12.272796    2.422151   -1.185002
     31          6           0      -12.392803   -0.655575   -1.499819
     32          6           0      -12.314717   -0.881766   -3.122812
     33          7           0       -7.183906   -1.415890   -0.241192
     34          6           0       -8.285146   -2.292942   -0.483857
     35          6           0       -7.820437   -3.653934   -0.496114
     36          6           0       -6.513667   -3.574369   -0.247275
     37          6           0       -6.127402   -2.185168    0.042930
     38          6           0       -8.725864   -4.873787   -0.734662
     39          6           0       -5.244169   -4.412988   -0.078664
     40          8           0       -5.093479   -5.611764   -0.114145
     41          6           0       -4.086052   -3.285941    0.397540
     42          6           0       -3.644003   -3.708798    1.774944
     43          8           0       -3.919515   -3.251364    2.794075
     44          8           0       -2.670719   -4.741274    1.635155
     45          6           0       -2.197003   -5.288970    2.841146
     46          6           0        2.699408   -0.422311   -1.264562
     47          6           0        4.109661   -0.384016   -0.645102
     48          6           0        5.143890    0.349796   -1.018262
     49          6           0        5.010705    1.282331   -2.178594
     50          6           0        6.388173    0.413788   -0.275939
     51          6           0        7.632722   -0.249329   -0.958412
     52          6           0        8.941903    0.019668   -0.245596
     53          6           0       10.197920   -0.439190   -0.904610
     54          6           0       10.083587   -1.980139   -1.287955
     55          6           0       11.366985   -0.253812   -0.002475
     56          6           0       12.789457   -0.418876   -0.730428
     57          6           0       13.930077   -0.126199    0.249761
     58          6           0       15.391629   -0.210133   -0.350792
     59          6           0       15.713087   -1.615925   -0.767656
     60          6           0       16.360808    0.263304    0.611744
     61          6           0       17.825752    0.448111   -0.045777
     62          6           0       18.827135    1.231581    0.886904
     63          6           0       20.285888    1.316925    0.244208
     64          6           0       20.386702    2.027510   -1.059410
     65          6           0       21.243319    1.973114    1.228562
     66          1           0       -4.034038    3.546853    1.727048
     67          1           0      -10.212644    3.786519   -0.327521
     68          1           0      -10.406390   -2.539844   -0.786532
     69          1           0       -2.563488   -1.127604    2.059165
     70          1           0       -2.258919    1.596827    1.050465
     71          1           0       -1.965533    0.753789    3.746041
     72          1           0       -2.945445    2.286129    3.511606
     73          1           0       -3.429864    0.383346    3.616893
     74          1           0       -2.026637   -1.561316   -0.479685
     75          1           0       -2.065371    0.187375   -0.663615
     76          1           0       -0.272698    0.471010    1.214233
     77          1           0       -0.255714   -1.421394    1.276317
     78          1           0       -4.712614    5.896802    0.703959
     79          1           0       -6.149062    6.714274    1.695864
     80          1           0       -5.122059    5.449772    2.559568
     81          1           0       -9.698473    5.907435    0.436029
     82          1           0       -8.753506    8.176342    0.128476
     83          1           0       -7.091547    7.345559   -0.746604
     84          1           0      -12.022706    2.837218   -2.229444
     85          1           0      -13.360171    2.099346   -1.203050
     86          1           0      -12.127722    3.400425   -0.556355
     87          1           0      -12.467404   -1.770879   -1.009038
     88          1           0      -13.501771   -0.386155   -1.285898
     89          1           0      -13.291585   -1.330722   -3.306015
     90          1           0      -12.326119    0.019983   -3.775686
     91          1           0      -11.459449   -1.458377   -3.420989
     92          1           0       -9.052336   -4.508780   -1.907244
     93          1           0       -8.150932   -5.847613   -0.537881
     94          1           0       -9.789717   -4.871562   -0.127273
     95          1           0       -3.452493   -3.416863   -0.493890
     96          1           0       -1.432707   -4.723164    3.494531
     97          1           0       -3.095072   -5.505138    3.501369
     98          1           0       -1.525286   -6.070968    2.656711
     99          1           0        2.545115   -1.327024   -1.697556
    100          1           0        2.767095    0.451804   -1.944311
    101          1           0        4.167546   -1.204748    0.222463
    102          1           0        4.028010    1.502963   -2.582222
    103          1           0        5.453549    2.264644   -1.980030
    104          1           0        5.484111    0.743619   -3.116287
    105          1           0        6.567229    1.471264    0.032783
    106          1           0        6.477673   -0.160447    0.743118
    107          1           0        7.420302   -1.338317   -1.020248
    108          1           0        7.925906    0.201293   -1.904035
    109          1           0        9.151183    1.030014   -0.106797
    110          1           0        9.022340   -0.523831    0.866019
    111          1           0       10.016350    0.098928   -1.743383
    112          1           0        9.064897   -2.281029   -1.886131
    113          1           0       10.920648   -2.299747   -1.839911
    114          1           0       10.037392   -2.652143   -0.398357
    115          1           0       11.519891    0.871873   -0.012451
    116          1           0       11.292671   -0.796111    0.964114
    117          1           0       12.891367   -1.390650   -0.976333
    118          1           0       12.911366    0.094620   -1.692724
    119          1           0       13.716455    0.736428    0.559440
    120          1           0       13.864812   -0.529828    1.171989
    121          1           0       15.419263    0.370786   -1.288196
    122          1           0       15.545595   -2.219540    0.092807
    123          1           0       14.908473   -2.055464   -1.404420
    124          1           0       16.764243   -1.861222   -1.260042
    125          1           0       16.096977    1.391947    0.950929
    126          1           0       16.523351   -0.631601    1.156609
    127          1           0       18.146811   -0.554913   -0.457798
    128          1           0       17.757715    0.954420   -0.893999
    129          1           0       18.469508    2.285983    1.101272
    130          1           0       18.714685    0.496712    1.670067
    131          1           0       20.590959    0.465900    0.019355
    132          1           0       20.136957    3.047800   -1.053079
    133          1           0       21.387194    2.060196   -1.504272
    134          1           0       19.811700    1.560268   -1.909977
    135          1           0       21.319204    1.516488    2.195439
    136          1           0       22.243918    2.019818    0.964244
    137          1           0       20.893087    3.025703    1.295654
 ---------------------------------------------------------------------

 SCF Done:  E(RCAM-B3LYP) =  -2932.62937696     A.U. after   16 cycles

 Excitation energies and oscillator strengths:

 Excited State   1:      Singlet-A      2.0612 eV  601.52 nm  f=0.2360  <S**2>=0.000
     240 -> 243        0.24025
     241 -> 242        0.65750
 This state for optimization and/or second-order correction.
 Total Energy, E(TD-HF/TD-KS) =  -2932.55363004
 Copying the excited state density for this state as the 1-particle RhoCI density.

 The electronic state is 1-A.
 Alpha  occ. eigenvalues --  -46.84114 -19.27566 -19.24592 -19.22507 -19.22048
 Alpha  occ. eigenvalues --  -19.21425 -14.40837 -14.40374 -14.39815 -14.38293
 Alpha  occ. eigenvalues --  -10.39628 -10.39420 -10.36735 -10.31212 -10.30898
 Alpha  occ. eigenvalues --  -10.30436 -10.30364 -10.30313 -10.29989 -10.29724
 Alpha  occ. eigenvalues --  -10.29644 -10.29211 -10.28928 -10.28919 -10.28635
 Alpha  occ. eigenvalues --  -10.28592 -10.28551 -10.28448 -10.28122 -10.28118
 Alpha  occ. eigenvalues --  -10.27955 -10.27738 -10.27418 -10.27363 -10.27292
 Alpha  occ. eigenvalues --  -10.27042 -10.26999 -10.26912 -10.26900 -10.26729
 Alpha  occ. eigenvalues --  -10.26594 -10.26533 -10.26366 -10.26267 -10.26247
 Alpha  occ. eigenvalues --  -10.26163 -10.26132 -10.25716 -10.25584 -10.25394
 Alpha  occ. eigenvalues --  -10.25264 -10.25224 -10.25196 -10.25103 -10.25083
 Alpha  occ. eigenvalues --  -10.25030 -10.25013 -10.24896 -10.24701 -10.24334
 Alpha  occ. eigenvalues --  -10.24031 -10.23791 -10.23611 -10.23018 -10.22364
 Alpha  occ. eigenvalues --   -3.13175  -1.87883  -1.87404  -1.87360  -1.19927
 Alpha  occ. eigenvalues --   -1.19106  -1.12368  -1.10229  -1.09545  -1.04736
 Alpha  occ. eigenvalues --   -1.03416  -1.03388  -1.02045  -0.92681  -0.92368
 Alpha  occ. eigenvalues --   -0.91452  -0.90586  -0.89631  -0.89409  -0.88963
 Alpha  occ. eigenvalues --   -0.88434  -0.88102  -0.87555  -0.86317  -0.86024
 Alpha  occ. eigenvalues --   -0.85172  -0.84018  -0.83174  -0.82957  -0.81878
 Alpha  occ. eigenvalues --   -0.81577  -0.80391  -0.80265  -0.79513  -0.77000
 Alpha  occ. eigenvalues --   -0.76751  -0.76484  -0.76090  -0.75939  -0.75482
 Alpha  occ. eigenvalues --   -0.75286  -0.74662  -0.74405  -0.73814  -0.72280
 Alpha  occ. eigenvalues --   -0.71419  -0.70771  -0.69332  -0.68710  -0.68019
 Alpha  occ. eigenvalues --   -0.67575  -0.67167  -0.66328  -0.65053  -0.64925
 Alpha  occ. eigenvalues --   -0.64612  -0.63974  -0.63578  -0.63231  -0.62815
 Alpha  occ. eigenvalues --   -0.61561  -0.60109  -0.59891  -0.59842  -0.59140
 Alpha  occ. eigenvalues --   -0.58781  -0.58491  -0.58030  -0.57422  -0.57175
 Alpha  occ. eigenvalues --   -0.56212  -0.55912  -0.55140  -0.54975  -0.54924
 Alpha  occ. eigenvalues --   -0.54728  -0.54529  -0.54133  -0.54018  -0.53573
 Alpha  occ. eigenvalues --   -0.53259  -0.53103  -0.52238  -0.52130  -0.51849
 Alpha  occ. eigenvalues --   -0.51465  -0.51240  -0.50949  -0.50575  -0.50418
 Alpha  occ. eigenvalues --   -0.50262  -0.50156  -0.49920  -0.49616  -0.49535
 Alpha  occ. eigenvalues --   -0.49343  -0.48801  -0.48470  -0.48401  -0.48368
 Alpha  occ. eigenvalues --   -0.48198  -0.47773  -0.47421  -0.47084  -0.46926
 Alpha  occ. eigenvalues --   -0.46613  -0.46397  -0.46182  -0.46092  -0.45985
 Alpha  occ. eigenvalues --   -0.45619  -0.45416  -0.45314  -0.45093  -0.45039
 Alpha  occ. eigenvalues --   -0.44781  -0.44608  -0.44515  -0.44279  -0.44045
 Alpha  occ. eigenvalues --   -0.44013  -0.43770  -0.43669  -0.43297  -0.43036
 Alpha  occ. eigenvalues --   -0.43020  -0.42836  -0.42256  -0.42212  -0.42151
 Alpha  occ. eigenvalues --   -0.42050  -0.41577  -0.41525  -0.41425  -0.41142
 Alpha  occ. eigenvalues --   -0.41067  -0.40847  -0.40666  -0.40618  -0.40246
 Alpha  occ. eigenvalues --   -0.40215  -0.39629  -0.39584  -0.39107  -0.38921
 Alpha  occ. eigenvalues --   -0.38848  -0.38791  -0.38754  -0.38304  -0.37994
 Alpha  occ. eigenvalues --   -0.37799  -0.37760  -0.37533  -0.37064  -0.36915
 Alpha  occ. eigenvalues --   -0.36513  -0.36067  -0.35770  -0.35575  -0.35255
 Alpha  occ. eigenvalues --   -0.35010  -0.34624  -0.34399  -0.34114  -0.33846
 Alpha  occ. eigenvalues --   -0.32886  -0.32519  -0.31820  -0.31058  -0.30431
 Alpha  occ. eigenvalues --   -0.30170  -0.29533  -0.27607  -0.26837  -0.23309
 Alpha  occ. eigenvalues --   -0.20922
 Alpha virt. eigenvalues --   -0.06088  -0.02978   0.01418   0.02941   0.05884
 Alpha virt. eigenvalues --    0.05960   0.06252   0.06469   0.06752   0.07436
 Alpha virt. eigenvalues --    0.08511   0.10480   0.11470   0.11726   0.11844

 Mulliken charges:
               1
     1  Mg   0.822533
     2  C    0.081498
     3  C   -0.214002
     4  C   -0.143795
     5  C   -0.176784
     6  N   -0.647993
     7  C    0.327545
     8  C   -0.200230
     9  C   -0.126608
    10  C    0.356148
    11  C   -0.310102
    12  C   -0.160883
    13  C   -0.263257
    14  C    0.626128
    15  O   -0.486153
    16  O   -0.443422
    17  N   -0.687830
    18  C    0.343628
    19  C   -0.033558
    20  C    0.097782
    21  C    0.250284
    22  C   -0.353250
    23  C   -0.107269
    24  C   -0.247774
    25  N   -0.725387
    26  C    0.254994
    27  C    0.039028
    28  C    0.077312
    29  C    0.330969
    30  C   -0.384202
    31  C   -0.288544
    32  C   -0.311648
    33  N   -0.736882
    34  C    0.247138
    35  C    0.035900
    36  C   -0.021455
    37  C    0.318683
    38  C   -0.344944
    39  C    0.355571
    40  O   -0.426949
    41  C   -0.352805
    42  C    0.644618
    43  O   -0.411596
    44  O   -0.483898
    45  C   -0.069986
    46  C    0.028659
    47  C   -0.166792
    48  C    0.166469
    49  C   -0.379743
    50  C   -0.239937
    51  C   -0.176420
    52  C   -0.156903
    53  C   -0.050634
    54  C   -0.318825
    55  C   -0.183870
    56  C   -0.205449
    57  C   -0.167012
    58  C   -0.055605
    59  C   -0.324678
    60  C   -0.163823
    61  C   -0.218860
    62  C   -0.167907
    63  C   -0.033733
    64  C   -0.327159
    65  C   -0.312066
    66  H    0.092197
    67  H    0.064493
    68  H    0.096194
    69  H    0.097385
    70  H    0.104151
    71  H    0.099505
    72  H    0.100977
    73  H    0.133222
    74  H    0.111280
    75  H    0.120860
    76  H    0.127049
    77  H    0.111891
    78  H    0.123222
    79  H    0.127830
    80  H    0.075008
    81  H    0.115419
    82  H    0.112909
    83  H    0.112814
    84  H    0.115815
    85  H    0.116563
    86  H    0.102164
    87  H    0.078812
    88  H    0.103945
    89  H    0.100889
    90  H    0.108714
    91  H    0.118624
    92  H    0.109197
    93  H    0.149097
    94  H    0.113793
    95  H    0.175811
    96  H    0.084217
    97  H    0.118059
    98  H    0.123736
    99  H    0.138672
   100  H    0.104632
   101  H    0.077284
   102  H    0.124706
   103  H    0.115957
   104  H    0.115814
   105  H    0.101339
   106  H    0.101169
   107  H    0.111591
   108  H    0.090310
   109  H    0.095709
   110  H    0.037302
   111  H    0.090178
   112  H    0.073699
   113  H    0.110500
   114  H    0.093710
   115  H    0.094417
   116  H    0.106316
   117  H    0.104511
   118  H    0.094462
   119  H    0.092203
   120  H    0.086847
   121  H    0.076080
   122  H    0.104065
   123  H    0.097693
   124  H    0.093993
   125  H    0.082392
   126  H    0.100560
   127  H    0.078147
   128  H    0.102481
   129  H    0.084818
   130  H    0.103229
   131  H    0.093394
   132  H    0.102228
   133  H    0.098910
   134  H    0.090612
   135  H    0.098245
   136  H    0.101194
   137  H    0.090519
 Sum of Mulliken charges =   0.00000

 Dipole moment (field-independent basis, Debye):
    X=              1.6994    Y=              4.3256    Z=             -0.0004  Tot=              4.6474
 Quadrupole moment (field-independent basis, Debye-Ang):
   XX=           -337.6821   YY=           -391.2967   ZZ=           -400.9273
   XY=            -20.3204   XZ=              0.5890   YZ=             -5.8342

 Normal termination of Gaussian 09 at Thu Jun 27 08:43:52 2019.
