 Gaussian 09, Revision D.01,
 Gaussian 09:  ES64L-G09RevD.01 24-Apr-2013

 -------------------------------------
 # td=(NStates=1) CAM-B3LYP/6-31G(d,p)
 -------------------------------------

 --
 TD
 --
 Symbolic Z-matrix:
 Charge =  0 Multiplicity = 1

                         Standard orientation:
 ---------------------------------------------------------------------
 Center     Atomic      Atomic             Coordinates (Angstroms)
 Number     Number       Type             X           Y           Z
 ---------------------------------------------------------------------
      1         12           0       -7.102056    0.503333    0.044386
      2          6           0       -4.838287   -1.901837    0.462639
      3          6           0       -4.754502    2.835302    1.202934
      4          6           0       -9.282792    3.145401   -0.381347
      5          6           0       -9.538753   -1.723442   -0.938719
      6          7           0       -5.015125    0.435882    0.756608
      7          6           0       -4.387904   -0.728600    0.795111
      8          6           0       -2.933131   -0.426382    1.164363
      9          6           0       -3.050376    1.009840    1.602969
     10          6           0       -4.443841    1.527769    1.112917
     11          6           0       -2.888654    1.148932    3.187466
     12          6           0       -1.812571   -0.535450    0.014639
     13          6           0       -0.462773   -0.457365    0.566938
     14          6           0        0.515488   -0.610559   -0.578668
     15          8           0        0.281567   -0.759264   -1.722634
     16          8           0        1.780125   -0.449462   -0.093956
     17          7           0       -7.084290    2.639999    0.352605
     18          6           0       -6.071898    3.297667    0.851686
     19          6           0       -6.403757    4.739681    0.965150
     20          6           0       -7.751154    4.859533    0.471447
     21          6           0       -8.148421    3.536740    0.099287
     22          6           0       -5.514963    5.767305    1.548795
     23          6           0       -8.547867    6.092697    0.272477
     24          6           0       -8.168629    7.271818   -0.041837
     25          7           0       -9.032886    0.679271   -0.562536
     26          6           0       -9.915574    1.753783   -0.556708
     27          6           0      -11.213861    1.382989   -0.967515
     28          6           0      -11.190430   -0.015257   -1.141886
     29          6           0       -9.905422   -0.390224   -0.852919
     30          6           0      -12.285853    2.369987   -1.233325
     31          6           0      -12.458385   -0.798947   -1.638184
     32          6           0      -12.449724   -0.983880   -3.177091
     33          7           0       -7.258274   -1.385520   -0.232666
     34          6           0       -8.244107   -2.274097   -0.629931
     35          6           0       -7.861852   -3.673964   -0.372375
     36          6           0       -6.509888   -3.578533   -0.103582
     37          6           0       -6.186053   -2.196129    0.028290
     38          6           0       -8.671611   -4.873774   -0.779031
     39          6           0       -5.336345   -4.356365    0.201151
     40          8           0       -5.086836   -5.530135    0.159889
     41          6           0       -4.171747   -3.259476    0.512971
     42          6           0       -3.611703   -3.653716    1.892872
     43          8           0       -3.606888   -2.937163    2.900999
     44          8           0       -2.925294   -4.767962    1.706157
     45          6           0       -2.226793   -5.255521    2.855312
     46          6           0        2.780891   -0.707079   -1.168069
     47          6           0        4.133233   -0.419975   -0.434858
     48          6           0        5.098372    0.421969   -1.057524
     49          6           0        4.928806    1.177514   -2.337977
     50          6           0        6.385120    0.599818   -0.296910
     51          6           0        7.589757    0.031139   -1.012817
     52          6           0        8.862670    0.020314   -0.197978
     53          6           0       10.099020   -0.527870   -0.949033
     54          6           0       10.112266   -1.908635   -1.486757
     55          6           0       11.417206   -0.262030   -0.200776
     56          6           0       12.733371   -0.450002   -0.973987
     57          6           0       13.893354   -0.056128   -0.130858
     58          6           0       15.375925   -0.196790   -0.539198
     59          6           0       15.714994   -1.774756   -0.755719
     60          6           0       16.372140    0.393232    0.456613
     61          6           0       17.879191    0.552791   -0.095076
     62          6           0       18.858357    1.205165    0.830505
     63          6           0       20.234533    1.179162    0.371251
     64          6           0       20.422114    2.064777   -0.924645
     65          6           0       21.160086    1.764213    1.515175
     66          1           0       -4.114456    3.406122    1.626884
     67          1           0      -10.246111    3.753684   -0.833981
     68          1           0      -10.413961   -2.529427   -1.077343
     69          1           0       -2.774417   -1.071710    2.191160
     70          1           0       -2.371682    1.628257    1.249686
     71          1           0       -1.752063    0.836326    3.556535
     72          1           0       -3.149725    2.259982    3.514066
     73          1           0       -3.590333    0.550653    3.642474
     74          1           0       -1.955238   -1.440099   -0.729978
     75          1           0       -1.984739    0.229944   -0.696003
     76          1           0       -0.197025    0.343934    1.219608
     77          1           0       -0.292297   -1.430648    1.313330
     78          1           0       -4.696297    6.066851    0.845205
     79          1           0       -6.129878    6.573745    1.754060
     80          1           0       -4.974972    5.299408    2.519712
     81          1           0       -9.600487    5.929620    0.382657
     82          1           0       -9.011343    8.051309   -0.246514
     83          1           0       -7.205491    7.691499   -0.363473
     84          1           0      -12.174833    2.960641   -2.107895
     85          1           0      -13.384373    1.842610   -1.488855
     86          1           0      -12.502897    2.926884   -0.287642
     87          1           0      -12.652027   -1.745157   -0.915409
     88          1           0      -13.241428   -0.515332   -1.220146
     89          1           0      -13.195438   -1.658356   -3.493279
     90          1           0      -12.726517    0.123213   -3.508777
     91          1           0      -11.537435   -1.365298   -3.618655
     92          1           0       -8.780143   -4.833910   -1.787843
     93          1           0       -7.954330   -5.729746   -0.426948
     94          1           0       -9.812343   -4.861131   -0.314344
     95          1           0       -3.261141   -3.332101   -0.263791
     96          1           0       -1.485277   -4.550497    3.233150
     97          1           0       -2.744554   -6.044732    3.653787
     98          1           0       -1.517085   -5.970928    2.472787
     99          1           0        2.794652   -1.826656   -1.477076
    100          1           0        2.444300   -0.137917   -2.053777
    101          1           0        4.405360   -0.626952    0.569762
    102          1           0        3.826659    1.178583   -2.338697
    103          1           0        5.440197    2.251597   -2.382844
    104          1           0        5.409497    0.438661   -3.101157
    105          1           0        6.719675    1.647406   -0.057506
    106          1           0        6.499113    0.264893    0.740317
    107          1           0        7.369520   -0.920612   -1.344174
    108          1           0        7.792403    0.592477   -1.920701
    109          1           0        9.188857    0.941737    0.043960
    110          1           0        8.832761   -0.667989    0.690757
    111          1           0       10.264735    0.049696   -1.859374
    112          1           0        9.418588   -1.999740   -2.050255
    113          1           0       10.962979   -2.132047   -1.819540
    114          1           0       10.207559   -2.638367   -0.474027
    115          1           0       11.473012    0.760105    0.322810
    116          1           0       11.502729   -1.049065    0.834530
    117          1           0       12.832372   -1.436690   -1.197230
    118          1           0       12.719744    0.381619   -1.801292
    119          1           0       13.658167    0.767223    0.487212
    120          1           0       13.919381   -0.816664    0.903617
    121          1           0       15.286607    0.328677   -1.459674
    122          1           0       15.670246   -2.270282    0.193260
    123          1           0       14.943117   -2.242463   -1.678675
    124          1           0       16.649364   -1.833452   -1.269531
    125          1           0       16.111996    1.417877    0.637955
    126          1           0       16.228123   -0.240328    1.231016
    127          1           0       18.330384   -0.561908   -0.331038
    128          1           0       17.844330    1.025172   -1.101026
    129          1           0       18.580071    2.265913    0.933438
    130          1           0       18.518176    0.892725    1.887260
    131          1           0       20.490746    0.148758    0.193364
    132          1           0       20.152304    3.014061   -0.678305
    133          1           0       21.505425    2.123257   -1.206092
    134          1           0       19.920674    1.833423   -1.798994
    135          1           0       21.237224    1.174307    2.424925
    136          1           0       22.180785    1.757215    1.166109
    137          1           0       20.552196    2.758076    1.846157
 ---------------------------------------------------------------------

 SCF Done:  E(RCAM-B3LYP) =  -2932.52937909     A.U. after   17 cycles

 Excitation energies and oscillator strengths:

 Excited State   1:      Singlet-A      2.3405 eV  529.73 nm  f=0.2159  <S**2>=0.000
     240 -> 242       -0.23582
     240 -> 243       -0.22810
     241 -> 242        0.58726
     241 -> 243       -0.18470
 This state for optimization and/or second-order correction.
 Total Energy, E(TD-HF/TD-KS) =  -2932.44336689
 Copying the excited state density for this state as the 1-particle RhoCI density.

 The electronic state is 1-A.
 Alpha  occ. eigenvalues --  -46.84274 -19.27406 -19.25281 -19.21395 -19.20636
 Alpha  occ. eigenvalues --  -19.20367 -14.39716 -14.39659 -14.39384 -14.39144
 Alpha  occ. eigenvalues --  -10.39202 -10.38481 -10.34961 -10.32870 -10.32094
 Alpha  occ. eigenvalues --  -10.30293 -10.29613 -10.29521 -10.29453 -10.29444
 Alpha  occ. eigenvalues --  -10.29195 -10.28960 -10.28927 -10.28809 -10.28599
 Alpha  occ. eigenvalues --  -10.28485 -10.27843 -10.27813 -10.27751 -10.27706
 Alpha  occ. eigenvalues --  -10.27521 -10.27494 -10.27445 -10.27155 -10.26936
 Alpha  occ. eigenvalues --  -10.26888 -10.26843 -10.26724 -10.26555 -10.26542
 Alpha  occ. eigenvalues --  -10.26541 -10.26392 -10.26392 -10.26352 -10.26335
 Alpha  occ. eigenvalues --  -10.26302 -10.26016 -10.25905 -10.25875 -10.25809
 Alpha  occ. eigenvalues --  -10.25404 -10.25387 -10.25320 -10.25286 -10.25241
 Alpha  occ. eigenvalues --  -10.25234 -10.25152 -10.24621 -10.24577 -10.24505
 Alpha  occ. eigenvalues --  -10.24384 -10.24203 -10.23595 -10.23401 -10.21920
 Alpha  occ. eigenvalues --   -3.13340  -1.88042  -1.87588  -1.87518  -1.18957
 Alpha  occ. eigenvalues --   -1.18415  -1.11752  -1.09574  -1.08471  -1.05505
 Alpha  occ. eigenvalues --   -1.03729  -1.03561  -1.01838  -0.92125  -0.91551
 Alpha  occ. eigenvalues --   -0.90415  -0.89860  -0.89701  -0.89256  -0.88763
 Alpha  occ. eigenvalues --   -0.88430  -0.88037  -0.87688  -0.86860  -0.85517
 Alpha  occ. eigenvalues --   -0.85096  -0.84491  -0.83784  -0.83390  -0.83363
 Alpha  occ. eigenvalues --   -0.81904  -0.81206  -0.80378  -0.80085  -0.78390
 Alpha  occ. eigenvalues --   -0.77348  -0.77245  -0.76685  -0.76125  -0.75640
 Alpha  occ. eigenvalues --   -0.74739  -0.74532  -0.74184  -0.72579  -0.72241
 Alpha  occ. eigenvalues --   -0.71743  -0.70699  -0.69915  -0.68581  -0.68351
 Alpha  occ. eigenvalues --   -0.67244  -0.66734  -0.65649  -0.65219  -0.64823
 Alpha  occ. eigenvalues --   -0.63801  -0.63572  -0.62850  -0.62321  -0.62190
 Alpha  occ. eigenvalues --   -0.61777  -0.60991  -0.60245  -0.59778  -0.58826
 Alpha  occ. eigenvalues --   -0.58075  -0.57643  -0.57019  -0.56553  -0.56180
 Alpha  occ. eigenvalues --   -0.56151  -0.55953  -0.55924  -0.55076  -0.54964
 Alpha  occ. eigenvalues --   -0.54795  -0.54221  -0.54159  -0.53708  -0.53453
 Alpha  occ. eigenvalues --   -0.53329  -0.53208  -0.52299  -0.52005  -0.51601
 Alpha  occ. eigenvalues --   -0.51396  -0.51191  -0.50967  -0.50615  -0.50508
 Alpha  occ. eigenvalues --   -0.50265  -0.50230  -0.50023  -0.49620  -0.49470
 Alpha  occ. eigenvalues --   -0.49261  -0.49012  -0.48745  -0.48726  -0.48521
 Alpha  occ. eigenvalues --   -0.48178  -0.47770  -0.47404  -0.47193  -0.46991
 Alpha  occ. eigenvalues --   -0.46927  -0.46674  -0.46468  -0.46147  -0.46021
 Alpha  occ. eigenvalues --   -0.45954  -0.45721  -0.45445  -0.45198  -0.45110
 Alpha  occ. eigenvalues --   -0.44758  -0.44582  -0.44503  -0.44379  -0.44232
 Alpha  occ. eigenvalues --   -0.44080  -0.43806  -0.43727  -0.43551  -0.43150
 Alpha  occ. eigenvalues --   -0.43014  -0.42801  -0.42315  -0.42205  -0.42106
 Alpha  occ. eigenvalues --   -0.41840  -0.41553  -0.41197  -0.41064  -0.40866
 Alpha  occ. eigenvalues --   -0.40689  -0.40600  -0.40314  -0.40257  -0.40164
 Alpha  occ. eigenvalues --   -0.39660  -0.39619  -0.39252  -0.38727  -0.38695
 Alpha  occ. eigenvalues --   -0.38486  -0.38124  -0.37999  -0.37569  -0.37546
 Alpha  occ. eigenvalues --   -0.37298  -0.37263  -0.37169  -0.36770  -0.36591
 Alpha  occ. eigenvalues --   -0.35987  -0.35867  -0.35739  -0.35479  -0.35363
 Alpha  occ. eigenvalues --   -0.35230  -0.34940  -0.34565  -0.34008  -0.33430
 Alpha  occ. eigenvalues --   -0.33058  -0.32312  -0.31428  -0.30776  -0.30291
 Alpha  occ. eigenvalues --   -0.29661  -0.28205  -0.28115  -0.27407  -0.23505
 Alpha  occ. eigenvalues --   -0.21962
 Alpha virt. eigenvalues --   -0.05775  -0.03085   0.01815   0.04790   0.05431
 Alpha virt. eigenvalues --    0.05896   0.06228   0.06819   0.06935   0.07903
 Alpha virt. eigenvalues --    0.09090   0.10504   0.11277   0.11660   0.11714

 Mulliken charges:
               1
     1  Mg   0.822122
     2  C    0.116562
     3  C   -0.136219
     4  C   -0.225700
     5  C   -0.178639
     6  N   -0.689671
     7  C    0.318999
     8  C   -0.186663
     9  C   -0.152140
    10  C    0.377584
    11  C   -0.303310
    12  C   -0.178918
    13  C   -0.251381
    14  C    0.623950
    15  O   -0.457696
    16  O   -0.497061
    17  N   -0.700454
    18  C    0.358785
    19  C   -0.024569
    20  C    0.021915
    21  C    0.347320
    22  C   -0.365354
    23  C   -0.059554
    24  C   -0.238524
    25  N   -0.656967
    26  C    0.242679
    27  C    0.008508
    28  C    0.038071
    29  C    0.277719
    30  C   -0.391138
    31  C   -0.195833
    32  C   -0.300766
    33  N   -0.734844
    34  C    0.222273
    35  C    0.010028
    36  C    0.032868
    37  C    0.281208
    38  C   -0.360349
    39  C    0.355192
    40  O   -0.449542
    41  C   -0.345826
    42  C    0.619385
    43  O   -0.487954
    44  O   -0.404574
    45  C   -0.095220
    46  C   -0.009902
    47  C   -0.132206
    48  C    0.087406
    49  C   -0.339829
    50  C   -0.231813
    51  C   -0.180706
    52  C   -0.161341
    53  C   -0.087524
    54  C   -0.241520
    55  C   -0.170848
    56  C   -0.149660
    57  C   -0.169523
    58  C   -0.074269
    59  C   -0.300095
    60  C   -0.164256
    61  C   -0.177999
    62  C   -0.149592
    63  C   -0.069123
    64  C   -0.316514
    65  C   -0.303456
    66  H    0.047889
    67  H    0.093715
    68  H    0.102700
    69  H    0.134569
    70  H    0.094402
    71  H    0.081368
    72  H    0.079780
    73  H    0.137170
    74  H    0.104991
    75  H    0.124667
    76  H    0.148255
    77  H    0.113015
    78  H    0.125893
    79  H    0.129380
    80  H    0.104004
    81  H    0.100035
    82  H    0.088244
    83  H    0.111163
    84  H    0.136644
    85  H    0.081373
    86  H    0.125398
    87  H    0.058563
    88  H    0.114559
    89  H    0.114407
    90  H    0.100082
    91  H    0.124179
    92  H    0.152101
    93  H    0.140280
    94  H    0.100051
    95  H    0.152710
    96  H    0.132676
    97  H    0.114926
    98  H    0.125203
    99  H    0.119760
   100  H    0.147688
   101  H    0.108855
   102  H    0.120473
   103  H    0.114078
   104  H    0.121320
   105  H    0.085583
   106  H    0.097423
   107  H    0.105509
   108  H    0.089734
   109  H    0.100937
   110  H    0.089813
   111  H    0.077239
   112  H    0.093573
   113  H    0.111799
   114  H    0.050407
   115  H    0.076859
   116  H    0.035837
   117  H    0.118841
   118  H    0.083218
   119  H    0.095239
   120  H    0.013701
   121  H    0.081379
   122  H    0.114005
   123  H    0.058794
   124  H    0.117097
   125  H    0.096730
   126  H    0.100936
   127  H    0.057569
   128  H    0.093971
   129  H    0.080574
   130  H    0.085011
   131  H    0.089665
   132  H    0.112670
   133  H    0.093155
   134  H    0.112373
   135  H    0.105159
   136  H    0.103725
   137  H    0.081381
 Sum of Mulliken charges =   0.00000

 Dipole moment (field-independent basis, Debye):
    X=             -0.1077    Y=              3.7099    Z=             -0.9380  Tot=              3.8281
 Quadrupole moment (field-independent basis, Debye-Ang):
   XX=           -321.0182   YY=           -388.9864   ZZ=           -398.3305
   XY=            -10.5031   XZ=              7.7213   YZ=             -4.1382

 Normal termination of Gaussian 09 at Sat Jun 29 06:09:50 2019.
