 Gaussian 09, Revision D.01,
 Gaussian 09:  ES64L-G09RevD.01 24-Apr-2013

 -------------------------------------
 # td=(NStates=1) CAM-B3LYP/6-31G(d,p)
 -------------------------------------

 --
 TD
 --
 Symbolic Z-matrix:
 Charge =  0 Multiplicity = 1

                         Standard orientation:
 ---------------------------------------------------------------------
 Center     Atomic      Atomic             Coordinates (Angstroms)
 Number     Number       Type             X           Y           Z
 ---------------------------------------------------------------------
      1         12           0       -7.188387    0.505010    0.178315
      2          6           0       -4.874280   -1.989581    0.476313
      3          6           0       -4.846264    2.722796    1.185162
      4          6           0       -9.354848    3.157936   -0.379139
      5          6           0       -9.631714   -1.696594   -0.810484
      6          7           0       -5.175921    0.350070    0.761487
      7          6           0       -4.387845   -0.793125    0.730322
      8          6           0       -2.990855   -0.488677    1.254770
      9          6           0       -3.069184    1.042350    1.654949
     10          6           0       -4.461467    1.483147    1.213740
     11          6           0       -2.856291    1.204619    3.263528
     12          6           0       -1.922396   -0.660354    0.080623
     13          6           0       -0.513171   -0.396234    0.557902
     14          6           0        0.486377   -0.562227   -0.621641
     15          8           0        0.220883   -0.808953   -1.750386
     16          8           0        1.733494   -0.279077   -0.162853
     17          7           0       -7.100846    2.546903    0.395360
     18          6           0       -6.043604    3.348581    0.876101
     19          6           0       -6.470891    4.722461    0.915196
     20          6           0       -7.719999    4.854202    0.378967
     21          6           0       -8.113391    3.496212    0.091978
     22          6           0       -5.546009    5.820836    1.356481
     23          6           0       -8.521923    6.028431    0.331036
     24          6           0       -8.052687    7.201745    0.071869
     25          7           0       -9.206995    0.655230   -0.462462
     26          6           0       -9.886337    1.816762   -0.547809
     27          6           0      -11.135230    1.540276   -1.133194
     28          6           0      -11.277063    0.184031   -1.305614
     29          6           0       -9.980722   -0.360106   -0.902626
     30          6           0      -12.289325    2.539524   -1.348804
     31          6           0      -12.451370   -0.623225   -1.763254
     32          6           0      -12.345925   -1.094158   -3.177706
     33          7           0       -7.297317   -1.424261   -0.096975
     34          6           0       -8.258019   -2.306417   -0.489378
     35          6           0       -7.870996   -3.604763   -0.583090
     36          6           0       -6.479433   -3.562754   -0.100030
     37          6           0       -6.197831   -2.199599    0.208473
     38          6           0       -8.642533   -4.951972   -0.853108
     39          6           0       -5.328061   -4.407597    0.207108
     40          8           0       -5.159050   -5.570070    0.165742
     41          6           0       -4.111105   -3.271898    0.519452
     42          6           0       -3.468234   -3.705551    1.718036
     43          8           0       -3.601274   -3.180856    2.823384
     44          8           0       -2.635524   -4.780975    1.621496
     45          6           0       -2.195781   -5.332728    2.885438
     46          6           0        2.699352   -0.354612   -1.236327
     47          6           0        4.033758   -0.287374   -0.555105
     48          6           0        5.074805    0.469703   -0.833200
     49          6           0        5.199248    1.277474   -2.180507
     50          6           0        6.390846    0.435958   -0.169758
     51          6           0        7.576242   -0.079072   -1.011455
     52          6           0        8.891679    0.032035   -0.226358
     53          6           0       10.165220   -0.482252   -0.861111
     54          6           0       10.181168   -2.079306   -1.156519
     55          6           0       11.530607   -0.167898    0.018041
     56          6           0       12.714639   -0.473872   -0.687396
     57          6           0       13.997259   -0.228992    0.144714
     58          6           0       15.344251   -0.293475   -0.602860
     59          6           0       15.687213   -1.724723   -0.971764
     60          6           0       16.445501    0.307020    0.337714
     61          6           0       17.870871    0.410001   -0.267001
     62          6           0       18.781129    1.231417    0.720480
     63          6           0       20.354098    1.252083    0.282835
     64          6           0       20.548081    2.013303   -0.988449
     65          6           0       21.040553    2.022262    1.389582
     66          1           0       -4.016468    3.296265    1.351768
     67          1           0      -10.063836    3.968304   -0.600741
     68          1           0      -10.229031   -2.501622   -1.333865
     69          1           0       -2.720326   -1.144677    1.897357
     70          1           0       -2.329336    1.848789    1.079704
     71          1           0       -1.777672    0.817733    3.480756
     72          1           0       -2.808524    2.282316    3.542175
     73          1           0       -3.551652    0.686121    3.765144
     74          1           0       -2.232442   -1.652780   -0.395260
     75          1           0       -2.244250    0.161511   -0.636495
     76          1           0       -0.397544    0.548106    0.995533
     77          1           0       -0.071083   -1.179552    1.400704
     78          1           0       -5.089271    6.283446    0.450340
     79          1           0       -6.185924    6.551608    2.076615
     80          1           0       -4.791394    5.514832    2.173859
     81          1           0       -9.654568    5.919183    0.466511
     82          1           0       -8.887869    7.964842    0.144010
     83          1           0       -6.992529    7.364320   -0.079897
     84          1           0      -12.041421    2.919671   -2.442994
     85          1           0      -13.238715    1.923386   -1.409008
     86          1           0      -12.608243    3.298265   -0.521572
     87          1           0      -12.589767   -1.585956   -1.119344
     88          1           0      -13.450177   -0.217646   -1.540770
     89          1           0      -13.433815   -1.522551   -3.270736
     90          1           0      -12.075828   -0.190424   -3.829622
     91          1           0      -11.627745   -2.160328   -3.312763
     92          1           0       -8.641594   -4.961717   -2.188347
     93          1           0       -8.032307   -5.849821   -0.776048
     94          1           0       -9.836214   -4.607183   -0.403957
     95          1           0       -3.442539   -3.513873   -0.293127
     96          1           0       -1.619388   -4.567328    3.217177
     97          1           0       -3.039409   -5.282922    3.456814
     98          1           0       -1.757036   -6.335984    2.676479
     99          1           0        2.483459   -1.385819   -1.677453
    100          1           0        2.373612    0.421119   -1.966480
    101          1           0        3.947834   -0.840680    0.386883
    102          1           0        4.240104    1.390799   -2.859754
    103          1           0        5.802982    2.291162   -2.178802
    104          1           0        5.941462    0.687040   -2.696271
    105          1           0        6.393939    1.608723    0.071681
    106          1           0        6.164447   -0.142194    0.843757
    107          1           0        7.593634   -1.250836   -1.252401
    108          1           0        7.730955    0.380371   -1.966451
    109          1           0        9.045900    1.098067   -0.074766
    110          1           0        8.679967   -0.362980    0.880801
    111          1           0       10.276485    0.170247   -1.840254
    112          1           0        9.170214   -2.473879   -1.767575
    113          1           0       11.139505   -2.324354   -1.630826
    114          1           0       10.212922   -2.602283   -0.176808
    115          1           0       11.355805    0.806496    0.240588
    116          1           0       11.196468   -0.834914    0.880252
    117          1           0       12.632805   -1.466400   -1.108533
    118          1           0       13.021115    0.143974   -1.536855
    119          1           0       13.813051    0.662880    0.620586
    120          1           0       13.859550   -1.118205    0.895307
    121          1           0       15.370476    0.348782   -1.613059
    122          1           0       15.991248   -2.299642   -0.111923
    123          1           0       14.905482   -2.383570   -1.446840
    124          1           0       16.631764   -1.742104   -1.564269
    125          1           0       16.187597    1.331354    0.804904
    126          1           0       16.518425   -0.276511    1.156945
    127          1           0       18.083112   -0.713867   -0.560542
    128          1           0       17.555495    1.027046   -1.117834
    129          1           0       18.559233    2.210123    0.743394
    130          1           0       18.947612    0.829286    1.562976
    131          1           0       20.678791    0.293209    0.302911
    132          1           0       20.340869    3.196844   -0.732238
    133          1           0       21.553526    1.929413   -1.401705
    134          1           0       19.883117    1.673747   -1.774481
    135          1           0       21.022059    1.742808    2.387418
    136          1           0       22.146009    2.036876    1.209861
    137          1           0       20.978183    3.251095    1.504003
 ---------------------------------------------------------------------

 SCF Done:  E(RCAM-B3LYP) =  -2932.61002180     A.U. after   17 cycles

 Excitation energies and oscillator strengths:

 Excited State   1:      Singlet-A      2.0796 eV  596.20 nm  f=0.3026  <S**2>=0.000
     240 -> 242       -0.20863
     240 -> 243        0.18255
     241 -> 242        0.63324
     241 -> 243        0.13061
 This state for optimization and/or second-order correction.
 Total Energy, E(TD-HF/TD-KS) =  -2932.53359936
 Copying the excited state density for this state as the 1-particle RhoCI density.

 The electronic state is 1-A.
 Alpha  occ. eigenvalues --  -46.83516 -19.25223 -19.23914 -19.21024 -19.20505
 Alpha  occ. eigenvalues --  -19.18609 -14.40620 -14.39952 -14.39511 -14.38702
 Alpha  occ. eigenvalues --  -10.38445 -10.37418 -10.34893 -10.31422 -10.30912
 Alpha  occ. eigenvalues --  -10.30540 -10.30306 -10.29988 -10.29675 -10.29432
 Alpha  occ. eigenvalues --  -10.29330 -10.29097 -10.28950 -10.28912 -10.28576
 Alpha  occ. eigenvalues --  -10.28424 -10.28339 -10.28111 -10.28103 -10.28044
 Alpha  occ. eigenvalues --  -10.27922 -10.27862 -10.27837 -10.27821 -10.27562
 Alpha  occ. eigenvalues --  -10.27539 -10.27474 -10.27249 -10.27235 -10.27224
 Alpha  occ. eigenvalues --  -10.27084 -10.27061 -10.26932 -10.26855 -10.26684
 Alpha  occ. eigenvalues --  -10.26589 -10.26564 -10.26308 -10.26019 -10.25855
 Alpha  occ. eigenvalues --  -10.25853 -10.25475 -10.25259 -10.25248 -10.25224
 Alpha  occ. eigenvalues --  -10.24869 -10.24782 -10.24749 -10.24747 -10.24705
 Alpha  occ. eigenvalues --  -10.24552 -10.24255 -10.24163 -10.23970 -10.23156
 Alpha  occ. eigenvalues --   -3.12632  -1.87335  -1.86877  -1.86814  -1.18343
 Alpha  occ. eigenvalues --   -1.16242  -1.13015  -1.09912  -1.06277  -1.04589
 Alpha  occ. eigenvalues --   -1.03231  -1.02733  -1.01110  -0.92826  -0.91212
 Alpha  occ. eigenvalues --   -0.91102  -0.90619  -0.89494  -0.89331  -0.88717
 Alpha  occ. eigenvalues --   -0.88561  -0.88021  -0.87544  -0.85902  -0.85735
 Alpha  occ. eigenvalues --   -0.84894  -0.84214  -0.83502  -0.83229  -0.82404
 Alpha  occ. eigenvalues --   -0.81603  -0.81278  -0.80649  -0.79040  -0.78133
 Alpha  occ. eigenvalues --   -0.77106  -0.76822  -0.75802  -0.75470  -0.75219
 Alpha  occ. eigenvalues --   -0.74991  -0.74599  -0.74554  -0.73272  -0.72547
 Alpha  occ. eigenvalues --   -0.71806  -0.70150  -0.69064  -0.68217  -0.67833
 Alpha  occ. eigenvalues --   -0.66975  -0.66866  -0.65611  -0.64850  -0.64712
 Alpha  occ. eigenvalues --   -0.63813  -0.63782  -0.62986  -0.62444  -0.61420
 Alpha  occ. eigenvalues --   -0.61312  -0.60701  -0.60332  -0.59504  -0.59022
 Alpha  occ. eigenvalues --   -0.58359  -0.58012  -0.57228  -0.57013  -0.56226
 Alpha  occ. eigenvalues --   -0.55665  -0.55420  -0.55327  -0.55045  -0.54950
 Alpha  occ. eigenvalues --   -0.54100  -0.53902  -0.53548  -0.52960  -0.52719
 Alpha  occ. eigenvalues --   -0.52558  -0.52328  -0.52107  -0.51727  -0.51678
 Alpha  occ. eigenvalues --   -0.51467  -0.51169  -0.50719  -0.50490  -0.50349
 Alpha  occ. eigenvalues --   -0.50247  -0.50195  -0.49889  -0.49738  -0.49613
 Alpha  occ. eigenvalues --   -0.49344  -0.49296  -0.48590  -0.48409  -0.48017
 Alpha  occ. eigenvalues --   -0.47986  -0.47732  -0.47512  -0.47490  -0.47268
 Alpha  occ. eigenvalues --   -0.47081  -0.46857  -0.46413  -0.46369  -0.45936
 Alpha  occ. eigenvalues --   -0.45729  -0.45371  -0.45173  -0.45107  -0.44632
 Alpha  occ. eigenvalues --   -0.44500  -0.44172  -0.44029  -0.43934  -0.43760
 Alpha  occ. eigenvalues --   -0.43607  -0.43481  -0.43257  -0.43168  -0.42959
 Alpha  occ. eigenvalues --   -0.42606  -0.42454  -0.42241  -0.42115  -0.41767
 Alpha  occ. eigenvalues --   -0.41742  -0.41549  -0.41405  -0.41281  -0.41182
 Alpha  occ. eigenvalues --   -0.40533  -0.40412  -0.40317  -0.40168  -0.40153
 Alpha  occ. eigenvalues --   -0.39987  -0.39852  -0.39732  -0.39669  -0.39111
 Alpha  occ. eigenvalues --   -0.38878  -0.38735  -0.38350  -0.38046  -0.37980
 Alpha  occ. eigenvalues --   -0.37718  -0.37399  -0.37253  -0.37099  -0.36542
 Alpha  occ. eigenvalues --   -0.36532  -0.36343  -0.36162  -0.35922  -0.35620
 Alpha  occ. eigenvalues --   -0.35266  -0.34210  -0.33795  -0.33387  -0.33176
 Alpha  occ. eigenvalues --   -0.32317  -0.31844  -0.31757  -0.31415  -0.29480
 Alpha  occ. eigenvalues --   -0.29050  -0.28927  -0.28459  -0.27902  -0.23765
 Alpha  occ. eigenvalues --   -0.21648
 Alpha virt. eigenvalues --   -0.07318  -0.03181   0.02328   0.04754   0.06482
 Alpha virt. eigenvalues --    0.06845   0.07016   0.07204   0.07379   0.07746
 Alpha virt. eigenvalues --    0.08680   0.09433   0.10809   0.11074   0.11438

 Mulliken charges:
               1
     1  Mg   0.806749
     2  C    0.100048
     3  C   -0.204519
     4  C   -0.186140
     5  C   -0.161510
     6  N   -0.682722
     7  C    0.297084
     8  C   -0.115713
     9  C   -0.169673
    10  C    0.364332
    11  C   -0.299615
    12  C   -0.177216
    13  C   -0.257761
    14  C    0.609717
    15  O   -0.455114
    16  O   -0.490798
    17  N   -0.702833
    18  C    0.351479
    19  C    0.008394
    20  C    0.054952
    21  C    0.304907
    22  C   -0.387035
    23  C   -0.071093
    24  C   -0.228565
    25  N   -0.672590
    26  C    0.304849
    27  C   -0.026409
    28  C    0.059231
    29  C    0.298911
    30  C   -0.364087
    31  C   -0.255745
    32  C   -0.271337
    33  N   -0.725455
    34  C    0.241107
    35  C    0.033752
    36  C   -0.062709
    37  C    0.315789
    38  C   -0.332998
    39  C    0.349474
    40  O   -0.425380
    41  C   -0.362459
    42  C    0.638555
    43  O   -0.519417
    44  O   -0.490323
    45  C   -0.063426
    46  C    0.014684
    47  C   -0.139828
    48  C    0.119585
    49  C   -0.367632
    50  C   -0.207740
    51  C   -0.171392
    52  C   -0.164614
    53  C   -0.082091
    54  C   -0.313381
    55  C   -0.162765
    56  C   -0.178752
    57  C   -0.164574
    58  C   -0.056469
    59  C   -0.321376
    60  C   -0.183561
    61  C   -0.196445
    62  C   -0.145658
    63  C   -0.070326
    64  C   -0.292858
    65  C   -0.323171
    66  H    0.067233
    67  H    0.097987
    68  H    0.096523
    69  H    0.120782
    70  H    0.080309
    71  H    0.098682
    72  H    0.101098
    73  H    0.142509
    74  H    0.111723
    75  H    0.107842
    76  H    0.144747
    77  H    0.111465
    78  H    0.134719
    79  H    0.112448
    80  H    0.114459
    81  H    0.099748
    82  H    0.101323
    83  H    0.109822
    84  H    0.115899
    85  H    0.109298
    86  H    0.114622
    87  H    0.098399
    88  H    0.115002
    89  H    0.095623
    90  H    0.114367
    91  H    0.082562
    92  H    0.070962
    93  H    0.170663
    94  H    0.107091
    95  H    0.167709
    96  H    0.129504
    97  H    0.140307
    98  H    0.125439
    99  H    0.125765
   100  H    0.121231
   101  H    0.095574
   102  H    0.100962
   103  H    0.095640
   104  H    0.134380
   105  H    0.096626
   106  H    0.092588
   107  H    0.090008
   108  H    0.109366
   109  H    0.091459
   110  H    0.068427
   111  H    0.065629
   112  H    0.079152
   113  H    0.112747
   114  H    0.104372
   115  H    0.098790
   116  H    0.091801
   117  H    0.089552
   118  H    0.092795
   119  H    0.098430
   120  H    0.075674
   121  H    0.064297
   122  H    0.107052
   123  H    0.101802
   124  H    0.099241
   125  H    0.073082
   126  H    0.102866
   127  H    0.082569
   128  H    0.099510
   129  H    0.104116
   130  H    0.100358
   131  H    0.101212
   132  H    0.076663
   133  H    0.101202
   134  H    0.105354
   135  H    0.108823
   136  H    0.090858
   137  H    0.070832
 Sum of Mulliken charges =   0.00000

 Dipole moment (field-independent basis, Debye):
    X=              0.1481    Y=              5.9924    Z=              0.4791  Tot=              6.0133
 Quadrupole moment (field-independent basis, Debye-Ang):
   XX=           -312.5451   YY=           -387.3931   ZZ=           -402.2055
   XY=            -38.5576   XZ=             11.3062   YZ=              1.0873

 Normal termination of Gaussian 09 at Sat Jun 29 13:37:51 2019.
