 Gaussian 09, Revision D.01,
 Gaussian 09:  ES64L-G09RevD.01 24-Apr-2013

 -------------------------------------
 # td=(NStates=1) CAM-B3LYP/6-31G(d,p)
 -------------------------------------

 --
 TD
 --
 Symbolic Z-matrix:
 Charge =  0 Multiplicity = 1

                         Standard orientation:
 ---------------------------------------------------------------------
 Center     Atomic      Atomic             Coordinates (Angstroms)
 Number     Number       Type             X           Y           Z
 ---------------------------------------------------------------------
      1         12           0       -7.183321    0.624172    0.184085
      2          6           0       -4.794972   -1.998399    0.460061
      3          6           0       -4.801497    2.900211    1.153949
      4          6           0       -9.439807    3.133914   -0.380958
      5          6           0       -9.542952   -1.813682   -0.812069
      6          7           0       -5.017364    0.485735    0.668537
      7          6           0       -4.219912   -0.697976    0.697283
      8          6           0       -2.919253   -0.328458    1.236398
      9          6           0       -2.908781    1.189171    1.687687
     10          6           0       -4.334353    1.544270    1.221336
     11          6           0       -2.816398    1.404406    3.102925
     12          6           0       -1.938647   -0.581370    0.004398
     13          6           0       -0.454024   -0.459753    0.477883
     14          6           0        0.482318   -0.680491   -0.687019
     15          8           0        0.212597   -1.149811   -1.811352
     16          8           0        1.772530   -0.328046   -0.314890
     17          7           0       -7.097969    2.582104    0.320514
     18          6           0       -6.045208    3.344689    0.795047
     19          6           0       -6.484292    4.704579    0.812312
     20          6           0       -7.747809    4.824930    0.412799
     21          6           0       -8.288608    3.438361    0.129444
     22          6           0       -5.583734    5.802751    1.325815
     23          6           0       -8.717165    6.018213    0.369227
     24          6           0       -8.336639    7.241785    0.124314
     25          7           0       -9.139301    0.664451   -0.387585
     26          6           0       -9.946949    1.831059   -0.575329
     27          6           0      -11.212504    1.456354   -1.104877
     28          6           0      -11.240024    0.088572   -1.145212
     29          6           0       -9.909819   -0.423712   -0.825865
     30          6           0      -12.341408    2.325707   -1.354212
     31          6           0      -12.346102   -0.873370   -1.577008
     32          6           0      -12.271680   -1.179149   -3.173595
     33          7           0       -7.267410   -1.357358   -0.104192
     34          6           0       -8.225892   -2.207365   -0.537607
     35          6           0       -7.793125   -3.638980   -0.483006
     36          6           0       -6.522022   -3.533440   -0.085726
     37          6           0       -6.191355   -2.199967    0.138122
     38          6           0       -8.590208   -4.847202   -0.896249
     39          6           0       -5.252042   -4.315661    0.076404
     40          8           0       -5.174788   -5.593273    0.148811
     41          6           0       -4.078068   -3.339444    0.474599
     42          6           0       -3.467923   -3.717897    1.840759
     43          8           0       -3.674003   -3.243057    2.932919
     44          8           0       -2.763494   -4.842108    1.701096
     45          6           0       -2.172611   -5.445129    2.833972
     46          6           0        2.869769   -0.577337   -1.251146
     47          6           0        4.182280   -0.310388   -0.558805
     48          6           0        5.128843    0.651759   -0.943716
     49          6           0        5.033308    1.744694   -2.016059
     50          6           0        6.438949    0.631389   -0.268533
     51          6           0        7.639568    0.022775   -0.935019
     52          6           0        8.934309   -0.100598   -0.136780
     53          6           0       10.246713   -0.630204   -0.798297
     54          6           0       10.121800   -2.095073   -1.248083
     55          6           0       11.390874   -0.368722   -0.043962
     56          6           0       12.702593   -0.520106   -0.693008
     57          6           0       13.881972   -0.097116    0.211229
     58          6           0       15.225148   -0.246479   -0.433458
     59          6           0       15.623434   -1.723822   -0.925225
     60          6           0       16.389773    0.304183    0.448166
     61          6           0       17.758306    0.626940   -0.244854
     62          6           0       18.732532    1.260653    0.774231
     63          6           0       20.231033    1.348054    0.238077
     64          6           0       20.334177    2.032491   -1.078957
     65          6           0       21.274792    1.882389    1.265504
     66          1           0       -4.195362    3.723939    1.729022
     67          1           0      -10.347652    3.832487   -0.633421
     68          1           0      -10.257873   -2.607579   -0.972114
     69          1           0       -2.602379   -0.923828    2.083466
     70          1           0       -2.274599    1.635994    0.954235
     71          1           0       -1.758656    1.178337    3.410566
     72          1           0       -3.068238    2.447274    3.409254
     73          1           0       -3.472916    0.643741    3.673331
     74          1           0       -2.005133   -1.471847   -0.324622
     75          1           0       -2.132441    0.177678   -0.775382
     76          1           0       -0.085777    0.484146    0.968436
     77          1           0       -0.064898   -1.049043    1.325357
     78          1           0       -4.906787    6.219085    0.578899
     79          1           0       -6.184413    6.593545    1.534560
     80          1           0       -4.756803    5.385028    2.130228
     81          1           0       -9.806512    5.878914    0.507930
     82          1           0       -8.990578    8.047407    0.156499
     83          1           0       -7.261740    7.423870   -0.050619
     84          1           0      -12.141679    2.938293   -2.292333
     85          1           0      -13.172136    1.887217   -1.651516
     86          1           0      -12.627334    2.981270   -0.540197
     87          1           0      -12.390630   -1.873124   -1.194245
     88          1           0      -13.284274   -0.441433   -1.319298
     89          1           0      -13.228283   -1.701398   -3.487421
     90          1           0      -12.055061   -0.309667   -3.824806
     91          1           0      -11.389006   -1.746595   -3.394393
     92          1           0       -8.998398   -4.849121   -1.921527
     93          1           0       -7.915814   -5.721292   -0.879743
     94          1           0       -9.265904   -5.130797   -0.162254
     95          1           0       -3.203121   -3.466108   -0.167426
     96          1           0       -1.386648   -4.708539    3.165128
     97          1           0       -3.123454   -5.751187    3.413211
     98          1           0       -1.508997   -6.380442    2.461687
     99          1           0        2.637287   -1.702135   -1.518259
    100          1           0        2.585143    0.083861   -2.179174
    101          1           0        4.355354   -0.883443    0.252413
    102          1           0        4.019542    1.750630   -2.340732
    103          1           0        5.335294    2.630710   -1.786618
    104          1           0        5.762443    1.449124   -2.843503
    105          1           0        6.797554    1.654401   -0.118613
    106          1           0        6.237279    0.124428    0.827559
    107          1           0        7.310408   -0.929921   -1.455703
    108          1           0        7.595704    0.741056   -1.825761
    109          1           0        9.098051    1.042849    0.423111
    110          1           0        8.759388   -0.871081    0.714884
    111          1           0       10.646658    0.157183   -1.639157
    112          1           0        9.065680   -2.447694   -1.728514
    113          1           0       10.790628   -2.587692   -1.963745
    114          1           0       10.093843   -2.716049   -0.294479
    115          1           0       11.414279    0.599327    0.554533
    116          1           0       11.228014   -1.103909    0.765978
    117          1           0       12.835170   -1.478021   -0.974329
    118          1           0       12.697586    0.212415   -1.482900
    119          1           0       13.707328    1.050934    0.379991
    120          1           0       14.058044   -0.751923    1.150780
    121          1           0       15.180128    0.445167   -1.290593
    122          1           0       15.826923   -2.262666   -0.039816
    123          1           0       14.843909   -2.067411   -1.518790
    124          1           0       16.549192   -1.760853   -1.479754
    125          1           0       15.904805    1.269216    0.894272
    126          1           0       16.467885   -0.338830    1.357722
    127          1           0       18.220663   -0.539550   -0.322148
    128          1           0       17.514291    1.067027   -1.086336
    129          1           0       18.151397    2.216913    1.006862
    130          1           0       18.819072    0.572634    1.659440
    131          1           0       20.334629    0.134085    0.020786
    132          1           0       20.083730    2.974235   -0.927971
    133          1           0       21.348723    1.939567   -1.361393
    134          1           0       19.756854    1.519279   -1.925723
    135          1           0       21.054740    1.188179    2.189715
    136          1           0       22.290199    1.619517    0.803392
    137          1           0       21.236866    2.969920    1.665635
 ---------------------------------------------------------------------

 SCF Done:  E(RCAM-B3LYP) =  -2932.69357210     A.U. after   18 cycles

 Excitation energies and oscillator strengths:

 Excited State   1:      Singlet-A      2.0919 eV  592.68 nm  f=0.1914  <S**2>=0.000
     240 -> 243        0.28970
     241 -> 242        0.64046
 This state for optimization and/or second-order correction.
 Total Energy, E(TD-HF/TD-KS) =  -2932.61669553
 Copying the excited state density for this state as the 1-particle RhoCI density.

 The electronic state is 1-A.
 Alpha  occ. eigenvalues --  -46.82923 -19.25548 -19.25045 -19.21063 -19.20775
 Alpha  occ. eigenvalues --  -19.20544 -14.41812 -14.39827 -14.38947 -14.38590
 Alpha  occ. eigenvalues --  -10.39481 -10.39324 -10.36168 -10.33135 -10.33122
 Alpha  occ. eigenvalues --  -10.31680 -10.31264 -10.29729 -10.29662 -10.29422
 Alpha  occ. eigenvalues --  -10.29193 -10.28983 -10.28848 -10.28758 -10.28356
 Alpha  occ. eigenvalues --  -10.28307 -10.28249 -10.28191 -10.27986 -10.27773
 Alpha  occ. eigenvalues --  -10.27560 -10.27454 -10.27429 -10.27403 -10.27363
 Alpha  occ. eigenvalues --  -10.27357 -10.26970 -10.26892 -10.26863 -10.26808
 Alpha  occ. eigenvalues --  -10.26700 -10.26642 -10.26634 -10.26505 -10.26359
 Alpha  occ. eigenvalues --  -10.26355 -10.26186 -10.26161 -10.26080 -10.25936
 Alpha  occ. eigenvalues --  -10.25807 -10.25604 -10.25563 -10.25545 -10.25458
 Alpha  occ. eigenvalues --  -10.25458 -10.25352 -10.25298 -10.25221 -10.25048
 Alpha  occ. eigenvalues --  -10.24439 -10.24103 -10.24012 -10.23524 -10.22913
 Alpha  occ. eigenvalues --   -3.12111  -1.86805  -1.86351  -1.86298  -1.18923
 Alpha  occ. eigenvalues --   -1.15596  -1.09177  -1.07638  -1.07335  -1.04024
 Alpha  occ. eigenvalues --   -1.02417  -1.01099  -0.99900  -0.92809  -0.92396
 Alpha  occ. eigenvalues --   -0.91257  -0.90257  -0.89489  -0.88985  -0.88518
 Alpha  occ. eigenvalues --   -0.88107  -0.88042  -0.87516  -0.87118  -0.86030
 Alpha  occ. eigenvalues --   -0.85407  -0.84447  -0.83873  -0.83501  -0.82966
 Alpha  occ. eigenvalues --   -0.81923  -0.81173  -0.80706  -0.80403  -0.78827
 Alpha  occ. eigenvalues --   -0.77404  -0.76787  -0.76506  -0.76059  -0.75847
 Alpha  occ. eigenvalues --   -0.75696  -0.75173  -0.74505  -0.73524  -0.72532
 Alpha  occ. eigenvalues --   -0.71656  -0.71223  -0.69803  -0.69537  -0.68041
 Alpha  occ. eigenvalues --   -0.66505  -0.66220  -0.65276  -0.64765  -0.64596
 Alpha  occ. eigenvalues --   -0.63053  -0.62827  -0.61759  -0.61574  -0.61147
 Alpha  occ. eigenvalues --   -0.61078  -0.60401  -0.60184  -0.60129  -0.59186
 Alpha  occ. eigenvalues --   -0.58377  -0.57874  -0.57311  -0.57191  -0.56990
 Alpha  occ. eigenvalues --   -0.56672  -0.56246  -0.55945  -0.55140  -0.54929
 Alpha  occ. eigenvalues --   -0.54765  -0.54303  -0.53924  -0.53654  -0.53292
 Alpha  occ. eigenvalues --   -0.52864  -0.52647  -0.52484  -0.51936  -0.51584
 Alpha  occ. eigenvalues --   -0.51307  -0.51125  -0.51112  -0.50642  -0.50489
 Alpha  occ. eigenvalues --   -0.50230  -0.50007  -0.49828  -0.49729  -0.49588
 Alpha  occ. eigenvalues --   -0.49355  -0.49052  -0.48828  -0.48579  -0.48539
 Alpha  occ. eigenvalues --   -0.48377  -0.48133  -0.47962  -0.47842  -0.47804
 Alpha  occ. eigenvalues --   -0.47220  -0.47023  -0.46704  -0.46598  -0.46391
 Alpha  occ. eigenvalues --   -0.46093  -0.45880  -0.45320  -0.45288  -0.45057
 Alpha  occ. eigenvalues --   -0.44926  -0.44669  -0.44558  -0.44380  -0.44287
 Alpha  occ. eigenvalues --   -0.44147  -0.43930  -0.43812  -0.43710  -0.43418
 Alpha  occ. eigenvalues --   -0.42933  -0.42668  -0.42469  -0.42340  -0.42265
 Alpha  occ. eigenvalues --   -0.41832  -0.41722  -0.41670  -0.41303  -0.41007
 Alpha  occ. eigenvalues --   -0.40768  -0.40667  -0.40474  -0.40263  -0.40149
 Alpha  occ. eigenvalues --   -0.39976  -0.39805  -0.39500  -0.39287  -0.39224
 Alpha  occ. eigenvalues --   -0.39077  -0.38911  -0.38298  -0.38016  -0.37895
 Alpha  occ. eigenvalues --   -0.37516  -0.37031  -0.36995  -0.36536  -0.36360
 Alpha  occ. eigenvalues --   -0.36142  -0.35960  -0.35808  -0.35723  -0.35008
 Alpha  occ. eigenvalues --   -0.34932  -0.34590  -0.34064  -0.33699  -0.33655
 Alpha  occ. eigenvalues --   -0.33623  -0.32845  -0.32386  -0.30795  -0.30043
 Alpha  occ. eigenvalues --   -0.29842  -0.29239  -0.28227  -0.27105  -0.23298
 Alpha  occ. eigenvalues --   -0.20752
 Alpha virt. eigenvalues --   -0.05593  -0.03509   0.00839   0.03822   0.04328
 Alpha virt. eigenvalues --    0.05606   0.06291   0.06653   0.07277   0.07531
 Alpha virt. eigenvalues --    0.08140   0.10791   0.10983   0.11486   0.11703

 Mulliken charges:
               1
     1  Mg   0.820824
     2  C    0.050694
     3  C   -0.195198
     4  C   -0.153737
     5  C   -0.145751
     6  N   -0.608179
     7  C    0.296944
     8  C   -0.207158
     9  C   -0.092642
    10  C    0.280229
    11  C   -0.313300
    12  C   -0.164118
    13  C   -0.296160
    14  C    0.614373
    15  O   -0.495388
    16  O   -0.504957
    17  N   -0.751148
    18  C    0.385635
    19  C    0.012416
    20  C    0.002344
    21  C    0.277013
    22  C   -0.366261
    23  C   -0.058408
    24  C   -0.236585
    25  N   -0.692248
    26  C    0.253239
    27  C    0.032376
    28  C    0.013982
    29  C    0.263656
    30  C   -0.381957
    31  C   -0.239429
    32  C   -0.321510
    33  N   -0.705007
    34  C    0.251405
    35  C   -0.001625
    36  C    0.045748
    37  C    0.288013
    38  C   -0.394745
    39  C    0.367266
    40  O   -0.477988
    41  C   -0.303852
    42  C    0.601400
    43  O   -0.471970
    44  O   -0.434043
    45  C   -0.069089
    46  C    0.013415
    47  C   -0.111280
    48  C    0.107421
    49  C   -0.351039
    50  C   -0.224170
    51  C   -0.152215
    52  C   -0.149986
    53  C   -0.026449
    54  C   -0.327402
    55  C   -0.157223
    56  C   -0.163819
    57  C   -0.166326
    58  C   -0.070331
    59  C   -0.320461
    60  C   -0.182487
    61  C   -0.149436
    62  C   -0.164811
    63  C   -0.053118
    64  C   -0.291500
    65  C   -0.302636
    66  H    0.065930
    67  H    0.099713
    68  H    0.106153
    69  H    0.125748
    70  H    0.127657
    71  H    0.101598
    72  H    0.115726
    73  H    0.129523
    74  H    0.132559
    75  H    0.128568
    76  H    0.136243
    77  H    0.143281
    78  H    0.125057
    79  H    0.122258
    80  H    0.092033
    81  H    0.099218
    82  H    0.104459
    83  H    0.097790
    84  H    0.107122
    85  H    0.122083
    86  H    0.120271
    87  H    0.111229
    88  H    0.102984
    89  H    0.096362
    90  H    0.107278
    91  H    0.113917
    92  H    0.127909
    93  H    0.147362
    94  H    0.138211
    95  H    0.168061
    96  H    0.122802
    97  H    0.141711
    98  H    0.114109
    99  H    0.118786
   100  H    0.114947
   101  H    0.095100
   102  H    0.117321
   103  H    0.135939
   104  H    0.115862
   105  H    0.095224
   106  H    0.066169
   107  H    0.092417
   108  H    0.078977
   109  H    0.060713
   110  H    0.087393
   111  H    0.048245
   112  H    0.088904
   113  H    0.122234
   114  H    0.098877
   115  H    0.084274
   116  H    0.065504
   117  H    0.107851
   118  H    0.093057
   119  H    0.080005
   120  H    0.079663
   121  H    0.069034
   122  H    0.104071
   123  H    0.106133
   124  H    0.109465
   125  H    0.061157
   126  H    0.081034
   127  H    0.057453
   128  H    0.106556
   129  H    0.080296
   130  H    0.091306
   131  H    0.055619
   132  H    0.113593
   133  H    0.099617
   134  H    0.093317
   135  H    0.090382
   136  H    0.102012
   137  H    0.105318
 Sum of Mulliken charges =   0.00000

 Dipole moment (field-independent basis, Debye):
    X=              2.6308    Y=              4.0740    Z=              0.6656  Tot=              4.8950
 Quadrupole moment (field-independent basis, Debye-Ang):
   XX=           -341.1000   YY=           -387.1855   ZZ=           -403.0062
   XY=            -17.6893   XZ=              3.8164   YZ=             -2.2623

 Normal termination of Gaussian 09 at Mon Jul  1 01:15:19 2019.
