 Gaussian 09, Revision D.01,
 Gaussian 09:  ES64L-G09RevD.01 24-Apr-2013

 -------------------------------------
 # td=(NStates=1) CAM-B3LYP/6-31G(d,p)
 -------------------------------------

 --
 TD
 --
 Symbolic Z-matrix:
 Charge =  0 Multiplicity = 1

                         Standard orientation:
 ---------------------------------------------------------------------
 Center     Atomic      Atomic             Coordinates (Angstroms)
 Number     Number       Type             X           Y           Z
 ---------------------------------------------------------------------
      1         12           0       -7.103028    0.501709    0.117195
      2          6           0       -4.817043   -1.941203    0.542680
      3          6           0       -4.797873    2.826258    1.174410
      4          6           0       -9.453677    3.074103   -0.337908
      5          6           0       -9.442135   -1.761808   -0.858554
      6          7           0       -5.174125    0.433513    0.715318
      7          6           0       -4.331147   -0.703751    0.799760
      8          6           0       -2.966033   -0.324760    1.181707
      9          6           0       -3.053385    1.179361    1.639479
     10          6           0       -4.422332    1.537429    1.148563
     11          6           0       -2.851157    1.279737    3.097032
     12          6           0       -1.937462   -0.641488    0.030788
     13          6           0       -0.484934   -0.542272    0.510407
     14          6           0        0.449835   -0.658652   -0.751747
     15          8           0        0.170951   -1.044421   -1.807925
     16          8           0        1.776729   -0.455162   -0.382681
     17          7           0       -7.124346    2.649919    0.423860
     18          6           0       -6.099552    3.393015    0.886666
     19          6           0       -6.441569    4.750356    0.815137
     20          6           0       -7.722131    4.836418    0.401711
     21          6           0       -8.192256    3.498127    0.043654
     22          6           0       -5.715340    5.851737    1.219217
     23          6           0       -8.602318    5.956423    0.332187
     24          6           0       -8.231070    7.243646    0.072057
     25          7           0       -9.080597    0.639647   -0.474373
     26          6           0       -9.820784    1.774628   -0.564553
     27          6           0      -11.198819    1.492192   -1.024213
     28          6           0      -11.210532    0.156156   -1.217078
     29          6           0       -9.871536   -0.436026   -0.780431
     30          6           0      -12.370447    2.516218   -1.238639
     31          6           0      -12.373207   -0.716333   -1.695411
     32          6           0      -12.257946   -1.136563   -3.129582
     33          7           0       -7.166669   -1.402410   -0.001202
     34          6           0       -8.290587   -2.324730   -0.478404
     35          6           0       -7.834442   -3.680630   -0.462530
     36          6           0       -6.477578   -3.591511   -0.060651
     37          6           0       -6.171222   -2.205654    0.112360
     38          6           0       -8.586845   -4.900747   -0.818967
     39          6           0       -5.261280   -4.340142    0.068720
     40          8           0       -5.179996   -5.556460    0.225659
     41          6           0       -4.130383   -3.305929    0.552219
     42          6           0       -3.577033   -3.626618    1.904305
     43          8           0       -3.825020   -3.000987    2.896738
     44          8           0       -2.693411   -4.658285    1.920844
     45          6           0       -2.085179   -5.051363    3.101717
     46          6           0        2.800751   -0.662412   -1.351763
     47          6           0        4.102215   -0.457792   -0.680952
     48          6           0        5.094500    0.316899   -1.141046
     49          6           0        5.145838    1.182252   -2.394050
     50          6           0        6.348593    0.346563   -0.447882
     51          6           0        7.624253   -0.134280   -1.189414
     52          6           0        8.902363   -0.134282   -0.298679
     53          6           0       10.217817   -0.556940   -0.961500
     54          6           0       10.206177   -2.059506   -1.339596
     55          6           0       11.488266   -0.282511   -0.018120
     56          6           0       12.796939   -0.502044   -0.708275
     57          6           0       13.983873   -0.153140    0.203074
     58          6           0       15.292211   -0.233519   -0.327264
     59          6           0       15.674593   -1.633303   -0.907965
     60          6           0       16.393188    0.403616    0.542524
     61          6           0       17.781266    0.482255   -0.054802
     62          6           0       18.777909    1.141266    0.816493
     63          6           0       20.199660    1.393595    0.309446
     64          6           0       20.387321    2.244630   -0.768941
     65          6           0       21.012819    1.981891    1.436647
     66          1           0       -4.059337    3.505130    1.561194
     67          1           0      -10.203191    3.840122   -0.582972
     68          1           0      -10.053654   -2.395772   -1.225399
     69          1           0       -2.615948   -1.107533    1.834756
     70          1           0       -2.360279    1.758226    0.990737
     71          1           0       -1.878256    0.959413    3.267179
     72          1           0       -3.064753    2.155413    3.365989
     73          1           0       -3.571104    0.553354    3.687957
     74          1           0       -1.944514   -1.769538   -0.106312
     75          1           0       -2.174052    0.029126   -1.029707
     76          1           0       -0.200069    0.430792    1.240714
     77          1           0       -0.427245   -1.271210    1.149998
     78          1           0       -5.113725    6.401699    0.656425
     79          1           0       -6.268196    6.585347    2.000632
     80          1           0       -4.989908    5.415287    1.912170
     81          1           0       -9.670456    5.726987    0.368229
     82          1           0       -9.098989    7.996861    0.145141
     83          1           0       -7.150976    7.582658    0.083195
     84          1           0      -12.108685    3.152829   -1.888203
     85          1           0      -13.367639    2.104551   -1.195077
     86          1           0      -12.282365    3.145910   -0.179047
     87          1           0      -12.203042   -1.612319   -1.233585
     88          1           0      -13.179196   -0.292877   -1.696569
     89          1           0      -13.215969   -1.551918   -3.591805
     90          1           0      -12.065753   -0.411563   -3.676501
     91          1           0      -11.499987   -1.827569   -3.321374
     92          1           0       -9.227661   -4.780070   -1.894338
     93          1           0       -7.957185   -5.807077   -0.991216
     94          1           0       -9.406382   -5.081121   -0.115713
     95          1           0       -3.401580   -3.509373   -0.207365
     96          1           0       -1.453269   -4.372134    3.592536
     97          1           0       -2.926391   -5.066566    3.683040
     98          1           0       -1.516037   -5.987390    2.939553
     99          1           0        2.634998   -1.737599   -1.847654
    100          1           0        2.712613    0.104016   -2.108208
    101          1           0        4.323088   -1.104105    0.175153
    102          1           0        4.202231    1.403012   -2.929438
    103          1           0        5.509958    2.228801   -2.245748
    104          1           0        5.875452    0.741968   -3.333070
    105          1           0        6.466199    1.510477   -0.286225
    106          1           0        6.162366   -0.096195    0.508227
    107          1           0        7.343823   -1.222053   -1.645695
    108          1           0        7.925146    0.531171   -1.954342
    109          1           0        9.050355    0.993054    0.017709
    110          1           0        8.756326   -0.674319    0.622517
    111          1           0       10.302376    0.208469   -1.791955
    112          1           0        9.373494   -2.376198   -1.958238
    113          1           0       11.038150   -2.333320   -2.046512
    114          1           0       10.182898   -2.708858   -0.420546
    115          1           0       11.273651    0.740058    0.159733
    116          1           0       11.467024   -0.763717    0.916817
    117          1           0       13.011659   -1.543071   -1.131873
    118          1           0       12.974421    0.215319   -1.574657
    119          1           0       13.864331    0.952436    0.491108
    120          1           0       13.916021   -0.768345    1.014668
    121          1           0       15.437995    0.528670   -1.274269
    122          1           0       15.479606   -2.486533   -0.175814
    123          1           0       14.964666   -1.793443   -1.704618
    124          1           0       16.723226   -1.659405   -1.236792
    125          1           0       16.057587    1.415289    0.647499
    126          1           0       16.311698   -0.104770    1.748288
    127          1           0       18.187963   -0.476750   -0.257842
    128          1           0       17.793265    0.851539   -0.986367
    129          1           0       18.353504    2.120695    1.126461
    130          1           0       18.961558    0.620973    1.804844
    131          1           0       20.678238    0.413124    0.050622
    132          1           0       20.013694    3.276616   -0.601474
    133          1           0       21.368866    2.656129   -1.329529
    134          1           0       20.014909    1.806185   -1.712770
    135          1           0       20.685913    1.540640    2.475401
    136          1           0       22.074268    2.027480    1.222951
    137          1           0       20.637799    2.967035    1.550497
 ---------------------------------------------------------------------

 SCF Done:  E(RCAM-B3LYP) =  -2932.63841173     A.U. after   17 cycles

 Excitation energies and oscillator strengths:

 Excited State   1:      Singlet-A      1.9853 eV  624.51 nm  f=0.3341  <S**2>=0.000
     240 -> 243       -0.19694
     241 -> 242        0.67082
 This state for optimization and/or second-order correction.
 Total Energy, E(TD-HF/TD-KS) =  -2932.56545367
 Copying the excited state density for this state as the 1-particle RhoCI density.

 The electronic state is 1-A.
 Alpha  occ. eigenvalues --  -46.83041 -19.25229 -19.24488 -19.22011 -19.20708
 Alpha  occ. eigenvalues --  -19.20078 -14.40687 -14.40104 -14.39377 -14.38866
 Alpha  occ. eigenvalues --  -10.39458 -10.39019 -10.34935 -10.31595 -10.30108
 Alpha  occ. eigenvalues --  -10.29896 -10.29798 -10.29574 -10.29522 -10.29458
 Alpha  occ. eigenvalues --  -10.29401 -10.29015 -10.28957 -10.28814 -10.28698
 Alpha  occ. eigenvalues --  -10.28283 -10.28272 -10.28214 -10.27770 -10.27413
 Alpha  occ. eigenvalues --  -10.27309 -10.27269 -10.27072 -10.26906 -10.26862
 Alpha  occ. eigenvalues --  -10.26854 -10.26815 -10.26812 -10.26571 -10.26392
 Alpha  occ. eigenvalues --  -10.26366 -10.26234 -10.26215 -10.25939 -10.25905
 Alpha  occ. eigenvalues --  -10.25870 -10.25709 -10.25652 -10.25611 -10.25490
 Alpha  occ. eigenvalues --  -10.25085 -10.25022 -10.24940 -10.24935 -10.24896
 Alpha  occ. eigenvalues --  -10.24637 -10.24635 -10.24572 -10.24528 -10.24061
 Alpha  occ. eigenvalues --  -10.23951 -10.23811 -10.23516 -10.23395 -10.22603
 Alpha  occ. eigenvalues --   -3.12358  -1.87045  -1.86593  -1.86571  -1.18831
 Alpha  occ. eigenvalues --   -1.18627  -1.10256  -1.10173  -1.09814  -1.03905
 Alpha  occ. eigenvalues --   -1.03136  -1.02627  -1.01420  -0.92143  -0.91967
 Alpha  occ. eigenvalues --   -0.91798  -0.90844  -0.90141  -0.89790  -0.89574
 Alpha  occ. eigenvalues --   -0.89162  -0.88811  -0.88517  -0.88397  -0.86525
 Alpha  occ. eigenvalues --   -0.85810  -0.84815  -0.84751  -0.83797  -0.83505
 Alpha  occ. eigenvalues --   -0.82172  -0.81806  -0.80721  -0.79458  -0.78570
 Alpha  occ. eigenvalues --   -0.78179  -0.77605  -0.76506  -0.76074  -0.75938
 Alpha  occ. eigenvalues --   -0.75822  -0.75582  -0.74908  -0.73601  -0.73124
 Alpha  occ. eigenvalues --   -0.72357  -0.71259  -0.70348  -0.69270  -0.68068
 Alpha  occ. eigenvalues --   -0.67071  -0.66683  -0.65651  -0.65051  -0.64710
 Alpha  occ. eigenvalues --   -0.64256  -0.63442  -0.62879  -0.62851  -0.62303
 Alpha  occ. eigenvalues --   -0.60723  -0.60671  -0.60400  -0.60068  -0.59651
 Alpha  occ. eigenvalues --   -0.59135  -0.58770  -0.58390  -0.57658  -0.57445
 Alpha  occ. eigenvalues --   -0.56442  -0.55843  -0.55624  -0.55299  -0.55206
 Alpha  occ. eigenvalues --   -0.54745  -0.54600  -0.54363  -0.53933  -0.53770
 Alpha  occ. eigenvalues --   -0.53472  -0.53252  -0.53105  -0.52483  -0.52328
 Alpha  occ. eigenvalues --   -0.52186  -0.51713  -0.51584  -0.51411  -0.51053
 Alpha  occ. eigenvalues --   -0.51032  -0.50835  -0.50323  -0.49936  -0.49655
 Alpha  occ. eigenvalues --   -0.49577  -0.49458  -0.49374  -0.49246  -0.48929
 Alpha  occ. eigenvalues --   -0.48641  -0.48348  -0.48183  -0.47706  -0.47572
 Alpha  occ. eigenvalues --   -0.47324  -0.47116  -0.46618  -0.46463  -0.46315
 Alpha  occ. eigenvalues --   -0.45872  -0.45636  -0.45423  -0.45293  -0.44962
 Alpha  occ. eigenvalues --   -0.44791  -0.44694  -0.44603  -0.44483  -0.44055
 Alpha  occ. eigenvalues --   -0.43872  -0.43406  -0.43363  -0.43305  -0.43160
 Alpha  occ. eigenvalues --   -0.43002  -0.42990  -0.42838  -0.42648  -0.42481
 Alpha  occ. eigenvalues --   -0.42438  -0.42326  -0.41982  -0.41892  -0.41326
 Alpha  occ. eigenvalues --   -0.41270  -0.41085  -0.40945  -0.40532  -0.40336
 Alpha  occ. eigenvalues --   -0.40011  -0.39747  -0.39425  -0.39364  -0.39262
 Alpha  occ. eigenvalues --   -0.38832  -0.38618  -0.38383  -0.38321  -0.37880
 Alpha  occ. eigenvalues --   -0.37744  -0.37341  -0.37266  -0.36968  -0.36626
 Alpha  occ. eigenvalues --   -0.36610  -0.36150  -0.35836  -0.35410  -0.35322
 Alpha  occ. eigenvalues --   -0.35157  -0.35075  -0.34746  -0.34352  -0.33672
 Alpha  occ. eigenvalues --   -0.33302  -0.33042  -0.32524  -0.30902  -0.30101
 Alpha  occ. eigenvalues --   -0.29592  -0.29412  -0.28692  -0.26857  -0.23500
 Alpha  occ. eigenvalues --   -0.21410
 Alpha virt. eigenvalues --   -0.07196  -0.02532   0.01963   0.04269   0.05505
 Alpha virt. eigenvalues --    0.06025   0.06268   0.06482   0.07360   0.07894
 Alpha virt. eigenvalues --    0.08328   0.10635   0.10850   0.11806   0.11956

 Mulliken charges:
               1
     1  Mg   0.820096
     2  C    0.050849
     3  C   -0.205259
     4  C   -0.156399
     5  C   -0.145231
     6  N   -0.683926
     7  C    0.356915
     8  C   -0.164376
     9  C   -0.153510
    10  C    0.355230
    11  C   -0.271329
    12  C   -0.184125
    13  C   -0.251169
    14  C    0.601123
    15  O   -0.412129
    16  O   -0.502360
    17  N   -0.700366
    18  C    0.334452
    19  C    0.055894
    20  C    0.037241
    21  C    0.262009
    22  C   -0.416436
    23  C   -0.089510
    24  C   -0.246134
    25  N   -0.682694
    26  C    0.315498
    27  C   -0.005546
    28  C   -0.027453
    29  C    0.277443
    30  C   -0.339213
    31  C   -0.168115
    32  C   -0.322296
    33  N   -0.755391
    34  C    0.217186
    35  C    0.093774
    36  C   -0.001165
    37  C    0.356817
    38  C   -0.384382
    39  C    0.321806
    40  O   -0.454612
    41  C   -0.339293
    42  C    0.640600
    43  O   -0.466325
    44  O   -0.459275
    45  C   -0.076944
    46  C    0.029065
    47  C   -0.140563
    48  C    0.157484
    49  C   -0.368418
    50  C   -0.220443
    51  C   -0.157426
    52  C   -0.177526
    53  C   -0.065918
    54  C   -0.311044
    55  C   -0.166727
    56  C   -0.181533
    57  C   -0.153991
    58  C   -0.049165
    59  C   -0.316117
    60  C   -0.146960
    61  C   -0.176059
    62  C   -0.165433
    63  C   -0.057461
    64  C   -0.298086
    65  C   -0.301909
    66  H    0.074129
    67  H    0.094923
    68  H    0.056770
    69  H    0.113326
    70  H    0.115760
    71  H    0.113614
    72  H    0.110641
    73  H    0.115388
    74  H    0.113538
    75  H    0.092220
    76  H    0.097945
    77  H    0.147462
    78  H    0.135446
    79  H    0.106320
    80  H    0.101328
    81  H    0.092024
    82  H    0.094906
    83  H    0.110883
    84  H    0.141861
    85  H    0.129961
    86  H    0.089632
    87  H    0.110249
    88  H    0.084151
    89  H    0.083458
    90  H    0.121133
    91  H    0.102779
    92  H    0.091050
    93  H    0.156969
    94  H    0.143004
    95  H    0.158285
    96  H    0.114340
    97  H    0.132395
    98  H    0.123468
    99  H    0.107127
   100  H    0.111053
   101  H    0.091479
   102  H    0.113117
   103  H    0.115601
   104  H    0.096844
   105  H    0.079450
   106  H    0.099904
   107  H    0.079825
   108  H    0.105738
   109  H    0.069014
   110  H    0.091683
   111  H    0.077691
   112  H    0.100350
   113  H    0.100303
   114  H    0.100104
   115  H    0.095814
   116  H    0.096613
   117  H    0.092335
   118  H    0.082405
   119  H    0.076936
   120  H    0.097979
   121  H    0.043731
   122  H    0.088583
   123  H    0.108503
   124  H    0.103221
   125  H    0.097088
   126  H    0.035129
   127  H    0.096823
   128  H    0.106140
   129  H    0.078076
   130  H    0.091308
   131  H    0.081434
   132  H    0.095772
   133  H    0.084643
   134  H    0.091209
   135  H    0.074711
   136  H    0.106413
   137  H    0.102749
 Sum of Mulliken charges =   0.00000

 Dipole moment (field-independent basis, Debye):
    X=              0.5946    Y=              3.9072    Z=             -0.7640  Tot=              4.0253
 Quadrupole moment (field-independent basis, Debye-Ang):
   XX=           -343.7550   YY=           -393.7924   ZZ=           -397.7715
   XY=            -14.5097   XZ=              6.2603   YZ=             -1.0270

 Normal termination of Gaussian 09 at Mon Jul  1 07:25:28 2019.
