 Gaussian 09, Revision D.01,
 Gaussian 09:  ES64L-G09RevD.01 24-Apr-2013

 -------------------------------------
 # td=(NStates=1) CAM-B3LYP/6-31G(d,p)
 -------------------------------------

 --
 TD
 --
 Symbolic Z-matrix:
 Charge =  0 Multiplicity = 1

                         Standard orientation:
 ---------------------------------------------------------------------
 Center     Atomic      Atomic             Coordinates (Angstroms)
 Number     Number       Type             X           Y           Z
 ---------------------------------------------------------------------
      1         12           0       -7.171888    0.584882    0.137536
      2          6           0       -4.840583   -1.951541    0.584736
      3          6           0       -4.801362    2.905923    1.211931
      4          6           0       -9.389986    2.990566   -0.402081
      5          6           0       -9.480488   -1.750876   -0.961474
      6          7           0       -5.109263    0.484434    0.837438
      7          6           0       -4.354461   -0.687453    0.907313
      8          6           0       -2.936753   -0.319426    1.307271
      9          6           0       -3.022305    1.056933    1.801897
     10          6           0       -4.303941    1.500420    1.208880
     11          6           0       -3.004878    1.222210    3.323284
     12          6           0       -1.897697   -0.366059    0.079745
     13          6           0       -0.448273   -0.240349    0.618291
     14          6           0        0.441095   -0.532404   -0.632136
     15          8           0        0.043911   -0.698077   -1.747528
     16          8           0        1.785676   -0.425859   -0.294399
     17          7           0       -7.146073    2.638787    0.439006
     18          6           0       -5.988278    3.412875    0.830836
     19          6           0       -6.419305    4.757203    0.868758
     20          6           0       -7.668045    4.861746    0.516567
     21          6           0       -8.075125    3.404215    0.087256
     22          6           0       -5.515968    5.929399    1.405486
     23          6           0       -8.630547    5.928893    0.298816
     24          6           0       -8.151478    7.261539    0.090358
     25          7           0       -9.178500    0.644663   -0.422170
     26          6           0       -9.905067    1.753135   -0.593833
     27          6           0      -11.143442    1.435300   -1.239488
     28          6           0      -11.197770    0.026044   -1.350383
     29          6           0       -9.893762   -0.441923   -0.928266
     30          6           0      -12.241549    2.421408   -1.601614
     31          6           0      -12.274226   -0.796130   -1.924623
     32          6           0      -12.134341   -1.166878   -3.364185
     33          7           0       -7.184666   -1.384866   -0.061781
     34          6           0       -8.225721   -2.209875   -0.487665
     35          6           0       -7.750919   -3.636708   -0.459715
     36          6           0       -6.485959   -3.571050    0.040821
     37          6           0       -6.131781   -2.208121    0.180332
     38          6           0       -8.573030   -4.857140   -0.958169
     39          6           0       -5.282975   -4.323910    0.377403
     40          8           0       -5.133124   -5.565127    0.171956
     41          6           0       -4.189963   -3.367404    0.632182
     42          6           0       -3.561347   -3.683856    2.018837
     43          8           0       -3.703202   -3.113229    3.089337
     44          8           0       -2.912181   -4.812096    1.837082
     45          6           0       -2.212147   -5.275279    3.012418
     46          6           0        2.680768   -0.455299   -1.317495
     47          6           0        4.059258   -0.435986   -0.710797
     48          6           0        5.125670    0.339100   -1.089475
     49          6           0        5.126619    1.163630   -2.401706
     50          6           0        6.316357    0.316608   -0.298658
     51          6           0        7.643078   -0.225455   -1.079641
     52          6           0        8.948085   -0.258178   -0.217380
     53          6           0       10.288515   -0.655531   -1.093293
     54          6           0       10.143774   -2.114834   -1.635571
     55          6           0       11.445498   -0.491977   -0.101912
     56          6           0       12.753791   -0.699056   -0.744422
     57          6           0       14.000738   -0.212234    0.124997
     58          6           0       15.381233   -0.198323   -0.498054
     59          6           0       15.709632   -1.569115   -0.984921
     60          6           0       16.326117    0.486186    0.443289
     61          6           0       17.760578    0.504202   -0.118967
     62          6           0       18.750577    1.178686    0.803326
     63          6           0       20.139498    1.343284    0.369440
     64          6           0       20.368707    2.252376   -0.842923
     65          6           0       21.073248    1.961947    1.387915
     66          1           0       -4.186680    3.534929    1.719608
     67          1           0      -10.161233    3.810454   -0.290973
     68          1           0      -10.180931   -2.494811   -1.174959
     69          1           0       -2.388297   -0.886396    2.027093
     70          1           0       -2.190478    1.701621    1.536656
     71          1           0       -2.058445    1.060716    3.710628
     72          1           0       -3.198881    2.315423    3.495907
     73          1           0       -3.635640    0.504962    4.117908
     74          1           0       -1.908596   -1.395581   -0.572197
     75          1           0       -2.324161    0.690785   -0.598739
     76          1           0       -0.287632    0.730645    0.986040
     77          1           0       -0.355608   -1.029442    1.371612
     78          1           0       -4.822701    6.205973    0.645193
     79          1           0       -5.946846    7.032340    1.787353
     80          1           0       -4.879611    5.623389    2.327969
     81          1           0       -9.589566    5.804782    0.646611
     82          1           0       -8.840046    8.127039    0.249819
     83          1           0       -7.083946    7.526070   -0.169024
     84          1           0      -12.001605    2.976171   -2.432541
     85          1           0      -13.282151    1.893276   -1.790434
     86          1           0      -12.293238    3.315084   -0.675633
     87          1           0      -12.474020   -1.625821   -1.463576
     88          1           0      -13.095982   -0.125256   -1.657237
     89          1           0      -12.871342   -2.020721   -3.545566
     90          1           0      -12.409654   -0.364956   -4.212826
     91          1           0      -11.037731   -1.597977   -3.495405
     92          1           0       -9.106081   -4.556271   -1.948489
     93          1           0       -8.228362   -5.811694   -0.819698
     94          1           0       -9.648203   -4.850196   -0.509395
     95          1           0       -3.365551   -3.519815   -0.314607
     96          1           0       -1.704680   -4.610723    3.426124
     97          1           0       -2.956627   -5.809245    3.760174
     98          1           0       -1.627263   -6.072501    2.799151
     99          1           0        2.314744   -1.521684   -1.939115
    100          1           0        2.444157    0.392921   -2.030209
    101          1           0        4.296040   -1.059196    0.156611
    102          1           0        4.207027    1.115089   -2.974779
    103          1           0        5.088595    2.282358   -2.008800
    104          1           0        5.844096    1.117428   -3.206234
    105          1           0        6.600530    1.401694   -0.039710
    106          1           0        6.107503   -0.278302    0.661384
    107          1           0        7.178492   -1.177532   -1.285159
    108          1           0        7.916898    0.340144   -1.866809
    109          1           0        9.113806    0.814652    0.230007
    110          1           0        8.688740   -0.820823    0.645014
    111          1           0       10.490922    0.213552   -1.807653
    112          1           0        9.095243   -2.098852   -2.181604
    113          1           0       10.774853   -2.432694   -2.347680
    114          1           0       10.181139   -2.669050   -0.608914
    115          1           0       11.358638    0.666958    0.566014
    116          1           0       11.166308   -1.254033    0.628475
    117          1           0       12.899203   -1.669739   -1.002295
    118          1           0       13.039972   -0.073848   -1.687403
    119          1           0       13.638256    0.799581    0.694194
    120          1           0       13.949340   -0.634116    1.151477
    121          1           0       15.157445    0.433867   -1.180052
    122          1           0       15.603670   -2.339352   -0.299162
    123          1           0       15.100890   -1.798394   -1.821067
    124          1           0       16.720408   -1.673983   -1.434216
    125          1           0       15.783589    1.343461    0.745357
    126          1           0       16.327577   -0.066788    1.424788
    127          1           0       18.174547   -0.452745   -0.261495
    128          1           0       17.747406    1.053300   -1.100307
    129          1           0       18.476399    2.139217    1.474076
    130          1           0       18.742982    0.441896    1.623877
    131          1           0       20.475844    0.275365    0.199311
    132          1           0       20.034636    3.328199   -0.502733
    133          1           0       21.476036    2.161131   -1.192387
    134          1           0       19.740984    2.139408   -1.876096
    135          1           0       21.073999    1.563834    2.389655
    136          1           0       21.971785    1.942746    1.013940
    137          1           0       20.786442    2.918718    1.502465
 ---------------------------------------------------------------------

 SCF Done:  E(RCAM-B3LYP) =  -2932.56906127     A.U. after   16 cycles

 Excitation energies and oscillator strengths:

 Excited State   1:      Singlet-A      1.9218 eV  645.16 nm  f=0.2589  <S**2>=0.000
     240 -> 243       -0.22506
     241 -> 242        0.66834
 This state for optimization and/or second-order correction.
 Total Energy, E(TD-HF/TD-KS) =  -2932.49843748
 Copying the excited state density for this state as the 1-particle RhoCI density.

 The electronic state is 1-A.
 Alpha  occ. eigenvalues --  -46.84609 -19.27145 -19.26084 -19.22790 -19.21326
 Alpha  occ. eigenvalues --  -19.19185 -14.43136 -14.39575 -14.39388 -14.37968
 Alpha  occ. eigenvalues --  -10.40321 -10.39806 -10.34315 -10.33171 -10.31991
 Alpha  occ. eigenvalues --  -10.30670 -10.30318 -10.30033 -10.29979 -10.29956
 Alpha  occ. eigenvalues --  -10.29852 -10.29169 -10.28644 -10.28327 -10.28127
 Alpha  occ. eigenvalues --  -10.28076 -10.28035 -10.27988 -10.27911 -10.27839
 Alpha  occ. eigenvalues --  -10.27700 -10.27611 -10.27589 -10.27528 -10.27406
 Alpha  occ. eigenvalues --  -10.27192 -10.27120 -10.27055 -10.27052 -10.26886
 Alpha  occ. eigenvalues --  -10.26833 -10.26827 -10.26766 -10.26645 -10.26614
 Alpha  occ. eigenvalues --  -10.26424 -10.26283 -10.26220 -10.26190 -10.26139
 Alpha  occ. eigenvalues --  -10.26075 -10.25818 -10.25629 -10.25579 -10.25396
 Alpha  occ. eigenvalues --  -10.25237 -10.24991 -10.24988 -10.24817 -10.24474
 Alpha  occ. eigenvalues --  -10.24465 -10.24413 -10.23705 -10.23420 -10.21676
 Alpha  occ. eigenvalues --   -3.13585  -1.88299  -1.87813  -1.87762  -1.19594
 Alpha  occ. eigenvalues --   -1.19371  -1.11730  -1.09357  -1.07703  -1.05271
 Alpha  occ. eigenvalues --   -1.04574  -1.03009  -1.02126  -0.92834  -0.91678
 Alpha  occ. eigenvalues --   -0.91103  -0.90845  -0.90085  -0.89947  -0.89008
 Alpha  occ. eigenvalues --   -0.88934  -0.88264  -0.87178  -0.86669  -0.86018
 Alpha  occ. eigenvalues --   -0.84722  -0.84360  -0.83519  -0.83122  -0.82393
 Alpha  occ. eigenvalues --   -0.81528  -0.81390  -0.80563  -0.79722  -0.78206
 Alpha  occ. eigenvalues --   -0.77453  -0.77072  -0.76662  -0.76613  -0.76086
 Alpha  occ. eigenvalues --   -0.75099  -0.74824  -0.74281  -0.73077  -0.72433
 Alpha  occ. eigenvalues --   -0.71756  -0.70710  -0.69685  -0.68882  -0.68171
 Alpha  occ. eigenvalues --   -0.67197  -0.66988  -0.65236  -0.65158  -0.64711
 Alpha  occ. eigenvalues --   -0.64523  -0.64463  -0.62757  -0.62705  -0.62429
 Alpha  occ. eigenvalues --   -0.61639  -0.61537  -0.60405  -0.59962  -0.59446
 Alpha  occ. eigenvalues --   -0.58852  -0.58607  -0.57822  -0.57676  -0.57215
 Alpha  occ. eigenvalues --   -0.57050  -0.56151  -0.55612  -0.55445  -0.55194
 Alpha  occ. eigenvalues --   -0.55048  -0.54797  -0.54679  -0.54394  -0.53888
 Alpha  occ. eigenvalues --   -0.53055  -0.52755  -0.52163  -0.51688  -0.51521
 Alpha  occ. eigenvalues --   -0.51365  -0.51253  -0.51154  -0.50889  -0.50823
 Alpha  occ. eigenvalues --   -0.50418  -0.50153  -0.49924  -0.49742  -0.49191
 Alpha  occ. eigenvalues --   -0.49097  -0.48995  -0.48817  -0.48687  -0.48071
 Alpha  occ. eigenvalues --   -0.48004  -0.47869  -0.47666  -0.47448  -0.47253
 Alpha  occ. eigenvalues --   -0.46860  -0.46630  -0.46433  -0.46262  -0.46112
 Alpha  occ. eigenvalues --   -0.46004  -0.45881  -0.45230  -0.45106  -0.44939
 Alpha  occ. eigenvalues --   -0.44464  -0.44184  -0.44051  -0.43970  -0.43859
 Alpha  occ. eigenvalues --   -0.43599  -0.43546  -0.43421  -0.43305  -0.43105
 Alpha  occ. eigenvalues --   -0.42896  -0.42537  -0.42136  -0.41984  -0.41883
 Alpha  occ. eigenvalues --   -0.41764  -0.41496  -0.41374  -0.41342  -0.40991
 Alpha  occ. eigenvalues --   -0.40895  -0.40822  -0.40738  -0.40635  -0.40423
 Alpha  occ. eigenvalues --   -0.40208  -0.39729  -0.39583  -0.39547  -0.39397
 Alpha  occ. eigenvalues --   -0.39377  -0.38691  -0.38555  -0.38432  -0.38375
 Alpha  occ. eigenvalues --   -0.37717  -0.37533  -0.37085  -0.36842  -0.36677
 Alpha  occ. eigenvalues --   -0.36585  -0.36406  -0.36293  -0.36105  -0.35397
 Alpha  occ. eigenvalues --   -0.35279  -0.35017  -0.34535  -0.34527  -0.33974
 Alpha  occ. eigenvalues --   -0.33444  -0.33023  -0.32533  -0.30800  -0.29810
 Alpha  occ. eigenvalues --   -0.28878  -0.28464  -0.28030  -0.27383  -0.23341
 Alpha  occ. eigenvalues --   -0.19750
 Alpha virt. eigenvalues --   -0.05860  -0.03364   0.00622   0.02678   0.04545
 Alpha virt. eigenvalues --    0.05518   0.05730   0.05980   0.06799   0.07192
 Alpha virt. eigenvalues --    0.07879   0.10019   0.10976   0.11236   0.11283

 Mulliken charges:
               1
     1  Mg   0.823221
     2  C    0.085062
     3  C   -0.212019
     4  C   -0.212133
     5  C   -0.163614
     6  N   -0.607704
     7  C    0.297491
     8  C   -0.154133
     9  C   -0.137554
    10  C    0.330458
    11  C   -0.307221
    12  C   -0.154744
    13  C   -0.260569
    14  C    0.598646
    15  O   -0.430595
    16  O   -0.465860
    17  N   -0.667043
    18  C    0.309999
    19  C    0.030758
    20  C    0.008862
    21  C    0.306958
    22  C   -0.368897
    23  C   -0.093290
    24  C   -0.238817
    25  N   -0.714491
    26  C    0.354641
    27  C    0.018375
    28  C    0.001953
    29  C    0.296529
    30  C   -0.360414
    31  C   -0.206338
    32  C   -0.295897
    33  N   -0.741877
    34  C    0.256258
    35  C    0.004823
    36  C    0.045165
    37  C    0.264448
    38  C   -0.368517
    39  C    0.371510
    40  O   -0.487517
    41  C   -0.313098
    42  C    0.614744
    43  O   -0.482923
    44  O   -0.417932
    45  C   -0.072453
    46  C    0.032758
    47  C   -0.142073
    48  C    0.156355
    49  C   -0.372365
    50  C   -0.258132
    51  C   -0.177924
    52  C   -0.187415
    53  C   -0.079851
    54  C   -0.292586
    55  C   -0.145808
    56  C   -0.163170
    57  C   -0.218129
    58  C   -0.027502
    59  C   -0.320686
    60  C   -0.174266
    61  C   -0.174791
    62  C   -0.166660
    63  C   -0.057326
    64  C   -0.293234
    65  C   -0.295235
    66  H    0.071617
    67  H    0.068047
    68  H    0.082786
    69  H    0.110385
    70  H    0.109565
    71  H    0.118611
    72  H    0.101229
    73  H    0.113649
    74  H    0.109951
    75  H    0.067701
    76  H    0.146496
    77  H    0.140469
    78  H    0.132920
    79  H    0.106240
    80  H    0.103734
    81  H    0.112242
    82  H    0.103194
    83  H    0.112176
    84  H    0.143811
    85  H    0.103817
    86  H    0.077244
    87  H    0.116182
    88  H    0.098183
    89  H    0.094230
    90  H    0.096806
    91  H    0.101173
    92  H    0.115320
    93  H    0.151495
    94  H    0.104315
    95  H    0.158500
    96  H    0.133463
    97  H    0.112376
    98  H    0.129808
    99  H    0.077486
   100  H    0.111005
   101  H    0.089706
   102  H    0.114459
   103  H    0.096717
   104  H    0.131369
   105  H    0.091629
   106  H    0.091386
   107  H    0.107680
   108  H    0.107368
   109  H    0.077266
   110  H    0.096168
   111  H    0.083722
   112  H    0.099244
   113  H    0.121455
   114  H    0.095813
   115  H    0.042048
   116  H    0.094273
   117  H    0.114070
   118  H    0.076359
   119  H    0.052932
   120  H    0.078183
   121  H    0.102684
   122  H    0.113952
   123  H    0.105037
   124  H    0.093520
   125  H    0.100517
   126  H    0.075689
   127  H    0.108831
   128  H    0.086570
   129  H    0.057492
   130  H    0.088461
   131  H    0.071743
   132  H    0.090377
   133  H    0.096027
   134  H    0.076364
   135  H    0.092192
   136  H    0.108719
   137  H    0.107539
 Sum of Mulliken charges =   0.00000

 Dipole moment (field-independent basis, Debye):
    X=              3.3754    Y=              4.1366    Z=              1.0599  Tot=              5.4432
 Quadrupole moment (field-independent basis, Debye-Ang):
   XX=           -365.7465   YY=           -391.0688   ZZ=           -397.2428
   XY=            -28.6683   XZ=              4.0160   YZ=             -0.8423

 Normal termination of Gaussian 09 at Mon Jul  1 12:32:02 2019.
