 Gaussian 09, Revision D.01,
 Gaussian 09:  ES64L-G09RevD.01 24-Apr-2013

 -------------------------------------
 # td=(NStates=1) CAM-B3LYP/6-31G(d,p)
 -------------------------------------

 --
 TD
 --
 Symbolic Z-matrix:
 Charge =  0 Multiplicity = 1

                         Standard orientation:
 ---------------------------------------------------------------------
 Center     Atomic      Atomic             Coordinates (Angstroms)
 Number     Number       Type             X           Y           Z
 ---------------------------------------------------------------------
      1         12           0       -7.075185    0.564852    0.100214
      2          6           0       -4.909492   -1.874459    0.463729
      3          6           0       -4.732663    2.846579    1.251413
      4          6           0       -9.345096    3.080356   -0.225189
      5          6           0       -9.507720   -1.729248   -0.814632
      6          7           0       -5.094764    0.430447    0.694384
      7          6           0       -4.326981   -0.699050    0.665134
      8          6           0       -2.931634   -0.450311    1.038354
      9          6           0       -2.949806    0.980117    1.558093
     10          6           0       -4.252856    1.495573    1.009390
     11          6           0       -2.957233    1.150768    3.175526
     12          6           0       -1.885800   -0.597604   -0.092704
     13          6           0       -0.445575   -0.430320    0.466609
     14          6           0        0.536323   -0.714155   -0.593363
     15          8           0        0.278126   -1.068511   -1.757088
     16          8           0        1.826282   -0.619036   -0.173709
     17          7           0       -7.157587    2.611732    0.290891
     18          6           0       -5.969405    3.301963    0.876211
     19          6           0       -6.345121    4.681676    0.928912
     20          6           0       -7.711638    4.816805    0.448090
     21          6           0       -8.115586    3.448356    0.174730
     22          6           0       -5.508605    5.856958    1.372092
     23          6           0       -8.536420    6.015734    0.364930
     24          6           0       -8.213336    7.272109   -0.046078
     25          7           0       -9.141789    0.578808   -0.419798
     26          6           0       -9.900635    1.785087   -0.552016
     27          6           0      -11.222782    1.495378   -0.976334
     28          6           0      -11.304713    0.253758   -1.219084
     29          6           0       -9.942288   -0.382181   -0.883759
     30          6           0      -12.256493    2.567522   -1.244812
     31          6           0      -12.490603   -0.650868   -1.622875
     32          6           0      -12.529348   -0.993678   -3.142712
     33          7           0       -7.363765   -1.437900    0.055062
     34          6           0       -8.274399   -2.297042   -0.477586
     35          6           0       -7.911333   -3.644548   -0.466678
     36          6           0       -6.532088   -3.526576   -0.097846
     37          6           0       -6.234922   -2.205653    0.219484
     38          6           0       -8.733832   -4.765905   -0.949028
     39          6           0       -5.265821   -4.276163    0.067655
     40          8           0       -5.169659   -5.495893    0.009193
     41          6           0       -4.194932   -3.253493    0.537244
     42          6           0       -3.671090   -3.744128    1.809626
     43          8           0       -3.929692   -3.289232    2.909687
     44          8           0       -2.691877   -4.668327    1.626851
     45          6           0       -2.121979   -5.105299    2.948932
     46          6           0        2.761293   -0.626912   -1.209338
     47          6           0        4.131521   -0.419651   -0.559894
     48          6           0        5.086736    0.310667   -0.994804
     49          6           0        4.978619    1.041438   -2.278054
     50          6           0        6.398511    0.395778   -0.121424
     51          6           0        7.619286   -0.067320   -0.994488
     52          6           0        8.942031   -0.015822   -0.174519
     53          6           0       10.116716   -0.494431   -0.882970
     54          6           0       10.061991   -1.959743   -1.139351
     55          6           0       11.373389   -0.313808    0.080106
     56          6           0       12.763826   -0.497186   -0.668598
     57          6           0       14.055325   -0.132719    0.223540
     58          6           0       15.354289   -0.189697   -0.581966
     59          6           0       15.745227   -1.652810   -0.863163
     60          6           0       16.443358    0.385846    0.345115
     61          6           0       17.848815    0.558129   -0.175552
     62          6           0       18.762148    1.258718    0.708841
     63          6           0       20.271117    1.392078    0.229358
     64          6           0       20.561704    2.124968   -1.119187
     65          6           0       21.089834    1.843707    1.391295
     66          1           0       -3.875178    3.520165    1.644136
     67          1           0      -10.142326    3.890922   -0.294608
     68          1           0      -10.417333   -2.210621   -1.119771
     69          1           0       -2.492759   -1.022779    2.004809
     70          1           0       -1.941649    1.479500    1.091969
     71          1           0       -1.852180    0.773679    3.306631
     72          1           0       -3.135728    2.099823    3.636957
     73          1           0       -3.649684    0.346789    3.395225
     74          1           0       -1.857964   -1.681444   -0.378133
     75          1           0       -2.055380   -0.073892   -1.044853
     76          1           0       -0.326998    0.369283    1.117890
     77          1           0       -0.044346   -1.258616    1.155369
     78          1           0       -4.953251    6.203472    0.531520
     79          1           0       -6.110213    6.679230    1.924850
     80          1           0       -4.570269    5.640420    2.105860
     81          1           0       -9.549438    5.628197    0.557961
     82          1           0       -8.946494    8.174888   -0.298593
     83          1           0       -7.169279    7.423382   -0.305602
     84          1           0      -12.017526    2.988163   -2.309768
     85          1           0      -13.259676    2.096233   -1.171538
     86          1           0      -12.189625    3.653505   -0.653289
     87          1           0      -12.489916   -1.493670   -0.990060
     88          1           0      -13.473744    0.107983   -1.385145
     89          1           0      -13.559078   -1.382747   -3.572493
     90          1           0      -12.363383    0.099078   -3.508923
     91          1           0      -11.678314   -1.783822   -3.480318
     92          1           0       -8.875141   -4.755135   -2.034058
     93          1           0       -8.092185   -5.520568   -0.925602
     94          1           0       -9.653332   -4.775129   -0.392463
     95          1           0       -3.471278   -3.526789   -0.242554
     96          1           0       -1.666674   -4.101264    3.450171
     97          1           0       -3.084352   -5.641104    3.434986
     98          1           0       -1.441178   -5.924268    2.687242
     99          1           0        2.626744   -1.695585   -1.648805
    100          1           0        2.610859    0.057382   -2.052459
    101          1           0        4.377132   -1.184885    0.291738
    102          1           0        3.841628    1.178098   -2.577620
    103          1           0        5.270644    2.185873   -2.177768
    104          1           0        5.435005    0.519237   -3.236417
    105          1           0        6.645544    1.533643    0.119235
    106          1           0        6.142367   -0.109880    0.763814
    107          1           0        7.389255   -1.060432   -1.261212
    108          1           0        7.443986    0.560997   -1.863696
    109          1           0        9.217011    0.953566    0.136974
    110          1           0        8.798478   -0.784010    0.608744
    111          1           0       10.364042    0.106539   -1.841329
    112          1           0        9.079211   -2.187663   -1.724829
    113          1           0       10.920754   -2.360224   -1.582547
    114          1           0       10.090156   -2.579025   -0.216439
    115          1           0       11.458902    0.846258    0.346831
    116          1           0       11.341780   -0.760250    1.078259
    117          1           0       12.909666   -1.661741   -1.116713
    118          1           0       12.715632    0.321089   -1.447127
    119          1           0       13.954500    0.952549    0.586604
    120          1           0       14.122038   -0.690056    1.218751
    121          1           0       15.407997    0.284352   -1.538213
    122          1           0       15.754438   -2.175144    0.083576
    123          1           0       15.045953   -2.122875   -1.485163
    124          1           0       16.713112   -1.606756   -1.322346
    125          1           0       16.197800    1.435239    0.544827
    126          1           0       16.447635   -0.197677    1.244989
    127          1           0       18.462480   -0.344989   -0.411270
    128          1           0       17.726013    1.113171   -1.175783
    129          1           0       18.455358    2.356501    1.215237
    130          1           0       18.682207    0.752675    1.797588
    131          1           0       20.625426    0.320909    0.197924
    132          1           0       20.444155    3.253068   -0.917210
    133          1           0       21.614618    2.076351   -1.515014
    134          1           0       19.863313    1.728712   -1.950918
    135          1           0       20.767446    1.476126    2.508217
    136          1           0       22.133995    1.801990    1.260018
    137          1           0       20.991718    2.856431    1.537501
 ---------------------------------------------------------------------

 SCF Done:  E(RCAM-B3LYP) =  -2932.68178567     A.U. after   18 cycles

 Excitation energies and oscillator strengths:

 Excited State   1:      Singlet-A      1.9528 eV  634.91 nm  f=0.2408  <S**2>=0.000
     240 -> 243       -0.23568
     241 -> 242        0.66360
 This state for optimization and/or second-order correction.
 Total Energy, E(TD-HF/TD-KS) =  -2932.61002195
 Copying the excited state density for this state as the 1-particle RhoCI density.

 The electronic state is 1-A.
 Alpha  occ. eigenvalues --  -46.84689 -19.26447 -19.25532 -19.21085 -19.20023
 Alpha  occ. eigenvalues --  -19.19780 -14.42779 -14.39272 -14.39255 -14.38566
 Alpha  occ. eigenvalues --  -10.39882 -10.38449 -10.34605 -10.33237 -10.32043
 Alpha  occ. eigenvalues --  -10.31899 -10.30717 -10.29944 -10.29600 -10.29454
 Alpha  occ. eigenvalues --  -10.28802 -10.28786 -10.28716 -10.28682 -10.28596
 Alpha  occ. eigenvalues --  -10.28433 -10.28248 -10.28240 -10.28209 -10.28072
 Alpha  occ. eigenvalues --  -10.27893 -10.27889 -10.27887 -10.27842 -10.27745
 Alpha  occ. eigenvalues --  -10.27732 -10.27675 -10.27647 -10.27553 -10.27427
 Alpha  occ. eigenvalues --  -10.27244 -10.26999 -10.26998 -10.26969 -10.26754
 Alpha  occ. eigenvalues --  -10.26701 -10.26668 -10.26609 -10.26551 -10.26516
 Alpha  occ. eigenvalues --  -10.26331 -10.26224 -10.26031 -10.25971 -10.25770
 Alpha  occ. eigenvalues --  -10.25232 -10.25188 -10.25184 -10.24839 -10.24635
 Alpha  occ. eigenvalues --  -10.24288 -10.24275 -10.24202 -10.23822 -10.22910
 Alpha  occ. eigenvalues --   -3.13647  -1.88357  -1.87896  -1.87810  -1.18924
 Alpha  occ. eigenvalues --   -1.16818  -1.10133  -1.08562  -1.07552  -1.05085
 Alpha  occ. eigenvalues --   -1.03767  -1.03542  -1.02310  -0.93118  -0.91695
 Alpha  occ. eigenvalues --   -0.91135  -0.90660  -0.90212  -0.89499  -0.89268
 Alpha  occ. eigenvalues --   -0.88241  -0.88142  -0.87503  -0.87027  -0.86550
 Alpha  occ. eigenvalues --   -0.84847  -0.84319  -0.83411  -0.83329  -0.81924
 Alpha  occ. eigenvalues --   -0.81254  -0.80924  -0.80538  -0.79895  -0.78376
 Alpha  occ. eigenvalues --   -0.77339  -0.76439  -0.76190  -0.76132  -0.75581
 Alpha  occ. eigenvalues --   -0.75552  -0.75232  -0.74533  -0.73497  -0.73002
 Alpha  occ. eigenvalues --   -0.72062  -0.71189  -0.68813  -0.68269  -0.67867
 Alpha  occ. eigenvalues --   -0.67137  -0.66515  -0.65827  -0.64451  -0.63735
 Alpha  occ. eigenvalues --   -0.63610  -0.63250  -0.63085  -0.62479  -0.61817
 Alpha  occ. eigenvalues --   -0.61697  -0.61019  -0.60262  -0.59003  -0.58648
 Alpha  occ. eigenvalues --   -0.58213  -0.57833  -0.57613  -0.57338  -0.57149
 Alpha  occ. eigenvalues --   -0.56792  -0.55871  -0.55506  -0.54863  -0.54736
 Alpha  occ. eigenvalues --   -0.54575  -0.54360  -0.53883  -0.53408  -0.52769
 Alpha  occ. eigenvalues --   -0.52435  -0.52268  -0.51984  -0.51722  -0.51146
 Alpha  occ. eigenvalues --   -0.51075  -0.50912  -0.50688  -0.50620  -0.50429
 Alpha  occ. eigenvalues --   -0.50341  -0.50075  -0.49969  -0.49683  -0.49440
 Alpha  occ. eigenvalues --   -0.49282  -0.48885  -0.48311  -0.48265  -0.48193
 Alpha  occ. eigenvalues --   -0.48185  -0.48049  -0.47831  -0.47763  -0.47465
 Alpha  occ. eigenvalues --   -0.47162  -0.47050  -0.46851  -0.46601  -0.46493
 Alpha  occ. eigenvalues --   -0.45946  -0.45662  -0.45443  -0.44867  -0.44727
 Alpha  occ. eigenvalues --   -0.44483  -0.44228  -0.44014  -0.43821  -0.43547
 Alpha  occ. eigenvalues --   -0.43377  -0.43357  -0.43053  -0.42919  -0.42791
 Alpha  occ. eigenvalues --   -0.42710  -0.42654  -0.42412  -0.42214  -0.42070
 Alpha  occ. eigenvalues --   -0.41836  -0.41738  -0.41425  -0.41329  -0.40963
 Alpha  occ. eigenvalues --   -0.40905  -0.40716  -0.40688  -0.40471  -0.40371
 Alpha  occ. eigenvalues --   -0.40060  -0.39945  -0.39913  -0.39726  -0.39259
 Alpha  occ. eigenvalues --   -0.38980  -0.38743  -0.38599  -0.38577  -0.38085
 Alpha  occ. eigenvalues --   -0.37965  -0.37790  -0.37190  -0.36872  -0.36595
 Alpha  occ. eigenvalues --   -0.36413  -0.36390  -0.36006  -0.35543  -0.35457
 Alpha  occ. eigenvalues --   -0.35297  -0.35012  -0.34253  -0.33961  -0.33546
 Alpha  occ. eigenvalues --   -0.33451  -0.33327  -0.32959  -0.31197  -0.30299
 Alpha  occ. eigenvalues --   -0.29723  -0.29457  -0.28478  -0.26838  -0.23267
 Alpha  occ. eigenvalues --   -0.21033
 Alpha virt. eigenvalues --   -0.06837  -0.03094   0.01426   0.03565   0.05257
 Alpha virt. eigenvalues --    0.05475   0.06149   0.06788   0.07126   0.07457
 Alpha virt. eigenvalues --    0.08435   0.09897   0.10167   0.11203   0.11594

 Mulliken charges:
               1
     1  Mg   0.814141
     2  C    0.060996
     3  C   -0.216362
     4  C   -0.211138
     5  C   -0.168459
     6  N   -0.636387
     7  C    0.338936
     8  C   -0.166774
     9  C   -0.168241
    10  C    0.308281
    11  C   -0.293972
    12  C   -0.182060
    13  C   -0.276773
    14  C    0.619297
    15  O   -0.495579
    16  O   -0.471899
    17  N   -0.744579
    18  C    0.303795
    19  C    0.008659
    20  C   -0.007907
    21  C    0.415195
    22  C   -0.380499
    23  C   -0.060713
    24  C   -0.260007
    25  N   -0.634863
    26  C    0.246466
    27  C    0.092532
    28  C    0.010447
    29  C    0.248133
    30  C   -0.365559
    31  C   -0.230357
    32  C   -0.284345
    33  N   -0.715429
    34  C    0.274964
    35  C    0.030845
    36  C   -0.029676
    37  C    0.317550
    38  C   -0.353393
    39  C    0.325048
    40  O   -0.465281
    41  C   -0.325689
    42  C    0.655943
    43  O   -0.492735
    44  O   -0.479805
    45  C   -0.073546
    46  C    0.020344
    47  C   -0.137525
    48  C    0.147040
    49  C   -0.377672
    50  C   -0.214374
    51  C   -0.193939
    52  C   -0.141593
    53  C   -0.050902
    54  C   -0.304764
    55  C   -0.190784
    56  C   -0.168589
    57  C   -0.171600
    58  C   -0.070499
    59  C   -0.302445
    60  C   -0.166859
    61  C   -0.171874
    62  C   -0.157552
    63  C   -0.042733
    64  C   -0.313364
    65  C   -0.315773
    66  H    0.102035
    67  H    0.070765
    68  H    0.068969
    69  H    0.110868
    70  H    0.084021
    71  H    0.091017
    72  H    0.130142
    73  H    0.147274
    74  H    0.129180
    75  H    0.138754
    76  H    0.144534
    77  H    0.140584
    78  H    0.137793
    79  H    0.126342
    80  H    0.085240
    81  H    0.091431
    82  H    0.110682
    83  H    0.108082
    84  H    0.124672
    85  H    0.116984
    86  H    0.100903
    87  H    0.120201
    88  H    0.069748
    89  H    0.101429
    90  H    0.105565
    91  H    0.099562
    92  H    0.124623
    93  H    0.150819
    94  H    0.129317
    95  H    0.169829
    96  H    0.129487
    97  H    0.135578
    98  H    0.132750
    99  H    0.113237
   100  H    0.116455
   101  H    0.082283
   102  H    0.097292
   103  H    0.101482
   104  H    0.122111
   105  H    0.080111
   106  H    0.100048
   107  H    0.106809
   108  H    0.103939
   109  H    0.094925
   110  H    0.093802
   111  H    0.076115
   112  H    0.084656
   113  H    0.109649
   114  H    0.094764
   115  H    0.061197
   116  H    0.096824
   117  H    0.067695
   118  H    0.099316
   119  H    0.079362
   120  H    0.086911
   121  H    0.087239
   122  H    0.094928
   123  H    0.101475
   124  H    0.102789
   125  H    0.093520
   126  H    0.089835
   127  H    0.093174
   128  H    0.078752
   129  H    0.048870
   130  H    0.073381
   131  H    0.086810
   132  H    0.097734
   133  H    0.107261
   134  H    0.104114
   135  H    0.080482
   136  H    0.102158
   137  H    0.105576
 Sum of Mulliken charges =   0.00000

 Dipole moment (field-independent basis, Debye):
    X=              1.9896    Y=              5.0690    Z=             -0.1356  Tot=              5.4471
 Quadrupole moment (field-independent basis, Debye-Ang):
   XX=           -351.8560   YY=           -398.7116   ZZ=           -399.7383
   XY=            -20.7653   XZ=             13.5882   YZ=             -3.1277

 Normal termination of Gaussian 09 at Fri Jun 28 20:31:26 2019.
