 Gaussian 09, Revision D.01,
 Gaussian 09:  ES64L-G09RevD.01 24-Apr-2013

 -------------------------------------
 # td=(NStates=1) CAM-B3LYP/6-31G(d,p)
 -------------------------------------

 --
 TD
 --
 Symbolic Z-matrix:
 Charge =  0 Multiplicity = 1

                         Standard orientation:
 ---------------------------------------------------------------------
 Center     Atomic      Atomic             Coordinates (Angstroms)
 Number     Number       Type             X           Y           Z
 ---------------------------------------------------------------------
      1         12           0       -7.168543    0.661924   -0.026374
      2          6           0       -4.991563   -1.876820    0.603648
      3          6           0       -4.772137    2.843392    1.071552
      4          6           0       -9.421087    3.135548   -0.361900
      5          6           0       -9.500244   -1.672705   -0.722664
      6          7           0       -5.108898    0.424065    0.700899
      7          6           0       -4.377818   -0.667786    0.790638
      8          6           0       -2.900203   -0.323232    1.239715
      9          6           0       -3.070233    1.074862    1.717428
     10          6           0       -4.374182    1.544616    1.122548
     11          6           0       -3.016570    1.268277    3.270683
     12          6           0       -1.891508   -0.644695    0.082747
     13          6           0       -0.415748   -0.339658    0.432636
     14          6           0        0.515994   -0.639892   -0.694965
     15          8           0        0.179976   -1.080821   -1.751265
     16          8           0        1.809506   -0.546160   -0.226760
     17          7           0       -7.075477    2.691742    0.409935
     18          6           0       -6.015319    3.456387    0.811816
     19          6           0       -6.388330    4.811632    0.969950
     20          6           0       -7.708263    4.862469    0.499308
     21          6           0       -8.112285    3.528374    0.167563
     22          6           0       -5.453181    5.922277    1.308589
     23          6           0       -8.606479    5.970366    0.443308
     24          6           0       -8.171339    7.170251    0.078112
     25          7           0       -9.131948    0.672297   -0.531518
     26          6           0       -9.890816    1.891842   -0.690187
     27          6           0      -11.216512    1.465320   -1.154200
     28          6           0      -11.282368    0.150835   -1.218516
     29          6           0      -10.078055   -0.369182   -0.819953
     30          6           0      -12.338914    2.450553   -1.520639
     31          6           0      -12.354504   -0.669692   -1.789951
     32          6           0      -12.223257   -1.070886   -3.328469
     33          7           0       -7.280278   -1.414632   -0.079415
     34          6           0       -8.363712   -2.203461   -0.418981
     35          6           0       -7.867378   -3.629480   -0.417747
     36          6           0       -6.500114   -3.584590   -0.061721
     37          6           0       -6.261725   -2.113747    0.121340
     38          6           0       -8.629137   -4.957548   -0.723997
     39          6           0       -5.408722   -4.340556    0.248776
     40          8           0       -5.163744   -5.598314    0.209610
     41          6           0       -4.207713   -3.296133    0.648748
     42          6           0       -3.539574   -3.649662    1.890455
     43          8           0       -3.727605   -3.249197    3.025240
     44          8           0       -2.568290   -4.601761    1.640361
     45          6           0       -1.836058   -5.154709    2.757279
     46          6           0        2.798306   -0.811250   -1.189578
     47          6           0        4.137147   -0.695740   -0.556776
     48          6           0        5.077322    0.133358   -1.098098
     49          6           0        5.171039    0.912481   -2.350402
     50          6           0        6.360920    0.175288   -0.154689
     51          6           0        7.546279   -0.315657   -0.959574
     52          6           0        8.853302   -0.235521   -0.151656
     53          6           0       10.159535   -0.679100   -0.960073
     54          6           0       10.185343   -2.144833   -1.346674
     55          6           0       11.394899   -0.328303   -0.021294
     56          6           0       12.818131   -0.447963   -0.630393
     57          6           0       13.999007   -0.061332    0.303482
     58          6           0       15.319454   -0.135467   -0.470819
     59          6           0       15.717619   -1.501130   -0.827493
     60          6           0       16.411940    0.557030    0.400860
     61          6           0       17.763527    0.739738   -0.207598
     62          6           0       18.788426    1.394457    0.779337
     63          6           0       20.241382    1.484653    0.252461
     64          6           0       20.204857    2.286071   -1.068357
     65          6           0       21.169660    1.984605    1.253990
     66          1           0       -4.158043    3.502662    1.374789
     67          1           0      -10.192490    3.858098   -0.604386
     68          1           0      -10.263222   -2.323373   -1.257279
     69          1           0       -2.750935   -1.065737    1.985578
     70          1           0       -2.276125    1.730997    1.281947
     71          1           0       -2.130482    0.845095    3.636541
     72          1           0       -3.205947    2.333807    3.489132
     73          1           0       -3.869196    0.675240    3.813155
     74          1           0       -1.909939   -1.442187   -0.243286
     75          1           0       -2.013692    0.008317   -0.795551
     76          1           0       -0.362030    0.647093    0.761431
     77          1           0       -0.320110   -0.954217    1.315596
     78          1           0       -5.134437    6.337893    0.228223
     79          1           0       -6.135370    6.617805    1.921007
     80          1           0       -4.604691    5.755510    2.013032
     81          1           0       -9.651656    5.738094    0.810779
     82          1           0       -8.785663    7.904636   -0.036569
     83          1           0       -7.121095    7.276968   -0.249691
     84          1           0      -12.000080    3.007370   -2.316577
     85          1           0      -13.235362    1.954002   -1.743273
     86          1           0      -12.258436    3.477744   -0.829177
     87          1           0      -12.183102   -1.705851   -1.250827
     88          1           0      -13.310314   -0.374045   -1.378071
     89          1           0      -13.123237   -1.635312   -3.739510
     90          1           0      -12.142866   -0.215381   -3.788260
     91          1           0      -11.292117   -1.571522   -3.234241
     92          1           0       -8.998526   -4.600899   -1.657714
     93          1           0       -7.968245   -5.882980   -0.615150
     94          1           0       -9.275064   -4.906386    0.342352
     95          1           0       -3.304732   -3.476098    0.034564
     96          1           0       -1.033360   -4.377872    3.239508
     97          1           0       -2.479778   -5.466030    3.534595
     98          1           0       -1.373005   -6.138415    2.304782
     99          1           0        2.506682   -1.875477   -1.682125
    100          1           0        2.691372   -0.250570   -2.030191
    101          1           0        4.089392   -1.295622    0.225470
    102          1           0        4.088248    1.139885   -2.533437
    103          1           0        5.452710    1.979745   -2.159080
    104          1           0        5.659540    0.481006   -3.104816
    105          1           0        6.372052    1.117030    0.116748
    106          1           0        6.132954   -0.432773    0.713912
    107          1           0        7.243586   -1.381251   -1.318104
    108          1           0        7.569980    0.356379   -1.753618
    109          1           0        9.152298    0.835528    0.230238
    110          1           0        8.928370   -0.717337    0.916148
    111          1           0       10.255287   -0.189703   -1.903823
    112          1           0        9.258375   -2.530385   -1.777086
    113          1           0       10.948540   -2.477172   -2.134613
    114          1           0       10.339985   -2.783356   -0.506233
    115          1           0       11.201115    0.719511    0.089562
    116          1           0       11.464954   -0.848132    0.971198
    117          1           0       12.789847   -1.670841   -0.972217
    118          1           0       12.795324    0.048070   -1.684008
    119          1           0       13.865735    0.965684    0.914686
    120          1           0       13.973756   -0.796963    1.070655
    121          1           0       15.107281    0.636753   -1.330926
    122          1           0       15.546682   -2.097087    0.089627
    123          1           0       15.082739   -2.172472   -1.562543
    124          1           0       16.851520   -1.648515   -1.105043
    125          1           0       15.874793    1.631286    0.563476
    126          1           0       16.480077    0.001452    1.453065
    127          1           0       18.159003   -0.369593   -0.602334
    128          1           0       17.549024    1.156238   -0.993715
    129          1           0       18.420502    2.261132    0.955946
    130          1           0       18.706928    0.934541    1.791737
    131          1           0       20.372957    0.374387   -0.174923
    132          1           0       19.830439    3.199036   -0.845427
    133          1           0       21.275207    2.292239   -1.401343
    134          1           0       19.697659    1.689596   -1.923785
    135          1           0       21.271375    1.193929    2.009270
    136          1           0       22.285205    2.114593    0.855676
    137          1           0       20.837627    3.003141    1.726617
 ---------------------------------------------------------------------

 SCF Done:  E(RCAM-B3LYP) =  -2932.55904291     A.U. after   17 cycles

 Excitation energies and oscillator strengths:

 Excited State   1:      Singlet-A      2.0605 eV  601.71 nm  f=0.2597  <S**2>=0.000
     240 -> 242       -0.10645
     240 -> 243       -0.20518
     240 -> 244       -0.10098
     241 -> 242        0.65030
     241 -> 243       -0.10516
 This state for optimization and/or second-order correction.
 Total Energy, E(TD-HF/TD-KS) =  -2932.48331938
 Copying the excited state density for this state as the 1-particle RhoCI density.

 The electronic state is 1-A.
 Alpha  occ. eigenvalues --  -46.85261 -19.25899 -19.25000 -19.22055 -19.20011
 Alpha  occ. eigenvalues --  -19.20006 -14.41050 -14.39653 -14.39479 -14.38884
 Alpha  occ. eigenvalues --  -10.39450 -10.38229 -10.35358 -10.32020 -10.31413
 Alpha  occ. eigenvalues --  -10.30593 -10.30410 -10.30150 -10.30116 -10.29574
 Alpha  occ. eigenvalues --  -10.29499 -10.29026 -10.28990 -10.28799 -10.28585
 Alpha  occ. eigenvalues --  -10.28370 -10.28230 -10.27901 -10.27731 -10.27709
 Alpha  occ. eigenvalues --  -10.27539 -10.27501 -10.27087 -10.27011 -10.26979
 Alpha  occ. eigenvalues --  -10.26969 -10.26955 -10.26705 -10.26482 -10.26411
 Alpha  occ. eigenvalues --  -10.26369 -10.26341 -10.26253 -10.26194 -10.26152
 Alpha  occ. eigenvalues --  -10.26107 -10.26101 -10.26091 -10.26019 -10.25962
 Alpha  occ. eigenvalues --  -10.25862 -10.25853 -10.25563 -10.25380 -10.25258
 Alpha  occ. eigenvalues --  -10.25080 -10.24881 -10.24537 -10.24339 -10.24214
 Alpha  occ. eigenvalues --  -10.24021 -10.23931 -10.23890 -10.23858 -10.23681
 Alpha  occ. eigenvalues --   -3.14089  -1.88804  -1.88336  -1.88242  -1.18511
 Alpha  occ. eigenvalues --   -1.16266  -1.10885  -1.07531  -1.07461  -1.06287
 Alpha  occ. eigenvalues --   -1.04026  -1.03216  -1.01325  -0.92149  -0.91339
 Alpha  occ. eigenvalues --   -0.90792  -0.90543  -0.89713  -0.89380  -0.89163
 Alpha  occ. eigenvalues --   -0.89032  -0.88397  -0.88168  -0.87714  -0.86371
 Alpha  occ. eigenvalues --   -0.85079  -0.84459  -0.84166  -0.83548  -0.83002
 Alpha  occ. eigenvalues --   -0.82080  -0.81634  -0.80914  -0.80092  -0.79176
 Alpha  occ. eigenvalues --   -0.78635  -0.77390  -0.76427  -0.75789  -0.75674
 Alpha  occ. eigenvalues --   -0.75294  -0.74873  -0.74637  -0.73781  -0.73095
 Alpha  occ. eigenvalues --   -0.72454  -0.71243  -0.70768  -0.70191  -0.68955
 Alpha  occ. eigenvalues --   -0.67800  -0.66851  -0.65710  -0.65312  -0.64542
 Alpha  occ. eigenvalues --   -0.64433  -0.63719  -0.62720  -0.62567  -0.62086
 Alpha  occ. eigenvalues --   -0.61602  -0.61249  -0.60717  -0.59800  -0.59710
 Alpha  occ. eigenvalues --   -0.59340  -0.58414  -0.57497  -0.56939  -0.56778
 Alpha  occ. eigenvalues --   -0.56049  -0.55589  -0.55369  -0.54989  -0.54692
 Alpha  occ. eigenvalues --   -0.54427  -0.54216  -0.53588  -0.53412  -0.53334
 Alpha  occ. eigenvalues --   -0.53160  -0.52852  -0.52341  -0.52203  -0.52080
 Alpha  occ. eigenvalues --   -0.51857  -0.51531  -0.51250  -0.50785  -0.50687
 Alpha  occ. eigenvalues --   -0.50616  -0.50468  -0.50212  -0.49977  -0.49765
 Alpha  occ. eigenvalues --   -0.49617  -0.49184  -0.49148  -0.49059  -0.48794
 Alpha  occ. eigenvalues --   -0.48551  -0.48349  -0.48262  -0.47917  -0.47775
 Alpha  occ. eigenvalues --   -0.47482  -0.47166  -0.46862  -0.46401  -0.46256
 Alpha  occ. eigenvalues --   -0.45820  -0.45815  -0.45481  -0.45454  -0.45115
 Alpha  occ. eigenvalues --   -0.44960  -0.44757  -0.44544  -0.44132  -0.43953
 Alpha  occ. eigenvalues --   -0.43676  -0.43559  -0.43284  -0.42994  -0.42902
 Alpha  occ. eigenvalues --   -0.42819  -0.42626  -0.42576  -0.42456  -0.42226
 Alpha  occ. eigenvalues --   -0.41926  -0.41852  -0.41747  -0.41341  -0.41280
 Alpha  occ. eigenvalues --   -0.41077  -0.40661  -0.40603  -0.40356  -0.40275
 Alpha  occ. eigenvalues --   -0.39989  -0.39800  -0.39637  -0.39555  -0.39494
 Alpha  occ. eigenvalues --   -0.39401  -0.38559  -0.38247  -0.38235  -0.37638
 Alpha  occ. eigenvalues --   -0.37283  -0.36883  -0.36784  -0.36679  -0.36286
 Alpha  occ. eigenvalues --   -0.36247  -0.35801  -0.35614  -0.35534  -0.35277
 Alpha  occ. eigenvalues --   -0.34964  -0.34849  -0.34658  -0.34276  -0.33553
 Alpha  occ. eigenvalues --   -0.33143  -0.32801  -0.32445  -0.31257  -0.30471
 Alpha  occ. eigenvalues --   -0.29874  -0.29550  -0.28508  -0.27083  -0.23457
 Alpha  occ. eigenvalues --   -0.21371
 Alpha virt. eigenvalues --   -0.06879  -0.03534   0.01006   0.04556   0.04862
 Alpha virt. eigenvalues --    0.05683   0.05913   0.05988   0.07000   0.07691
 Alpha virt. eigenvalues --    0.08766   0.09937   0.10862   0.11407   0.11822

 Mulliken charges:
               1
     1  Mg   0.830170
     2  C    0.030028
     3  C   -0.157719
     4  C   -0.154194
     5  C   -0.234553
     6  N   -0.630809
     7  C    0.308850
     8  C   -0.153319
     9  C   -0.156149
    10  C    0.339115
    11  C   -0.300394
    12  C   -0.132162
    13  C   -0.291676
    14  C    0.619001
    15  O   -0.448427
    16  O   -0.478971
    17  N   -0.716174
    18  C    0.290125
    19  C    0.022783
    20  C   -0.008428
    21  C    0.304376
    22  C   -0.369112
    23  C   -0.088229
    24  C   -0.226961
    25  N   -0.705506
    26  C    0.278365
    27  C    0.024159
    28  C    0.078058
    29  C    0.262390
    30  C   -0.370487
    31  C   -0.287268
    32  C   -0.284922
    33  N   -0.726676
    34  C    0.329150
    35  C   -0.032400
    36  C    0.087973
    37  C    0.337182
    38  C   -0.329700
    39  C    0.322763
    40  O   -0.504039
    41  C   -0.314282
    42  C    0.622957
    43  O   -0.484457
    44  O   -0.473940
    45  C   -0.069291
    46  C    0.001579
    47  C   -0.085200
    48  C    0.053996
    49  C   -0.367415
    50  C   -0.206578
    51  C   -0.171525
    52  C   -0.177073
    53  C   -0.057126
    54  C   -0.316871
    55  C   -0.176262
    56  C   -0.176271
    57  C   -0.166209
    58  C   -0.039773
    59  C   -0.305022
    60  C   -0.176814
    61  C   -0.138970
    62  C   -0.162127
    63  C   -0.053813
    64  C   -0.299682
    65  C   -0.300787
    66  H    0.034296
    67  H    0.079754
    68  H    0.071576
    69  H    0.127483
    70  H    0.102758
    71  H    0.120037
    72  H    0.110785
    73  H    0.114529
    74  H    0.104033
    75  H    0.106042
    76  H    0.133692
    77  H    0.138070
    78  H    0.116165
    79  H    0.122783
    80  H    0.116849
    81  H    0.100436
    82  H    0.092324
    83  H    0.099644
    84  H    0.143922
    85  H    0.122074
    86  H    0.093882
    87  H    0.085014
    88  H    0.107541
    89  H    0.107926
    90  H    0.126843
    91  H    0.112987
    92  H    0.142821
    93  H    0.165528
    94  H    0.124256
    95  H    0.162589
    96  H    0.099113
    97  H    0.143346
    98  H    0.119662
    99  H    0.088071
   100  H    0.109639
   101  H    0.097629
   102  H    0.116172
   103  H    0.119655
   104  H    0.149585
   105  H    0.107476
   106  H    0.096529
   107  H    0.097499
   108  H    0.107018
   109  H    0.077845
   110  H    0.084736
   111  H    0.090554
   112  H    0.093557
   113  H    0.091778
   114  H    0.103304
   115  H    0.092078
   116  H    0.086484
   117  H    0.059763
   118  H    0.077245
   119  H    0.078141
   120  H    0.101322
   121  H    0.073112
   122  H    0.102383
   123  H    0.095770
   124  H    0.094475
   125  H    0.063491
   126  H    0.066815
   127  H    0.049674
   128  H    0.105170
   129  H    0.101222
   130  H    0.080511
   131  H    0.069648
   132  H    0.108542
   133  H    0.091277
   134  H    0.096463
   135  H    0.112939
   136  H    0.084476
   137  H    0.093935
 Sum of Mulliken charges =   0.00000

 Dipole moment (field-independent basis, Debye):
    X=             -0.0991    Y=              5.1481    Z=             -1.2629  Tot=              5.3016
 Quadrupole moment (field-independent basis, Debye-Ang):
   XX=           -343.4607   YY=           -398.4644   ZZ=           -397.3434
   XY=            -14.5319   XZ=             24.4264   YZ=             -1.7497

 Normal termination of Gaussian 09 at Sat Jun 29 08:54:24 2019.
