 Gaussian 09, Revision D.01,
 Gaussian 09:  ES64L-G09RevD.01 24-Apr-2013

 -------------------------------------
 # td=(NStates=1) CAM-B3LYP/6-31G(d,p)
 -------------------------------------

 --
 TD
 --
 Symbolic Z-matrix:
 Charge =  0 Multiplicity = 1

                         Standard orientation:
 ---------------------------------------------------------------------
 Center     Atomic      Atomic             Coordinates (Angstroms)
 Number     Number       Type             X           Y           Z
 ---------------------------------------------------------------------
      1         12           0       -7.180706    0.594468    0.170576
      2          6           0       -4.867613   -2.058897    0.629921
      3          6           0       -4.907501    2.853048    1.348006
      4          6           0       -9.395445    3.088079   -0.322977
      5          6           0       -9.481356   -1.713109   -0.907003
      6          7           0       -5.195615    0.416668    0.765703
      7          6           0       -4.325290   -0.737906    0.903231
      8          6           0       -2.919186   -0.325271    1.399015
      9          6           0       -3.059822    1.131208    1.712404
     10          6           0       -4.446367    1.473298    1.310501
     11          6           0       -2.975349    1.274645    3.261409
     12          6           0       -1.973507   -0.505479    0.184250
     13          6           0       -0.422242   -0.531560    0.642810
     14          6           0        0.576500   -0.841754   -0.446737
     15          8           0        0.208203   -1.087841   -1.609407
     16          8           0        1.779997   -0.652202   -0.055467
     17          7           0       -7.127355    2.609298    0.460582
     18          6           0       -6.116317    3.379085    0.898189
     19          6           0       -6.400590    4.817990    0.883386
     20          6           0       -7.675121    4.924751    0.384516
     21          6           0       -8.152152    3.508498    0.093885
     22          6           0       -5.613438    5.934632    1.271551
     23          6           0       -8.541498    6.045535    0.157078
     24          6           0       -8.203147    7.361381   -0.171745
     25          7           0       -9.196171    0.633626   -0.472774
     26          6           0       -9.883107    1.738769   -0.599477
     27          6           0      -11.229732    1.519140   -1.057464
     28          6           0      -11.253289    0.133406   -1.361606
     29          6           0       -9.962177   -0.434914   -0.935396
     30          6           0      -12.252783    2.518955   -1.418203
     31          6           0      -12.322715   -0.755216   -1.846892
     32          6           0      -12.198999   -1.107583   -3.329924
     33          7           0       -7.255996   -1.406433   -0.031796
     34          6           0       -8.229697   -2.197491   -0.524561
     35          6           0       -7.808318   -3.667412   -0.489131
     36          6           0       -6.385295   -3.569247   -0.278971
     37          6           0       -6.228871   -2.167788    0.100759
     38          6           0       -8.654950   -4.808860   -0.939577
     39          6           0       -5.249216   -4.381294    0.058055
     40          8           0       -5.059017   -5.531627   -0.061658
     41          6           0       -4.156887   -3.339759    0.578083
     42          6           0       -3.521253   -3.697935    1.861317
     43          8           0       -3.737516   -3.121738    2.975509
     44          8           0       -2.643885   -4.808935    1.773829
     45          6           0       -2.148983   -5.285780    3.003764
     46          6           0        2.846790   -0.764902   -1.104476
     47          6           0        4.136752   -0.423315   -0.457504
     48          6           0        5.099782    0.276472   -0.959371
     49          6           0        5.014201    1.189637   -2.127180
     50          6           0        6.399266    0.473546   -0.188382
     51          6           0        7.663892   -0.173467   -0.973944
     52          6           0        8.899877   -0.220042   -0.177778
     53          6           0       10.195009   -0.594378   -0.927770
     54          6           0       10.201333   -2.166473   -1.280982
     55          6           0       11.466944   -0.338738   -0.151321
     56          6           0       12.802867   -0.374327   -0.922802
     57          6           0       13.955552   -0.105533   -0.022088
     58          6           0       15.421008   -0.195655   -0.649677
     59          6           0       15.725982   -1.695952   -0.862335
     60          6           0       16.305222    0.389079    0.341601
     61          6           0       17.736301    0.697966   -0.222839
     62          6           0       18.637385    1.444165    0.757630
     63          6           0       20.218420    1.414987    0.303970
     64          6           0       20.324455    2.240675   -1.015848
     65          6           0       21.074792    1.985105    1.337066
     66          1           0       -4.275582    3.522226    1.725014
     67          1           0      -10.202191    3.803461   -0.425529
     68          1           0      -10.264845   -2.481009   -1.055239
     69          1           0       -2.326879   -0.915921    2.051474
     70          1           0       -2.196517    1.757952    1.202538
     71          1           0       -1.812419    1.184641    3.587224
     72          1           0       -3.318773    2.396482    3.614060
     73          1           0       -3.460504    0.474536    3.773382
     74          1           0       -2.015734   -1.485827   -0.528320
     75          1           0       -1.890887    0.108369   -0.614059
     76          1           0        0.011106    0.487082    1.196650
     77          1           0       -0.381258   -1.320075    1.363213
     78          1           0       -5.005435    6.542162    0.532534
     79          1           0       -6.416547    6.636216    1.727243
     80          1           0       -4.981433    5.566226    1.976471
     81          1           0       -9.608541    5.908922    0.313414
     82          1           0       -8.947371    8.066122   -0.275312
     83          1           0       -7.139101    7.480253   -0.410400
     84          1           0      -11.922105    3.456226   -2.092951
     85          1           0      -13.168644    2.123310   -1.699790
     86          1           0      -12.451495    3.190417   -0.572628
     87          1           0      -12.419506   -1.724283   -1.274419
     88          1           0      -13.312507   -0.248688   -1.773443
     89          1           0      -12.844254   -1.640161   -3.840850
     90          1           0      -12.232791   -0.159490   -3.837036
     91          1           0      -11.246371   -1.578762   -3.534484
     92          1           0       -8.951832   -4.820161   -2.028753
     93          1           0       -8.181522   -5.882968   -0.835963
     94          1           0       -9.681405   -4.831257   -0.441568
     95          1           0       -3.523546   -3.331366   -0.206073
     96          1           0       -1.708862   -4.454899    3.362146
     97          1           0       -2.978029   -5.722024    3.495813
     98          1           0       -1.335650   -6.016954    2.514709
     99          1           0        2.751566   -1.832593   -1.394126
    100          1           0        2.500780   -0.085197   -1.878290
    101          1           0        4.350152   -1.026487    0.401220
    102          1           0        4.008668    1.285797   -2.548810
    103          1           0        5.416448    2.177302   -1.897178
    104          1           0        5.532986    0.705952   -2.999577
    105          1           0        6.922364    1.498464    0.022018
    106          1           0        6.414434    0.118718    0.925024
    107          1           0        7.405879   -1.061367   -1.474583
    108          1           0        7.842428    0.548758   -1.946654
    109          1           0        9.026836    0.819174   -0.002591
    110          1           0        8.766646   -0.817844    0.904699
    111          1           0       10.200122   -0.167013   -1.883135
    112          1           0        9.044421   -2.363266   -1.630437
    113          1           0       10.989004   -2.394215   -2.172284
    114          1           0       10.434932   -2.928235   -0.449875
    115          1           0       11.338682    0.652095    0.080448
    116          1           0       11.245392   -0.707057    0.717844
    117          1           0       12.842996   -1.385348   -1.391971
    118          1           0       12.881138    0.458571   -1.715030
    119          1           0       13.851368    0.821502    0.595941
    120          1           0       14.062200   -0.823445    0.936155
    121          1           0       15.411646    0.341920   -1.633807
    122          1           0       15.800188   -2.213402    0.236422
    123          1           0       14.814439   -2.289644   -1.294417
    124          1           0       16.516252   -1.977689   -1.724956
    125          1           0       15.900310    1.427794    0.865975
    126          1           0       16.554179   -0.187307    1.269123
    127          1           0       18.211289   -0.342459   -0.381625
    128          1           0       17.535528    1.231177   -1.066351
    129          1           0       18.441390    2.449408    1.007897
    130          1           0       18.433156    0.863098    1.603709
    131          1           0       20.466027    0.460168    0.131967
    132          1           0       19.610736    3.177459   -0.678349
    133          1           0       21.415806    2.585190   -1.268859
    134          1           0       19.983249    1.681038   -2.051799
    135          1           0       21.162468    1.246320    2.213337
    136          1           0       22.149938    2.010946    1.131503
    137          1           0       20.726860    2.859873    1.680349
 ---------------------------------------------------------------------

 SCF Done:  E(RCAM-B3LYP) =  -2932.66209551     A.U. after   17 cycles

 Excitation energies and oscillator strengths:

 Excited State   1:      Singlet-A      2.1030 eV  589.55 nm  f=0.1915  <S**2>=0.000
     240 -> 242       -0.15320
     240 -> 243        0.25100
     241 -> 242        0.62183
     241 -> 243        0.12545
 This state for optimization and/or second-order correction.
 Total Energy, E(TD-HF/TD-KS) =  -2932.58481042
 Copying the excited state density for this state as the 1-particle RhoCI density.

 The electronic state is 1-A.
 Alpha  occ. eigenvalues --  -46.84676 -19.26959 -19.24659 -19.20655 -19.20460
 Alpha  occ. eigenvalues --  -19.19522 -14.42373 -14.39890 -14.39677 -14.38819
 Alpha  occ. eigenvalues --  -10.39418 -10.38610 -10.34803 -10.33067 -10.32127
 Alpha  occ. eigenvalues --  -10.31708 -10.30298 -10.29986 -10.29877 -10.29517
 Alpha  occ. eigenvalues --  -10.29060 -10.28949 -10.28697 -10.28619 -10.28409
 Alpha  occ. eigenvalues --  -10.28267 -10.28067 -10.27881 -10.27868 -10.27823
 Alpha  occ. eigenvalues --  -10.27703 -10.27591 -10.27531 -10.27344 -10.27337
 Alpha  occ. eigenvalues --  -10.27236 -10.27207 -10.27055 -10.27024 -10.26954
 Alpha  occ. eigenvalues --  -10.26950 -10.26857 -10.26665 -10.26657 -10.26651
 Alpha  occ. eigenvalues --  -10.26601 -10.26566 -10.26444 -10.26362 -10.26326
 Alpha  occ. eigenvalues --  -10.26178 -10.26140 -10.26098 -10.26012 -10.25988
 Alpha  occ. eigenvalues --  -10.25937 -10.25808 -10.25202 -10.24944 -10.24653
 Alpha  occ. eigenvalues --  -10.24400 -10.24139 -10.23361 -10.22908 -10.22843
 Alpha  occ. eigenvalues --   -3.13695  -1.88400  -1.87929  -1.87887  -1.19499
 Alpha  occ. eigenvalues --   -1.15202  -1.13498  -1.07415  -1.06481  -1.05641
 Alpha  occ. eigenvalues --   -1.03512  -1.02812  -1.01454  -0.92691  -0.92548
 Alpha  occ. eigenvalues --   -0.91210  -0.90306  -0.90159  -0.89855  -0.88762
 Alpha  occ. eigenvalues --   -0.88453  -0.88027  -0.87092  -0.86666  -0.86361
 Alpha  occ. eigenvalues --   -0.85401  -0.84441  -0.83842  -0.83284  -0.82737
 Alpha  occ. eigenvalues --   -0.82032  -0.80827  -0.80017  -0.79654  -0.78107
 Alpha  occ. eigenvalues --   -0.77815  -0.77252  -0.76548  -0.75919  -0.74856
 Alpha  occ. eigenvalues --   -0.74682  -0.74215  -0.73551  -0.73466  -0.71750
 Alpha  occ. eigenvalues --   -0.71468  -0.70265  -0.69809  -0.69200  -0.68777
 Alpha  occ. eigenvalues --   -0.67837  -0.66540  -0.65189  -0.64603  -0.64396
 Alpha  occ. eigenvalues --   -0.63840  -0.63751  -0.63496  -0.63313  -0.62704
 Alpha  occ. eigenvalues --   -0.61946  -0.61026  -0.60327  -0.60154  -0.59416
 Alpha  occ. eigenvalues --   -0.58857  -0.58645  -0.58303  -0.57871  -0.57651
 Alpha  occ. eigenvalues --   -0.55990  -0.55752  -0.55233  -0.55044  -0.54887
 Alpha  occ. eigenvalues --   -0.54846  -0.54112  -0.53802  -0.53510  -0.53191
 Alpha  occ. eigenvalues --   -0.53096  -0.52526  -0.52301  -0.51848  -0.51756
 Alpha  occ. eigenvalues --   -0.51552  -0.51210  -0.50980  -0.50781  -0.50628
 Alpha  occ. eigenvalues --   -0.50327  -0.50029  -0.49976  -0.49652  -0.49526
 Alpha  occ. eigenvalues --   -0.49270  -0.49132  -0.48897  -0.48619  -0.48431
 Alpha  occ. eigenvalues --   -0.48316  -0.48097  -0.47519  -0.47327  -0.47140
 Alpha  occ. eigenvalues --   -0.46653  -0.46559  -0.46445  -0.45815  -0.45793
 Alpha  occ. eigenvalues --   -0.45744  -0.45476  -0.45315  -0.45176  -0.44869
 Alpha  occ. eigenvalues --   -0.44648  -0.44577  -0.44352  -0.44291  -0.44166
 Alpha  occ. eigenvalues --   -0.44008  -0.43902  -0.43687  -0.43395  -0.43160
 Alpha  occ. eigenvalues --   -0.43109  -0.42837  -0.42560  -0.42310  -0.42077
 Alpha  occ. eigenvalues --   -0.41950  -0.41845  -0.41731  -0.41470  -0.41395
 Alpha  occ. eigenvalues --   -0.40859  -0.40582  -0.40493  -0.40170  -0.40135
 Alpha  occ. eigenvalues --   -0.40045  -0.39646  -0.39624  -0.39391  -0.39264
 Alpha  occ. eigenvalues --   -0.39071  -0.38899  -0.38631  -0.38205  -0.38014
 Alpha  occ. eigenvalues --   -0.37654  -0.37194  -0.37021  -0.36956  -0.36589
 Alpha  occ. eigenvalues --   -0.36427  -0.36329  -0.36226  -0.36085  -0.35863
 Alpha  occ. eigenvalues --   -0.35023  -0.34700  -0.34251  -0.33644  -0.33065
 Alpha  occ. eigenvalues --   -0.33021  -0.32763  -0.31741  -0.31211  -0.30248
 Alpha  occ. eigenvalues --   -0.29575  -0.29460  -0.27946  -0.27336  -0.22760
 Alpha  occ. eigenvalues --   -0.20789
 Alpha virt. eigenvalues --   -0.05608  -0.03252   0.01476   0.03339   0.04557
 Alpha virt. eigenvalues --    0.04996   0.05732   0.06366   0.06790   0.07143
 Alpha virt. eigenvalues --    0.07943   0.10846   0.11224   0.11298   0.11529

 Mulliken charges:
               1
     1  Mg   0.825267
     2  C    0.029817
     3  C   -0.199688
     4  C   -0.186955
     5  C   -0.185821
     6  N   -0.629153
     7  C    0.280825
     8  C   -0.121458
     9  C   -0.136057
    10  C    0.346745
    11  C   -0.300547
    12  C   -0.202078
    13  C   -0.282293
    14  C    0.601888
    15  O   -0.517371
    16  O   -0.452682
    17  N   -0.713760
    18  C    0.349645
    19  C    0.042956
    20  C    0.043785
    21  C    0.294253
    22  C   -0.381306
    23  C   -0.118364
    24  C   -0.230881
    25  N   -0.692735
    26  C    0.323443
    27  C    0.030427
    28  C    0.035159
    29  C    0.277623
    30  C   -0.379690
    31  C   -0.267415
    32  C   -0.309525
    33  N   -0.685303
    34  C    0.244332
    35  C    0.059052
    36  C   -0.047971
    37  C    0.322195
    38  C   -0.392560
    39  C    0.363708
    40  O   -0.420359
    41  C   -0.310693
    42  C    0.621790
    43  O   -0.501432
    44  O   -0.486446
    45  C   -0.057936
    46  C    0.000934
    47  C   -0.135060
    48  C    0.155503
    49  C   -0.368581
    50  C   -0.240650
    51  C   -0.187401
    52  C   -0.159568
    53  C   -0.072933
    54  C   -0.303164
    55  C   -0.148961
    56  C   -0.177481
    57  C   -0.168047
    58  C   -0.045559
    59  C   -0.298516
    60  C   -0.172968
    61  C   -0.177088
    62  C   -0.182144
    63  C   -0.054110
    64  C   -0.280625
    65  C   -0.300221
    66  H    0.049696
    67  H    0.074752
    68  H    0.092288
    69  H    0.129989
    70  H    0.120191
    71  H    0.083673
    72  H    0.090509
    73  H    0.149374
    74  H    0.108701
    75  H    0.132673
    76  H    0.101673
    77  H    0.134227
    78  H    0.124550
    79  H    0.123606
    80  H    0.119626
    81  H    0.100075
    82  H    0.111394
    83  H    0.107918
    84  H    0.105115
    85  H    0.120298
    86  H    0.115994
    87  H    0.102392
    88  H    0.097360
    89  H    0.111109
    90  H    0.106625
    91  H    0.105357
    92  H    0.131591
    93  H    0.134123
    94  H    0.116160
    95  H    0.177777
    96  H    0.132725
    97  H    0.137861
    98  H    0.109330
    99  H    0.144413
   100  H    0.139394
   101  H    0.100398
   102  H    0.110797
   103  H    0.129259
   104  H    0.123501
   105  H    0.098485
   106  H    0.092747
   107  H    0.107636
   108  H    0.067989
   109  H    0.099930
   110  H    0.071365
   111  H    0.091342
   112  H    0.069725
   113  H    0.082228
   114  H    0.097079
   115  H    0.089042
   116  H    0.098142
   117  H    0.100227
   118  H    0.091280
   119  H    0.089734
   120  H    0.062947
   121  H    0.087133
   122  H    0.091076
   123  H    0.091279
   124  H    0.094178
   125  H    0.058522
   126  H    0.090715
   127  H    0.089632
   128  H    0.101688
   129  H    0.090814
   130  H    0.089762
   131  H    0.091816
   132  H    0.075748
   133  H    0.088800
   134  H    0.084765
   135  H    0.083823
   136  H    0.099125
   137  H    0.108942
 Sum of Mulliken charges =   0.00000

 Dipole moment (field-independent basis, Debye):
    X=              2.6995    Y=              5.2204    Z=              0.0051  Tot=              5.8770
 Quadrupole moment (field-independent basis, Debye-Ang):
   XX=           -349.4583   YY=           -390.7158   ZZ=           -401.2880
   XY=            -25.1817   XZ=             11.5906   YZ=             -1.0806

 Normal termination of Gaussian 09 at Wed Jun 26 23:05:51 2019.
