 Gaussian 09, Revision D.01,
 Gaussian 09:  ES64L-G09RevD.01 24-Apr-2013

 -------------------------------------
 # td=(NStates=1) CAM-B3LYP/6-31G(d,p)
 -------------------------------------

 --
 TD
 --
 Symbolic Z-matrix:
 Charge =  0 Multiplicity = 1

                         Standard orientation:
 ---------------------------------------------------------------------
 Center     Atomic      Atomic             Coordinates (Angstroms)
 Number     Number       Type             X           Y           Z
 ---------------------------------------------------------------------
      1         12           0       -7.228399    0.612370    0.089648
      2          6           0       -4.797621   -1.870202    0.598123
      3          6           0       -4.883559    2.901900    1.176054
      4          6           0       -9.486753    3.029858   -0.255575
      5          6           0       -9.561621   -1.813097   -0.790294
      6          7           0       -5.108555    0.490163    0.765127
      7          6           0       -4.282912   -0.682795    0.758351
      8          6           0       -2.941419   -0.290773    1.207048
      9          6           0       -3.079144    1.297152    1.638949
     10          6           0       -4.446191    1.576897    1.111129
     11          6           0       -2.966250    1.414282    3.192231
     12          6           0       -1.871504   -0.493179    0.072856
     13          6           0       -0.372641   -0.405607    0.498204
     14          6           0        0.565199   -0.767172   -0.609729
     15          8           0        0.249328   -1.156187   -1.726942
     16          8           0        1.804192   -0.444410   -0.168598
     17          7           0       -7.106408    2.650180    0.233115
     18          6           0       -6.089277    3.416974    0.755247
     19          6           0       -6.504987    4.809856    0.739080
     20          6           0       -7.860536    4.793516    0.429404
     21          6           0       -8.264260    3.471915    0.126334
     22          6           0       -5.669994    5.859320    1.261355
     23          6           0       -8.721791    5.964766    0.343763
     24          6           0       -8.254741    7.240849   -0.001292
     25          7           0       -9.136511    0.617846   -0.472348
     26          6           0       -9.946177    1.686519   -0.596822
     27          6           0      -11.265175    1.343113   -1.078537
     28          6           0      -11.267946   -0.060581   -1.203726
     29          6           0       -9.852385   -0.403815   -0.831835
     30          6           0      -12.367213    2.217235   -1.398077
     31          6           0      -12.304558   -0.923371   -1.749329
     32          6           0      -12.342984   -0.961605   -3.287883
     33          7           0       -7.212952   -1.407009   -0.003717
     34          6           0       -8.346760   -2.278209   -0.440156
     35          6           0       -7.782251   -3.617293   -0.395630
     36          6           0       -6.483908   -3.596935   -0.000867
     37          6           0       -6.197345   -2.190479    0.245372
     38          6           0       -8.593904   -4.819598   -0.748873
     39          6           0       -5.218709   -4.358914    0.171019
     40          8           0       -4.979073   -5.518640    0.090498
     41          6           0       -4.196977   -3.286866    0.521194
     42          6           0       -3.544774   -3.665122    1.891549
     43          8           0       -3.579978   -2.938864    2.867936
     44          8           0       -2.763744   -4.851453    1.678430
     45          6           0       -2.116304   -5.155436    2.895390
     46          6           0        2.896540   -0.676118   -1.257808
     47          6           0        4.147660   -0.399791   -0.592456
     48          6           0        5.166504    0.291822   -0.998485
     49          6           0        5.131701    1.255058   -2.149789
     50          6           0        6.418901    0.410183   -0.192962
     51          6           0        7.697588   -0.132677   -0.942492
     52          6           0        8.932793   -0.156432   -0.082093
     53          6           0       10.223624   -0.634648   -0.887456
     54          6           0       10.112872   -2.098322   -1.325144
     55          6           0       11.408643   -0.366166    0.058513
     56          6           0       12.770220   -0.647113   -0.612681
     57          6           0       13.971525   -0.175186    0.222385
     58          6           0       15.314689   -0.162104   -0.634587
     59          6           0       15.653638   -1.573835   -0.888816
     60          6           0       16.379221    0.416403    0.347868
     61          6           0       17.819628    0.487862   -0.231099
     62          6           0       18.800009    1.279632    0.712164
     63          6           0       20.228610    1.459773    0.243508
     64          6           0       20.322658    2.214054   -1.068121
     65          6           0       21.096101    2.001604    1.326973
     66          1           0       -4.181329    3.757833    1.511747
     67          1           0      -10.222160    3.916173   -0.462408
     68          1           0      -10.283628   -2.423548   -1.176062
     69          1           0       -2.604563   -0.849146    1.906196
     70          1           0       -2.397489    1.919947    1.044758
     71          1           0       -2.112947    1.101741    3.588663
     72          1           0       -3.289586    2.302629    3.721466
     73          1           0       -3.665984    0.568818    3.541482
     74          1           0       -1.780006   -1.514710   -0.239742
     75          1           0       -1.947322    0.035025   -0.737629
     76          1           0       -0.158765    0.664713    0.778750
     77          1           0       -0.131592   -1.036069    1.406163
     78          1           0       -4.911667    6.201270    0.457452
     79          1           0       -6.290218    6.739796    1.320708
     80          1           0       -5.211239    5.500760    2.030730
     81          1           0       -9.693873    5.964979    0.403060
     82          1           0       -8.949336    8.063849   -0.212144
     83          1           0       -7.163539    7.601900    0.176862
     84          1           0      -12.246697    2.726880   -2.420006
     85          1           0      -13.247512    1.546545   -1.580709
     86          1           0      -12.410800    3.009557   -0.641298
     87          1           0      -12.190314   -2.002621   -1.378474
     88          1           0      -13.353127   -0.612632   -1.381475
     89          1           0      -13.210380   -1.764251   -3.732347
     90          1           0      -12.520551   -0.005746   -3.745878
     91          1           0      -11.350856   -1.376532   -3.640923
     92          1           0       -8.732653   -4.705017   -1.984821
     93          1           0       -8.135494   -5.837792   -0.272042
     94          1           0       -9.614291   -4.827032   -0.433698
     95          1           0       -3.527868   -3.204632   -0.224787
     96          1           0       -1.329565   -4.301427    3.288074
     97          1           0       -2.885871   -5.513017    3.650698
     98          1           0       -1.423389   -6.004715    2.478093
     99          1           0        2.692783   -1.578047   -1.612330
    100          1           0        2.901737    0.075987   -1.988440
    101          1           0        4.463069   -1.024517    0.297110
    102          1           0        4.215938    1.484780   -2.586731
    103          1           0        5.640369    2.187943   -1.886198
    104          1           0        5.777935    0.846832   -2.901415
    105          1           0        6.435410    1.513654   -0.149048
    106          1           0        6.248583   -0.088164    0.844693
    107          1           0        7.557051   -1.168072   -1.232161
    108          1           0        7.810080    0.598922   -1.718814
    109          1           0        9.253105    0.842461    0.271491
    110          1           0        8.750809   -0.756224    0.736894
    111          1           0       10.592194    0.197201   -1.594024
    112          1           0        9.253664   -2.392897   -1.946683
    113          1           0       11.108063   -2.371005   -1.949007
    114          1           0       10.187157   -2.704379   -0.369434
    115          1           0       11.549488    0.550984    0.581953
    116          1           0       11.343635   -1.129119    1.033336
    117          1           0       12.963174   -1.640441   -1.244021
    118          1           0       12.811515   -0.214943   -1.589559
    119          1           0       13.960802    0.914102    0.751602
    120          1           0       13.848435   -0.751026    1.092210
    121          1           0       15.160791    0.320183   -1.598261
    122          1           0       15.727025   -2.234359    0.037252
    123          1           0       14.828686   -2.111113   -1.131679
    124          1           0       16.596967   -1.863041   -1.519815
    125          1           0       16.237132    1.511390    0.633031
    126          1           0       16.374192   -0.066526    1.333040
    127          1           0       18.249919   -0.479472   -0.378575
    128          1           0       17.722771    1.053682   -1.172613
    129          1           0       18.390864    2.335950    1.088468
    130          1           0       18.520142    0.712375    1.614221
    131          1           0       20.567514    0.443768   -0.068388
    132          1           0       19.792891    3.217849   -0.902182
    133          1           0       21.371395    2.451408   -1.268896
    134          1           0       19.797831    1.468610   -1.751652
    135          1           0       21.187504    1.524651    2.415837
    136          1           0       22.140367    1.938594    0.873341
    137          1           0       20.935055    3.145614    1.504685
 ---------------------------------------------------------------------

 SCF Done:  E(RCAM-B3LYP) =  -2932.69111897     A.U. after   16 cycles

 Excitation energies and oscillator strengths:

 Excited State   1:      Singlet-A      2.1310 eV  581.80 nm  f=0.2378  <S**2>=0.000
     240 -> 243        0.22197
     241 -> 242        0.65800
 This state for optimization and/or second-order correction.
 Total Energy, E(TD-HF/TD-KS) =  -2932.61280461
 Copying the excited state density for this state as the 1-particle RhoCI density.

 The electronic state is 1-A.
 Alpha  occ. eigenvalues --  -46.83769 -19.26560 -19.25672 -19.23278 -19.20805
 Alpha  occ. eigenvalues --  -19.20704 -14.40539 -14.39787 -14.39522 -14.38000
 Alpha  occ. eigenvalues --  -10.40521 -10.38705 -10.35233 -10.32692 -10.30718
 Alpha  occ. eigenvalues --  -10.30358 -10.29707 -10.29575 -10.29044 -10.28926
 Alpha  occ. eigenvalues --  -10.28855 -10.28572 -10.28441 -10.28351 -10.28093
 Alpha  occ. eigenvalues --  -10.27782 -10.27599 -10.27542 -10.27495 -10.27418
 Alpha  occ. eigenvalues --  -10.27384 -10.27363 -10.27212 -10.26993 -10.26962
 Alpha  occ. eigenvalues --  -10.26955 -10.26821 -10.26810 -10.26726 -10.26608
 Alpha  occ. eigenvalues --  -10.26518 -10.26442 -10.26095 -10.26053 -10.26043
 Alpha  occ. eigenvalues --  -10.25967 -10.25926 -10.25774 -10.25736 -10.25674
 Alpha  occ. eigenvalues --  -10.25659 -10.25393 -10.25382 -10.25378 -10.25349
 Alpha  occ. eigenvalues --  -10.25295 -10.25142 -10.25009 -10.24996 -10.24910
 Alpha  occ. eigenvalues --  -10.24877 -10.24682 -10.24645 -10.24574 -10.23996
 Alpha  occ. eigenvalues --   -3.12846  -1.87559  -1.87100  -1.87008  -1.17062
 Alpha  occ. eigenvalues --   -1.16090  -1.12981  -1.10437  -1.07935  -1.05004
 Alpha  occ. eigenvalues --   -1.03355  -1.02395  -1.01442  -0.92712  -0.92421
 Alpha  occ. eigenvalues --   -0.90828  -0.89892  -0.89351  -0.89203  -0.88928
 Alpha  occ. eigenvalues --   -0.88817  -0.88666  -0.87722  -0.87458  -0.86258
 Alpha  occ. eigenvalues --   -0.85374  -0.84542  -0.83726  -0.83361  -0.82649
 Alpha  occ. eigenvalues --   -0.82153  -0.80654  -0.80275  -0.79746  -0.78362
 Alpha  occ. eigenvalues --   -0.77828  -0.77177  -0.76612  -0.75333  -0.75117
 Alpha  occ. eigenvalues --   -0.75017  -0.74666  -0.74528  -0.73546  -0.72397
 Alpha  occ. eigenvalues --   -0.71987  -0.70695  -0.69432  -0.69278  -0.67926
 Alpha  occ. eigenvalues --   -0.66745  -0.66628  -0.66129  -0.65622  -0.65006
 Alpha  occ. eigenvalues --   -0.64313  -0.63621  -0.63143  -0.62400  -0.62116
 Alpha  occ. eigenvalues --   -0.61796  -0.60662  -0.60246  -0.59435  -0.58842
 Alpha  occ. eigenvalues --   -0.58565  -0.58287  -0.58261  -0.57710  -0.57279
 Alpha  occ. eigenvalues --   -0.56157  -0.55734  -0.55469  -0.55309  -0.54788
 Alpha  occ. eigenvalues --   -0.54231  -0.54065  -0.53955  -0.53533  -0.53205
 Alpha  occ. eigenvalues --   -0.52933  -0.52681  -0.52351  -0.52301  -0.52204
 Alpha  occ. eigenvalues --   -0.51799  -0.51247  -0.51124  -0.51000  -0.50736
 Alpha  occ. eigenvalues --   -0.50584  -0.50359  -0.50150  -0.49922  -0.49647
 Alpha  occ. eigenvalues --   -0.49429  -0.49273  -0.49197  -0.48953  -0.48606
 Alpha  occ. eigenvalues --   -0.48523  -0.48095  -0.47768  -0.47530  -0.47359
 Alpha  occ. eigenvalues --   -0.46898  -0.46523  -0.46357  -0.46161  -0.46001
 Alpha  occ. eigenvalues --   -0.45823  -0.45270  -0.45257  -0.45162  -0.44948
 Alpha  occ. eigenvalues --   -0.44864  -0.44690  -0.44596  -0.44499  -0.44171
 Alpha  occ. eigenvalues --   -0.43875  -0.43628  -0.43596  -0.43477  -0.43295
 Alpha  occ. eigenvalues --   -0.43130  -0.42759  -0.42514  -0.42500  -0.42077
 Alpha  occ. eigenvalues --   -0.41950  -0.41842  -0.41658  -0.41644  -0.41418
 Alpha  occ. eigenvalues --   -0.41154  -0.40957  -0.40731  -0.40648  -0.40356
 Alpha  occ. eigenvalues --   -0.40291  -0.40032  -0.40013  -0.39754  -0.39446
 Alpha  occ. eigenvalues --   -0.39348  -0.38840  -0.38785  -0.38635  -0.37981
 Alpha  occ. eigenvalues --   -0.37343  -0.37066  -0.36798  -0.36689  -0.36443
 Alpha  occ. eigenvalues --   -0.36199  -0.36060  -0.35996  -0.35861  -0.35418
 Alpha  occ. eigenvalues --   -0.35151  -0.34862  -0.34635  -0.33816  -0.33446
 Alpha  occ. eigenvalues --   -0.32947  -0.32569  -0.32128  -0.30941  -0.30537
 Alpha  occ. eigenvalues --   -0.30416  -0.29680  -0.27956  -0.26229  -0.23630
 Alpha  occ. eigenvalues --   -0.20747
 Alpha virt. eigenvalues --   -0.05675  -0.02777   0.01886   0.03878   0.04928
 Alpha virt. eigenvalues --    0.06028   0.06518   0.06865   0.06982   0.07574
 Alpha virt. eigenvalues --    0.08572   0.10804   0.11294   0.11339   0.11902

 Mulliken charges:
               1
     1  Mg   0.822312
     2  C    0.082323
     3  C   -0.221759
     4  C   -0.212476
     5  C   -0.129191
     6  N   -0.645631
     7  C    0.297089
     8  C   -0.146735
     9  C   -0.146277
    10  C    0.375364
    11  C   -0.314144
    12  C   -0.186594
    13  C   -0.291085
    14  C    0.627323
    15  O   -0.491517
    16  O   -0.501932
    17  N   -0.744895
    18  C    0.343012
    19  C    0.019872
    20  C    0.017207
    21  C    0.342353
    22  C   -0.360267
    23  C   -0.077440
    24  C   -0.247996
    25  N   -0.688173
    26  C    0.280317
    27  C    0.036496
    28  C    0.039300
    29  C    0.270765
    30  C   -0.375693
    31  C   -0.271474
    32  C   -0.281999
    33  N   -0.721156
    34  C    0.263045
    35  C   -0.005360
    36  C    0.024550
    37  C    0.287896
    38  C   -0.367744
    39  C    0.382276
    40  O   -0.429423
    41  C   -0.325330
    42  C    0.619812
    43  O   -0.439744
    44  O   -0.446341
    45  C   -0.076897
    46  C    0.028608
    47  C   -0.142308
    48  C    0.142403
    49  C   -0.383009
    50  C   -0.240315
    51  C   -0.167546
    52  C   -0.171020
    53  C   -0.062745
    54  C   -0.305060
    55  C   -0.169516
    56  C   -0.199953
    57  C   -0.183504
    58  C   -0.053142
    59  C   -0.301014
    60  C   -0.179921
    61  C   -0.197372
    62  C   -0.159840
    63  C   -0.057926
    64  C   -0.291325
    65  C   -0.298265
    66  H    0.071390
    67  H    0.084657
    68  H    0.087193
    69  H    0.104235
    70  H    0.106694
    71  H    0.124610
    72  H    0.115275
    73  H    0.114713
    74  H    0.118024
    75  H    0.119491
    76  H    0.129991
    77  H    0.127847
    78  H    0.108993
    79  H    0.110958
    80  H    0.129769
    81  H    0.088289
    82  H    0.103697
    83  H    0.094635
    84  H    0.113204
    85  H    0.107548
    86  H    0.118041
    87  H    0.098149
    88  H    0.103071
    89  H    0.069222
    90  H    0.119507
    91  H    0.106568
    92  H    0.105248
    93  H    0.129936
    94  H    0.130140
    95  H    0.179495
    96  H    0.101923
    97  H    0.130180
    98  H    0.114056
    99  H    0.147925
   100  H    0.116991
   101  H    0.069540
   102  H    0.124646
   103  H    0.112138
   104  H    0.130537
   105  H    0.103163
   106  H    0.088536
   107  H    0.103149
   108  H    0.099906
   109  H    0.085920
   110  H    0.100446
   111  H    0.087712
   112  H    0.114403
   113  H    0.085484
   114  H    0.110183
   115  H    0.113097
   116  H    0.044245
   117  H    0.083162
   118  H    0.089648
   119  H    0.066054
   120  H    0.110579
   121  H    0.098696
   122  H    0.085824
   123  H    0.103939
   124  H    0.090534
   125  H    0.081837
   126  H    0.095390
   127  H    0.100914
   128  H    0.091640
   129  H    0.058102
   130  H    0.090298
   131  H    0.083679
   132  H    0.092325
   133  H    0.104691
   134  H    0.107105
   135  H    0.094304
   136  H    0.088128
   137  H    0.087107
 Sum of Mulliken charges =   0.00000

 Dipole moment (field-independent basis, Debye):
    X=              2.5066    Y=              3.3688    Z=              0.0081  Tot=              4.1991
 Quadrupole moment (field-independent basis, Debye-Ang):
   XX=           -348.7017   YY=           -394.0980   ZZ=           -397.3990
   XY=            -15.2126   XZ=              2.9741   YZ=             -3.0666

 Normal termination of Gaussian 09 at Mon Jul  1 08:23:07 2019.
