 Gaussian 09, Revision D.01,
 Gaussian 09:  ES64L-G09RevD.01 24-Apr-2013

 -------------------------------------
 # td=(NStates=1) CAM-B3LYP/6-31G(d,p)
 -------------------------------------

 --
 TD
 --
 Symbolic Z-matrix:
 Charge =  0 Multiplicity = 1

                         Standard orientation:
 ---------------------------------------------------------------------
 Center     Atomic      Atomic             Coordinates (Angstroms)
 Number     Number       Type             X           Y           Z
 ---------------------------------------------------------------------
      1         12           0       -7.235415    0.502872   -0.021742
      2          6           0       -4.816896   -1.982769    0.416719
      3          6           0       -4.888919    2.811231    1.110684
      4          6           0       -9.438029    3.109536   -0.314795
      5          6           0       -9.686644   -1.614860   -0.766204
      6          7           0       -5.072558    0.402245    0.676783
      7          6           0       -4.312175   -0.734571    0.768662
      8          6           0       -2.862578   -0.421770    1.313281
      9          6           0       -3.093474    1.075208    1.702344
     10          6           0       -4.446540    1.447894    1.138510
     11          6           0       -2.990501    1.420825    3.187812
     12          6           0       -1.894147   -0.453217    0.148047
     13          6           0       -0.432359   -0.317745    0.549005
     14          6           0        0.481295   -0.527722   -0.669647
     15          8           0        0.197136   -0.900053   -1.706879
     16          8           0        1.799947   -0.489432   -0.167706
     17          7           0       -7.147581    2.558987    0.285902
     18          6           0       -6.116770    3.355471    0.776918
     19          6           0       -6.497232    4.729574    0.920808
     20          6           0       -7.744155    4.810378    0.512079
     21          6           0       -8.197495    3.506724    0.075040
     22          6           0       -5.577207    5.810106    1.357274
     23          6           0       -8.600609    6.011259    0.442292
     24          6           0       -8.230929    7.272420    0.177187
     25          7           0       -9.198489    0.747685   -0.498892
     26          6           0       -9.856192    1.871302   -0.725130
     27          6           0      -11.232254    1.481591   -1.150755
     28          6           0      -11.278455    0.134715   -1.344521
     29          6           0       -9.986515   -0.370117   -0.926923
     30          6           0      -12.345196    2.437339   -1.520122
     31          6           0      -12.340503   -0.779207   -1.767482
     32          6           0      -12.252424   -0.982494   -3.301891
     33          7           0       -7.308085   -1.369807   -0.118264
     34          6           0       -8.352562   -2.235444   -0.562494
     35          6           0       -7.976649   -3.646971   -0.335367
     36          6           0       -6.524205   -3.501896   -0.091960
     37          6           0       -6.236086   -2.172338    0.113223
     38          6           0       -8.698770   -4.857392   -0.770874
     39          6           0       -5.425550   -4.369122    0.223793
     40          8           0       -5.303071   -5.550837    0.109597
     41          6           0       -4.155238   -3.251731    0.488146
     42          6           0       -3.615743   -3.682706    1.948213
     43          8           0       -3.889637   -3.169648    2.985641
     44          8           0       -2.775297   -4.671631    1.675801
     45          6           0       -2.289552   -5.286893    3.011428
     46          6           0        2.799686   -0.607367   -1.117477
     47          6           0        4.148521   -0.543018   -0.480577
     48          6           0        5.219551    0.232647   -0.920605
     49          6           0        5.147896    1.144482   -2.049198
     50          6           0        6.462915    0.233527   -0.107943
     51          6           0        7.702320   -0.248308   -0.839939
     52          6           0        8.989543   -0.210754   -0.074074
     53          6           0       10.199411   -0.581057   -0.965582
     54          6           0       10.188058   -2.037072   -1.380911
     55          6           0       11.494252   -0.297184   -0.152238
     56          6           0       12.870661   -0.468466   -0.793625
     57          6           0       14.091447   -0.123863    0.045967
     58          6           0       15.444537   -0.184802   -0.586951
     59          6           0       15.710252   -1.637276   -0.989640
     60          6           0       16.529811    0.313610    0.368798
     61          6           0       17.924660    0.469421   -0.242199
     62          6           0       18.866213    1.218651    0.765047
     63          6           0       20.405907    1.371953    0.281274
     64          6           0       20.569393    2.223763   -1.007588
     65          6           0       21.222550    2.076094    1.378394
     66          1           0       -4.061204    3.404483    1.554925
     67          1           0      -10.112378    3.909870   -0.502209
     68          1           0      -10.260197   -2.396128   -1.311114
     69          1           0       -2.671466   -1.001777    2.024390
     70          1           0       -2.309034    1.891773    1.148026
     71          1           0       -1.877504    1.154753    3.589331
     72          1           0       -3.469007    2.414851    3.625554
     73          1           0       -3.572309    0.521492    3.716572
     74          1           0       -2.045349   -1.571493   -0.181291
     75          1           0       -2.326505    0.114613   -0.540029
     76          1           0       -0.282093    0.804946    0.930389
     77          1           0       -0.215845   -0.863326    1.531484
     78          1           0       -4.774076    5.955547    0.617524
     79          1           0       -6.096827    6.871466    1.272631
     80          1           0       -5.034061    5.745673    2.510207
     81          1           0       -9.711504    5.805728    0.733178
     82          1           0       -8.967762    8.001563    0.225363
     83          1           0       -7.274313    7.609043   -0.149417
     84          1           0      -11.961687    2.938238   -2.509538
     85          1           0      -13.261420    1.814397   -1.819973
     86          1           0      -12.385750    3.019753   -0.783453
     87          1           0      -12.265645   -1.730651   -1.234935
     88          1           0      -13.295237   -0.229576   -1.281507
     89          1           0      -12.971046   -1.736029   -3.549247
     90          1           0      -12.580640   -0.123835   -3.957842
     91          1           0      -11.193071   -1.449859   -3.605657
     92          1           0       -8.943394   -5.027316   -1.851913
     93          1           0       -7.996592   -5.614917   -0.679581
     94          1           0       -9.583798   -5.171131   -0.094457
     95          1           0       -3.510093   -3.533747   -0.255285
     96          1           0       -1.799413   -4.434994    3.714376
     97          1           0       -3.095345   -5.719344    3.649971
     98          1           0       -1.507914   -6.137478    2.618118
     99          1           0        2.553606   -1.656471   -1.623074
    100          1           0        2.853649    0.094673   -1.882612
    101          1           0        4.316525   -1.158073    0.256038
    102          1           0        4.089682    1.013159   -2.505545
    103          1           0        5.298219    2.366914   -1.983536
    104          1           0        5.724087    0.767127   -2.825373
    105          1           0        6.595295    1.282593    0.211894
    106          1           0        6.152359   -0.323489    0.969639
    107          1           0        7.411528   -1.150846   -1.327201
    108          1           0        7.826601    0.377453   -1.650276
    109          1           0        9.258609    0.749071    0.372184
    110          1           0        8.975661   -1.080112    0.674220
    111          1           0       10.201885    0.128067   -1.794636
    112          1           0        9.252079   -2.310622   -2.001777
    113          1           0       11.122837   -2.395776   -2.208664
    114          1           0       10.241350   -2.631842   -0.517838
    115          1           0       11.458720    0.710544    0.524383
    116          1           0       11.541371   -0.988653    0.808100
    117          1           0       12.904934   -1.503813   -1.189286
    118          1           0       12.869843    0.245390   -1.726900
    119          1           0       13.915031    0.929429    0.664653
    120          1           0       14.192112   -0.783617    1.063519
    121          1           0       15.263343    0.433643   -1.476400
    122          1           0       15.739917   -2.246458   -0.066183
    123          1           0       14.869387   -1.992697   -1.630124
    124          1           0       16.835943   -1.782324   -1.406978
    125          1           0       16.124695    1.435712    0.729397
    126          1           0       16.323991   -0.269507    1.279100
    127          1           0       18.556321   -0.553456   -0.464985
    128          1           0       17.944014    1.042383   -1.308878
    129          1           0       18.399243    2.197447    1.147068
    130          1           0       18.897988    0.460180    1.628095
    131          1           0       20.643547    0.382003   -0.031997
    132          1           0       20.404926    3.366779   -0.809644
    133          1           0       21.719000    1.950996   -1.446184
    134          1           0       19.810361    2.166649   -1.543930
    135          1           0       20.950662    1.574264    2.329067
    136          1           0       22.380521    1.932574    1.181503
    137          1           0       21.014039    3.179164    1.513750
 ---------------------------------------------------------------------

 SCF Done:  E(RCAM-B3LYP) =  -2932.60873529     A.U. after   17 cycles

 Excitation energies and oscillator strengths:

 Excited State   1:      Singlet-A      2.2896 eV  541.50 nm  f=0.2050  <S**2>=0.000
     240 -> 242       -0.33785
     240 -> 243       -0.17781
     241 -> 242        0.55778
     241 -> 243       -0.18271
 This state for optimization and/or second-order correction.
 Total Energy, E(TD-HF/TD-KS) =  -2932.52459287
 Copying the excited state density for this state as the 1-particle RhoCI density.

 The electronic state is 1-A.
 Alpha  occ. eigenvalues --  -46.83556 -19.27002 -19.24554 -19.22914 -19.21007
 Alpha  occ. eigenvalues --  -19.19787 -14.41668 -14.39388 -14.39187 -14.38738
 Alpha  occ. eigenvalues --  -10.39434 -10.38814 -10.34135 -10.33866 -10.31230
 Alpha  occ. eigenvalues --  -10.30527 -10.30406 -10.30333 -10.30009 -10.29783
 Alpha  occ. eigenvalues --  -10.29118 -10.28983 -10.28935 -10.28794 -10.28751
 Alpha  occ. eigenvalues --  -10.28665 -10.28162 -10.27845 -10.27748 -10.27645
 Alpha  occ. eigenvalues --  -10.27596 -10.27529 -10.27437 -10.27302 -10.26991
 Alpha  occ. eigenvalues --  -10.26909 -10.26907 -10.26874 -10.26794 -10.26725
 Alpha  occ. eigenvalues --  -10.26720 -10.26661 -10.26543 -10.26543 -10.26410
 Alpha  occ. eigenvalues --  -10.26389 -10.26356 -10.26252 -10.26237 -10.26192
 Alpha  occ. eigenvalues --  -10.26187 -10.26148 -10.25883 -10.25830 -10.25729
 Alpha  occ. eigenvalues --  -10.25699 -10.25570 -10.25570 -10.25466 -10.25431
 Alpha  occ. eigenvalues --  -10.24839 -10.24652 -10.24635 -10.24576 -10.23692
 Alpha  occ. eigenvalues --   -3.12820  -1.87495  -1.87050  -1.87035  -1.20127
 Alpha  occ. eigenvalues --   -1.17918  -1.11787  -1.11290  -1.09718  -1.04952
 Alpha  occ. eigenvalues --   -1.03596  -1.02588  -1.01251  -0.91827  -0.91664
 Alpha  occ. eigenvalues --   -0.90719  -0.90596  -0.90266  -0.89896  -0.89570
 Alpha  occ. eigenvalues --   -0.88346  -0.87673  -0.87335  -0.85969  -0.85478
 Alpha  occ. eigenvalues --   -0.84842  -0.84168  -0.83412  -0.83112  -0.82682
 Alpha  occ. eigenvalues --   -0.81414  -0.80625  -0.79883  -0.79683  -0.78009
 Alpha  occ. eigenvalues --   -0.77717  -0.77340  -0.76175  -0.75339  -0.75052
 Alpha  occ. eigenvalues --   -0.74582  -0.74073  -0.73765  -0.72669  -0.72080
 Alpha  occ. eigenvalues --   -0.70830  -0.70221  -0.70039  -0.68662  -0.68128
 Alpha  occ. eigenvalues --   -0.66550  -0.66308  -0.66113  -0.64825  -0.64271
 Alpha  occ. eigenvalues --   -0.63707  -0.63464  -0.62892  -0.62435  -0.61821
 Alpha  occ. eigenvalues --   -0.61537  -0.60851  -0.60317  -0.59660  -0.58677
 Alpha  occ. eigenvalues --   -0.58632  -0.57885  -0.57391  -0.56701  -0.56499
 Alpha  occ. eigenvalues --   -0.56207  -0.55981  -0.55126  -0.54952  -0.54486
 Alpha  occ. eigenvalues --   -0.53926  -0.53708  -0.53365  -0.53261  -0.52531
 Alpha  occ. eigenvalues --   -0.52376  -0.52290  -0.52034  -0.51688  -0.51638
 Alpha  occ. eigenvalues --   -0.51426  -0.51039  -0.50749  -0.50561  -0.50178
 Alpha  occ. eigenvalues --   -0.50099  -0.50051  -0.49861  -0.49635  -0.49434
 Alpha  occ. eigenvalues --   -0.48913  -0.48764  -0.48714  -0.48567  -0.47934
 Alpha  occ. eigenvalues --   -0.47797  -0.47382  -0.47248  -0.47131  -0.46834
 Alpha  occ. eigenvalues --   -0.46691  -0.46606  -0.46304  -0.46254  -0.45889
 Alpha  occ. eigenvalues --   -0.45626  -0.45500  -0.45266  -0.45148  -0.45104
 Alpha  occ. eigenvalues --   -0.44661  -0.44498  -0.44207  -0.44186  -0.44104
 Alpha  occ. eigenvalues --   -0.43818  -0.43769  -0.43573  -0.43521  -0.43393
 Alpha  occ. eigenvalues --   -0.43067  -0.42951  -0.42850  -0.42717  -0.42519
 Alpha  occ. eigenvalues --   -0.42424  -0.42260  -0.41891  -0.41430  -0.41286
 Alpha  occ. eigenvalues --   -0.40991  -0.40944  -0.40698  -0.40450  -0.40426
 Alpha  occ. eigenvalues --   -0.40167  -0.39831  -0.39706  -0.39106  -0.38664
 Alpha  occ. eigenvalues --   -0.38539  -0.38439  -0.38206  -0.37703  -0.37464
 Alpha  occ. eigenvalues --   -0.37319  -0.37108  -0.36988  -0.36804  -0.36587
 Alpha  occ. eigenvalues --   -0.36435  -0.36400  -0.35919  -0.35653  -0.35483
 Alpha  occ. eigenvalues --   -0.35219  -0.34986  -0.34744  -0.34591  -0.34243
 Alpha  occ. eigenvalues --   -0.33918  -0.33202  -0.32059  -0.30716  -0.29109
 Alpha  occ. eigenvalues --   -0.28650  -0.28565  -0.28120  -0.27786  -0.23104
 Alpha  occ. eigenvalues --   -0.21743
 Alpha virt. eigenvalues --   -0.06385  -0.02079   0.01929   0.04185   0.05062
 Alpha virt. eigenvalues --    0.05805   0.06079   0.06651   0.07466   0.08121
 Alpha virt. eigenvalues --    0.08341   0.10168   0.10827   0.11489   0.11543

 Mulliken charges:
               1
     1  Mg   0.842480
     2  C    0.077992
     3  C   -0.221617
     4  C   -0.198984
     5  C   -0.198721
     6  N   -0.603895
     7  C    0.233670
     8  C   -0.097514
     9  C   -0.154326
    10  C    0.377326
    11  C   -0.306814
    12  C   -0.138408
    13  C   -0.280652
    14  C    0.617118
    15  O   -0.389258
    16  O   -0.498438
    17  N   -0.702636
    18  C    0.328211
    19  C    0.091910
    20  C    0.016145
    21  C    0.310976
    22  C   -0.380409
    23  C   -0.091923
    24  C   -0.232253
    25  N   -0.686277
    26  C    0.336760
    27  C   -0.061537
    28  C    0.082612
    29  C    0.333156
    30  C   -0.332671
    31  C   -0.253438
    32  C   -0.309749
    33  N   -0.759113
    34  C    0.180442
    35  C    0.029913
    36  C   -0.043824
    37  C    0.353119
    38  C   -0.395633
    39  C    0.338567
    40  O   -0.445699
    41  C   -0.356515
    42  C    0.622054
    43  O   -0.471056
    44  O   -0.439372
    45  C   -0.105464
    46  C    0.044839
    47  C   -0.112928
    48  C    0.116817
    49  C   -0.367870
    50  C   -0.218730
    51  C   -0.179024
    52  C   -0.162544
    53  C   -0.061108
    54  C   -0.289896
    55  C   -0.175480
    56  C   -0.166078
    57  C   -0.156529
    58  C   -0.052428
    59  C   -0.297600
    60  C   -0.150866
    61  C   -0.168506
    62  C   -0.184178
    63  C   -0.054406
    64  C   -0.270917
    65  C   -0.292925
    66  H    0.077160
    67  H    0.077307
    68  H    0.098835
    69  H    0.098624
    70  H    0.074785
    71  H    0.093693
    72  H    0.114902
    73  H    0.109702
    74  H    0.099619
    75  H    0.119790
    76  H    0.113814
    77  H    0.143830
    78  H    0.134483
    79  H    0.105688
    80  H    0.098494
    81  H    0.099168
    82  H    0.107401
    83  H    0.112726
    84  H    0.112060
    85  H    0.106147
    86  H    0.127364
    87  H    0.122425
    88  H    0.091103
    89  H    0.113696
    90  H    0.113153
    91  H    0.107602
    92  H    0.119514
    93  H    0.153002
    94  H    0.108080
    95  H    0.157283
    96  H    0.128154
    97  H    0.153414
    98  H    0.123414
    99  H    0.090173
   100  H    0.096328
   101  H    0.078029
   102  H    0.096419
   103  H    0.102163
   104  H    0.135925
   105  H    0.100312
   106  H    0.067674
   107  H    0.106619
   108  H    0.103557
   109  H    0.101414
   110  H    0.085733
   111  H    0.088732
   112  H    0.096844
   113  H    0.064866
   114  H    0.119676
   115  H    0.064243
   116  H    0.069520
   117  H    0.103833
   118  H    0.075778
   119  H    0.061314
   120  H    0.054239
   121  H    0.087375
   122  H    0.097399
   123  H    0.103626
   124  H    0.084706
   125  H    0.063033
   126  H    0.100809
   127  H    0.074272
   128  H    0.084874
   129  H    0.084595
   130  H    0.087551
   131  H    0.095172
   132  H    0.072938
   133  H    0.078473
   134  H    0.103705
   135  H    0.094977
   136  H    0.084590
   137  H    0.106189
 Sum of Mulliken charges =   0.00000

 Dipole moment (field-independent basis, Debye):
    X=              0.0618    Y=              5.7213    Z=             -0.0585  Tot=              5.7220
 Quadrupole moment (field-independent basis, Debye-Ang):
   XX=           -363.1681   YY=           -387.0191   ZZ=           -395.8027
   XY=            -36.0322   XZ=             13.3200   YZ=             -4.9038

 Normal termination of Gaussian 09 at Sat Jun 29 04:09:08 2019.
