 Gaussian 09, Revision D.01,
 Gaussian 09:  ES64L-G09RevD.01 24-Apr-2013

 -------------------------------------
 # td=(NStates=1) CAM-B3LYP/6-31G(d,p)
 -------------------------------------

 --
 TD
 --
 Symbolic Z-matrix:
 Charge =  0 Multiplicity = 1

                         Standard orientation:
 ---------------------------------------------------------------------
 Center     Atomic      Atomic             Coordinates (Angstroms)
 Number     Number       Type             X           Y           Z
 ---------------------------------------------------------------------
      1         12           0       -7.154357    0.626843   -0.048754
      2          6           0       -4.885183   -2.011696    0.560062
      3          6           0       -4.894908    2.833521    1.198559
      4          6           0       -9.429291    3.029443   -0.301325
      5          6           0       -9.612177   -1.763527   -0.908755
      6          7           0       -5.179005    0.523479    0.663855
      7          6           0       -4.348413   -0.714516    0.742546
      8          6           0       -2.979182   -0.393116    1.177459
      9          6           0       -3.042636    1.073920    1.637237
     10          6           0       -4.453922    1.474493    1.109677
     11          6           0       -3.073322    1.199010    3.269973
     12          6           0       -1.866808   -0.395089    0.001815
     13          6           0       -0.482315   -0.216441    0.442293
     14          6           0        0.555318   -0.619314   -0.560741
     15          8           0        0.344860   -1.167935   -1.662087
     16          8           0        1.776478   -0.304961   -0.159990
     17          7           0       -7.089041    2.526387    0.331788
     18          6           0       -6.111508    3.342462    0.848824
     19          6           0       -6.500472    4.776036    0.813114
     20          6           0       -7.874888    4.817335    0.363550
     21          6           0       -8.202069    3.363469    0.116840
     22          6           0       -5.587476    5.904484    1.385352
     23          6           0       -8.674226    6.002424    0.255998
     24          6           0       -8.231381    7.190580    0.038155
     25          7           0       -9.234571    0.604007   -0.394085
     26          6           0       -9.972184    1.737708   -0.574912
     27          6           0      -11.324842    1.410946   -0.921422
     28          6           0      -11.336837    0.024756   -1.172230
     29          6           0      -10.018460   -0.474161   -0.863324
     30          6           0      -12.292549    2.288173   -1.195818
     31          6           0      -12.404709   -0.825758   -1.669297
     32          6           0      -12.387185   -1.010755   -3.203024
     33          7           0       -7.286156   -1.397980   -0.178676
     34          6           0       -8.310591   -2.210441   -0.600207
     35          6           0       -7.746690   -3.530944   -0.633629
     36          6           0       -6.430917   -3.559696   -0.072749
     37          6           0       -6.226540   -2.206119    0.110305
     38          6           0       -8.584311   -4.921733   -0.935515
     39          6           0       -5.251854   -4.364937    0.217053
     40          8           0       -5.156925   -5.594727    0.096249
     41          6           0       -4.154994   -3.331521    0.547342
     42          6           0       -3.540921   -3.673440    1.920600
     43          8           0       -3.723121   -3.070481    2.922371
     44          8           0       -2.679427   -4.674545    1.705378
     45          6           0       -2.211499   -5.184252    2.952688
     46          6           0        2.843515   -0.607615   -1.209297
     47          6           0        4.189397   -0.360126   -0.568546
     48          6           0        5.206631    0.393002   -1.010535
     49          6           0        5.061430    1.253261   -2.288570
     50          6           0        6.504262    0.538325   -0.257704
     51          6           0        7.684221   -0.087349   -0.994348
     52          6           0        8.849503   -0.037204   -0.161158
     53          6           0       10.208456   -0.586070   -0.873423
     54          6           0       10.212746   -2.113782   -1.095553
     55          6           0       11.337432   -0.187249   -0.093292
     56          6           0       12.843705   -0.486641   -0.725113
     57          6           0       14.026184   -0.197389    0.255058
     58          6           0       15.347452   -0.225521   -0.473083
     59          6           0       15.789708   -1.632309   -0.844019
     60          6           0       16.442625    0.486982    0.446893
     61          6           0       17.871121    0.595731   -0.185453
     62          6           0       18.820915    1.256515    0.815272
     63          6           0       20.297630    1.236689    0.292681
     64          6           0       20.420006    1.937514   -1.098189
     65          6           0       21.373174    1.829692    1.209196
     66          1           0       -4.111711    3.667979    1.412977
     67          1           0       -9.974238    3.918002   -0.429585
     68          1           0      -10.361432   -2.524744   -1.213239
     69          1           0       -2.477846   -0.930916    2.107401
     70          1           0       -2.276909    1.674080    1.120761
     71          1           0       -1.916776    1.121957    3.712740
     72          1           0       -3.426850    2.341523    3.588685
     73          1           0       -3.569679    0.388501    3.642061
     74          1           0       -2.006986   -1.384552   -0.555004
     75          1           0       -2.163686    0.228044   -0.671092
     76          1           0       -0.415427    0.892106    0.729165
     77          1           0       -0.128556   -0.958932    1.428597
     78          1           0       -4.858132    6.175061    0.467898
     79          1           0       -6.145901    6.825916    1.689342
     80          1           0       -4.945381    5.392317    2.359282
     81          1           0       -9.811459    5.841641    0.589158
     82          1           0       -9.189127    7.897276    0.006609
     83          1           0       -7.402748    7.498889   -0.366068
     84          1           0      -12.105581    2.902611   -2.016453
     85          1           0      -13.325361    1.983483   -1.178005
     86          1           0      -12.349594    3.090126   -0.490175
     87          1           0      -12.338404   -1.757450   -1.164719
     88          1           0      -13.331083   -0.239059   -1.492658
     89          1           0      -13.296930   -1.683788   -3.459171
     90          1           0      -12.313330   -0.123478   -3.741798
     91          1           0      -11.455246   -1.619860   -3.439468
     92          1           0       -9.095867   -4.791455   -1.952411
     93          1           0       -7.831702   -5.853902   -0.813675
     94          1           0       -9.493901   -4.939220   -0.374721
     95          1           0       -3.365811   -3.447361   -0.255579
     96          1           0       -1.705569   -4.560005    3.664375
     97          1           0       -2.989032   -5.720722    3.651021
     98          1           0       -1.615197   -5.999955    2.773062
     99          1           0        2.680535   -1.683720   -1.687771
    100          1           0        2.736202    0.088863   -1.974616
    101          1           0        4.296429   -0.897329    0.283790
    102          1           0        4.088716    1.201441   -2.806818
    103          1           0        5.477053    2.222602   -2.016719
    104          1           0        5.967962    0.907849   -2.791941
    105          1           0        6.671716    1.541779   -0.030269
    106          1           0        6.217963    0.001537    0.638649
    107          1           0        7.428497   -0.967974   -1.358511
    108          1           0        7.786664    0.601288   -1.955881
    109          1           0        9.201926    0.968011    0.099909
    110          1           0        8.832607   -0.459028    0.765175
    111          1           0       10.334031   -0.146530   -1.718036
    112          1           0        9.201168   -2.454423   -1.645355
    113          1           0       11.152767   -2.443782   -1.654603
    114          1           0       10.108767   -2.636123   -0.183426
    115          1           0       11.393384    0.787318    0.356632
    116          1           0       11.363542   -1.016691    0.773302
    117          1           0       12.855737   -1.339507   -1.164818
    118          1           0       12.813366    0.205102   -1.597989
    119          1           0       13.845616    0.874790    0.703544
    120          1           0       13.982907   -0.780543    1.078939
    121          1           0       15.204374    0.452183   -1.344960
    122          1           0       15.773066   -2.071341    0.096165
    123          1           0       15.092754   -1.990737   -1.606463
    124          1           0       16.870710   -1.750361   -1.312876
    125          1           0       16.085490    1.474316    0.710500
    126          1           0       16.501353   -0.063463    1.473359
    127          1           0       18.138514   -0.416159   -0.480743
    128          1           0       17.616187    1.142111   -0.990361
    129          1           0       18.543932    2.307800    0.878683
    130          1           0       18.821057    0.888027    1.952272
    131          1           0       20.709291    0.170662    0.149742
    132          1           0       20.058148    3.061768   -1.023290
    133          1           0       21.428713    1.952894   -1.634332
    134          1           0       19.774337    1.660948   -1.912155
    135          1           0       21.498752    1.228073    2.222119
    136          1           0       22.430376    1.893242    0.773267
    137          1           0       21.048618    2.962242    1.592218
 ---------------------------------------------------------------------

 SCF Done:  E(RCAM-B3LYP) =  -2932.66938464     A.U. after   17 cycles

 Excitation energies and oscillator strengths:

 Excited State   1:      Singlet-A      2.2297 eV  556.07 nm  f=0.2056  <S**2>=0.000
     240 -> 242       -0.11795
     240 -> 243       -0.23826
     241 -> 242        0.64117
 This state for optimization and/or second-order correction.
 Total Energy, E(TD-HF/TD-KS) =  -2932.58744630
 Copying the excited state density for this state as the 1-particle RhoCI density.

 The electronic state is 1-A.
 Alpha  occ. eigenvalues --  -46.83463 -19.27512 -19.26450 -19.21711 -19.19821
 Alpha  occ. eigenvalues --  -19.19681 -14.42307 -14.39092 -14.38879 -14.38825
 Alpha  occ. eigenvalues --  -10.39398 -10.38914 -10.34766 -10.32401 -10.31471
 Alpha  occ. eigenvalues --  -10.30694 -10.30656 -10.30307 -10.30085 -10.30009
 Alpha  occ. eigenvalues --  -10.29605 -10.29472 -10.29075 -10.28677 -10.28452
 Alpha  occ. eigenvalues --  -10.28412 -10.28348 -10.28307 -10.28118 -10.28028
 Alpha  occ. eigenvalues --  -10.28000 -10.27800 -10.27760 -10.27624 -10.27599
 Alpha  occ. eigenvalues --  -10.27582 -10.27209 -10.26880 -10.26480 -10.26230
 Alpha  occ. eigenvalues --  -10.26127 -10.26093 -10.25945 -10.25855 -10.25820
 Alpha  occ. eigenvalues --  -10.25790 -10.25780 -10.25626 -10.25605 -10.25573
 Alpha  occ. eigenvalues --  -10.25557 -10.25443 -10.25373 -10.25300 -10.25226
 Alpha  occ. eigenvalues --  -10.25181 -10.25023 -10.24867 -10.24815 -10.24677
 Alpha  occ. eigenvalues --  -10.24473 -10.24365 -10.24228 -10.23773 -10.23722
 Alpha  occ. eigenvalues --   -3.12675  -1.87358  -1.86951  -1.86839  -1.19915
 Alpha  occ. eigenvalues --   -1.17360  -1.11384  -1.09133  -1.06637  -1.04418
 Alpha  occ. eigenvalues --   -1.03041  -1.02423  -1.01430  -0.92931  -0.92537
 Alpha  occ. eigenvalues --   -0.90782  -0.90544  -0.90206  -0.89894  -0.89781
 Alpha  occ. eigenvalues --   -0.89149  -0.87933  -0.87046  -0.86460  -0.85101
 Alpha  occ. eigenvalues --   -0.84796  -0.84694  -0.83522  -0.83421  -0.83186
 Alpha  occ. eigenvalues --   -0.81727  -0.81207  -0.80044  -0.79842  -0.77894
 Alpha  occ. eigenvalues --   -0.77250  -0.76651  -0.76562  -0.76447  -0.75211
 Alpha  occ. eigenvalues --   -0.74380  -0.74166  -0.73914  -0.73382  -0.71603
 Alpha  occ. eigenvalues --   -0.71468  -0.71005  -0.69952  -0.69776  -0.68456
 Alpha  occ. eigenvalues --   -0.67829  -0.67753  -0.66267  -0.65041  -0.64736
 Alpha  occ. eigenvalues --   -0.64620  -0.64124  -0.62799  -0.62634  -0.62100
 Alpha  occ. eigenvalues --   -0.61870  -0.60877  -0.60725  -0.60310  -0.59361
 Alpha  occ. eigenvalues --   -0.58751  -0.58014  -0.57877  -0.57361  -0.56303
 Alpha  occ. eigenvalues --   -0.56035  -0.55953  -0.55584  -0.54992  -0.54736
 Alpha  occ. eigenvalues --   -0.54594  -0.54161  -0.53967  -0.53748  -0.53332
 Alpha  occ. eigenvalues --   -0.53215  -0.52386  -0.52317  -0.52100  -0.51778
 Alpha  occ. eigenvalues --   -0.51397  -0.51055  -0.50976  -0.50813  -0.50534
 Alpha  occ. eigenvalues --   -0.49986  -0.49903  -0.49717  -0.49651  -0.49531
 Alpha  occ. eigenvalues --   -0.49258  -0.49120  -0.48666  -0.48453  -0.48191
 Alpha  occ. eigenvalues --   -0.48009  -0.47903  -0.47673  -0.47202  -0.47065
 Alpha  occ. eigenvalues --   -0.46854  -0.46438  -0.46329  -0.45982  -0.45761
 Alpha  occ. eigenvalues --   -0.45454  -0.45389  -0.45173  -0.45158  -0.45011
 Alpha  occ. eigenvalues --   -0.44988  -0.44779  -0.44464  -0.44292  -0.43911
 Alpha  occ. eigenvalues --   -0.43790  -0.43734  -0.43613  -0.43347  -0.43141
 Alpha  occ. eigenvalues --   -0.42823  -0.42705  -0.42651  -0.42570  -0.42337
 Alpha  occ. eigenvalues --   -0.42246  -0.41804  -0.41640  -0.41552  -0.41505
 Alpha  occ. eigenvalues --   -0.41196  -0.40965  -0.40507  -0.40436  -0.40334
 Alpha  occ. eigenvalues --   -0.40113  -0.39948  -0.39673  -0.39446  -0.39262
 Alpha  occ. eigenvalues --   -0.39189  -0.39030  -0.38471  -0.38273  -0.38041
 Alpha  occ. eigenvalues --   -0.37819  -0.37624  -0.37463  -0.37127  -0.37072
 Alpha  occ. eigenvalues --   -0.36879  -0.36542  -0.36435  -0.36020  -0.35853
 Alpha  occ. eigenvalues --   -0.35805  -0.35609  -0.35054  -0.34434  -0.33330
 Alpha  occ. eigenvalues --   -0.33045  -0.32744  -0.32452  -0.30503  -0.29808
 Alpha  occ. eigenvalues --   -0.29521  -0.28292  -0.28013  -0.26863  -0.23332
 Alpha  occ. eigenvalues --   -0.21344
 Alpha virt. eigenvalues --   -0.05747  -0.02924   0.01129   0.03867   0.05041
 Alpha virt. eigenvalues --    0.05697   0.06197   0.06622   0.07054   0.07485
 Alpha virt. eigenvalues --    0.08775   0.10292   0.10753   0.11450   0.11591

 Mulliken charges:
               1
     1  Mg   0.826997
     2  C    0.068309
     3  C   -0.254537
     4  C   -0.192255
     5  C   -0.168018
     6  N   -0.599626
     7  C    0.250165
     8  C   -0.173702
     9  C   -0.134513
    10  C    0.368028
    11  C   -0.295523
    12  C   -0.171640
    13  C   -0.245795
    14  C    0.620213
    15  O   -0.508586
    16  O   -0.479687
    17  N   -0.752905
    18  C    0.353339
    19  C    0.009477
    20  C    0.007437
    21  C    0.343558
    22  C   -0.352193
    23  C   -0.077022
    24  C   -0.223830
    25  N   -0.689276
    26  C    0.312177
    27  C    0.078810
    28  C    0.030848
    29  C    0.302658
    30  C   -0.430373
    31  C   -0.248742
    32  C   -0.300756
    33  N   -0.738151
    34  C    0.303290
    35  C   -0.075583
    36  C    0.038093
    37  C    0.295355
    38  C   -0.368813
    39  C    0.372315
    40  O   -0.478996
    41  C   -0.343543
    42  C    0.646611
    43  O   -0.446753
    44  O   -0.431705
    45  C   -0.104780
    46  C    0.017237
    47  C   -0.145705
    48  C    0.102075
    49  C   -0.359786
    50  C   -0.231481
    51  C   -0.155092
    52  C   -0.179844
    53  C   -0.043030
    54  C   -0.313269
    55  C   -0.183656
    56  C   -0.194981
    57  C   -0.161961
    58  C   -0.072147
    59  C   -0.296003
    60  C   -0.197016
    61  C   -0.166068
    62  C   -0.168239
    63  C   -0.038612
    64  C   -0.314500
    65  C   -0.290581
    66  H    0.073396
    67  H    0.066785
    68  H    0.101466
    69  H    0.116526
    70  H    0.103212
    71  H    0.079737
    72  H    0.099147
    73  H    0.153091
    74  H    0.112136
    75  H    0.121675
    76  H    0.129144
    77  H    0.111472
    78  H    0.114434
    79  H    0.131130
    80  H    0.101648
    81  H    0.098902
    82  H    0.086599
    83  H    0.109670
    84  H    0.133227
    85  H    0.116397
    86  H    0.113499
    87  H    0.112259
    88  H    0.101057
    89  H    0.096917
    90  H    0.122992
    91  H    0.098883
    92  H    0.097621
    93  H    0.140506
    94  H    0.123519
    95  H    0.181308
    96  H    0.134312
    97  H    0.109820
    98  H    0.128190
    99  H    0.140710
   100  H    0.118485
   101  H    0.081688
   102  H    0.119145
   103  H    0.116853
   104  H    0.118772
   105  H    0.113548
   106  H    0.105494
   107  H    0.114080
   108  H    0.074961
   109  H    0.089981
   110  H    0.106310
   111  H    0.089934
   112  H    0.075897
   113  H    0.101845
   114  H    0.113102
   115  H    0.090837
   116  H    0.056654
   117  H    0.101252
   118  H    0.078833
   119  H    0.073688
   120  H    0.103526
   121  H    0.078522
   122  H    0.114690
   123  H    0.104135
   124  H    0.088734
   125  H    0.088856
   126  H    0.065223
   127  H    0.097884
   128  H    0.113183
   129  H    0.098438
   130  H    0.081553
   131  H    0.082551
   132  H    0.076661
   133  H    0.094447
   134  H    0.107370
   135  H    0.082262
   136  H    0.103599
   137  H    0.067893
 Sum of Mulliken charges =   0.00000

 Dipole moment (field-independent basis, Debye):
    X=              2.1690    Y=              6.3309    Z=             -0.1916  Tot=              6.6949
 Quadrupole moment (field-independent basis, Debye-Ang):
   XX=           -353.6767   YY=           -395.5029   ZZ=           -397.7716
   XY=            -38.9973   XZ=              8.5840   YZ=             -9.2263

 Normal termination of Gaussian 09 at Thu Jun 27 16:46:27 2019.
