 Gaussian 09, Revision D.01,
 Gaussian 09:  ES64L-G09RevD.01 24-Apr-2013

 -------------------------------------
 # td=(NStates=1) CAM-B3LYP/6-31G(d,p)
 -------------------------------------

 --
 TD
 --
 Symbolic Z-matrix:
 Charge =  0 Multiplicity = 1

                         Standard orientation:
 ---------------------------------------------------------------------
 Center     Atomic      Atomic             Coordinates (Angstroms)
 Number     Number       Type             X           Y           Z
 ---------------------------------------------------------------------
      1         12           0       -7.200292    0.603049    0.290255
      2          6           0       -4.928458   -1.944073    0.566348
      3          6           0       -4.827243    2.873626    1.336685
      4          6           0       -9.469866    3.120963   -0.370328
      5          6           0       -9.551298   -1.803308   -0.795316
      6          7           0       -5.162705    0.421504    0.857473
      7          6           0       -4.389434   -0.722028    0.818794
      8          6           0       -2.962682   -0.309457    1.297725
      9          6           0       -3.073988    1.134665    1.780804
     10          6           0       -4.456367    1.476551    1.252609
     11          6           0       -2.924287    1.284953    3.377228
     12          6           0       -1.876767   -0.432338    0.123703
     13          6           0       -0.497723   -0.476342    0.489924
     14          6           0        0.505573   -0.613072   -0.607833
     15          8           0        0.193706   -1.003485   -1.650849
     16          8           0        1.803636   -0.355322   -0.255750
     17          7           0       -7.095199    2.620786    0.302238
     18          6           0       -6.130742    3.394334    0.857396
     19          6           0       -6.480443    4.729358    0.869833
     20          6           0       -7.696677    4.826292    0.369821
     21          6           0       -8.192071    3.546392    0.067901
     22          6           0       -5.683575    5.856215    1.308653
     23          6           0       -8.728732    6.002522    0.140886
     24          6           0       -8.245185    7.247520   -0.064914
     25          7           0       -9.126519    0.610806   -0.410250
     26          6           0       -9.905587    1.720444   -0.711465
     27          6           0      -11.216930    1.418949   -1.252818
     28          6           0      -11.188309    0.024504   -1.295047
     29          6           0       -9.877881   -0.364696   -0.779987
     30          6           0      -12.310237    2.326098   -1.357498
     31          6           0      -12.298789   -0.852759   -1.748344
     32          6           0      -12.168436   -1.185670   -3.239738
     33          7           0       -7.243333   -1.437212   -0.044421
     34          6           0       -8.229544   -2.333066   -0.604261
     35          6           0       -7.788318   -3.657856   -0.490831
     36          6           0       -6.532038   -3.598445   -0.090863
     37          6           0       -6.234896   -2.235611    0.196851
     38          6           0       -8.368628   -4.947691   -0.769466
     39          6           0       -5.270735   -4.384903    0.120450
     40          8           0       -5.125118   -5.578391    0.123504
     41          6           0       -4.113563   -3.281290    0.591894
     42          6           0       -3.486698   -3.622054    1.888153
     43          8           0       -3.671625   -3.003481    2.917177
     44          8           0       -2.553522   -4.613692    1.697564
     45          6           0       -2.026060   -5.138119    2.924187
     46          6           0        2.783825   -0.622698   -1.209059
     47          6           0        4.132725   -0.357782   -0.611992
     48          6           0        5.105186    0.446649   -1.041188
     49          6           0        4.944168    1.311930   -2.304701
     50          6           0        6.463663    0.401670   -0.301084
     51          6           0        7.505808   -0.158394   -1.115480
     52          6           0        8.934237   -0.046694   -0.324023
     53          6           0       10.172287   -0.569034   -1.004494
     54          6           0       10.014792   -2.018323   -1.500823
     55          6           0       11.389534   -0.276887   -0.223113
     56          6           0       12.793596   -0.539132   -0.876259
     57          6           0       13.927812   -0.237016    0.074639
     58          6           0       15.326919   -0.191895   -0.451975
     59          6           0       15.739857   -1.562829   -0.927311
     60          6           0       16.288275    0.283217    0.578869
     61          6           0       17.767385    0.671074   -0.019097
     62          6           0       18.823912    1.150195    0.879801
     63          6           0       20.239139    1.322177    0.362946
     64          6           0       20.462922    2.062191   -0.997590
     65          6           0       21.100372    2.036250    1.451798
     66          1           0       -4.257908    3.530643    1.540989
     67          1           0      -10.198095    3.858546   -0.352316
     68          1           0      -10.306731   -2.410126   -1.278691
     69          1           0       -2.772107   -1.076628    2.136608
     70          1           0       -2.270462    1.720519    1.341775
     71          1           0       -2.028555    0.796198    3.881019
     72          1           0       -3.120494    2.432426    3.876239
     73          1           0       -3.687543    0.661723    3.847471
     74          1           0       -2.202815   -1.341357   -0.259397
     75          1           0       -1.949615    0.245038   -0.677999
     76          1           0       -0.175480    0.395879    1.067339
     77          1           0       -0.130484   -1.410358    1.081720
     78          1           0       -4.761500    6.097605    0.559746
     79          1           0       -6.183452    6.756569    1.646707
     80          1           0       -4.910086    5.573048    2.068782
     81          1           0       -9.806248    5.797132    0.115719
     82          1           0       -8.768522    8.099152   -0.210356
     83          1           0       -7.180173    7.429060   -0.397278
     84          1           0      -12.208833    3.019637   -2.364966
     85          1           0      -13.282191    1.557073   -1.542970
     86          1           0      -12.536130    3.164775   -0.652243
     87          1           0      -12.338264   -1.830834   -1.195091
     88          1           0      -13.189553   -0.126583   -1.698615
     89          1           0      -13.033658   -1.846681   -3.468108
     90          1           0      -12.008246   -0.184416   -3.977952
     91          1           0      -11.360594   -1.809996   -3.353489
     92          1           0       -9.040924   -5.029823   -1.666592
     93          1           0       -7.746870   -5.909290   -0.608811
     94          1           0       -9.248804   -5.081264    0.086047
     95          1           0       -3.321294   -3.360853   -0.236774
     96          1           0       -1.687567   -4.310323    3.329844
     97          1           0       -2.771160   -5.660203    3.528229
     98          1           0       -1.318713   -5.949511    2.901494
     99          1           0        2.928751   -1.698927   -1.557333
    100          1           0        2.848166   -0.051544   -2.194864
    101          1           0        4.268451   -0.819273    0.395257
    102          1           0        3.810177    1.578014   -2.527798
    103          1           0        5.565240    2.231031   -1.995830
    104          1           0        5.443144    0.839530   -3.138816
    105          1           0        6.355839    1.596708    0.018794
    106          1           0        6.548109   -0.137854    0.753245
    107          1           0        7.354557   -1.150311   -1.556616
    108          1           0        7.750850    0.431720   -2.021796
    109          1           0        8.941845    0.983085    0.131040
    110          1           0        8.941717   -0.553407    0.639252
    111          1           0       10.252945   -0.103778   -2.049874
    112          1           0        9.157229   -1.948130   -2.302055
    113          1           0       11.079844   -2.384760   -2.068835
    114          1           0        9.750971   -2.786781   -0.661734
    115          1           0       11.367959    0.896613   -0.157224
    116          1           0       11.355361   -0.789922    0.735068
    117          1           0       12.680193   -1.708552   -1.218778
    118          1           0       12.722414    0.156242   -1.759983
    119          1           0       13.765710    0.640998    0.684367
    120          1           0       13.844624   -0.771561    0.887072
    121          1           0       15.443256    0.424649   -1.281035
    122          1           0       15.495427   -2.492018   -0.187317
    123          1           0       15.412885   -1.822897   -2.077264
    124          1           0       17.025041   -1.794682   -1.146068
    125          1           0       15.895876    1.179250    1.236768
    126          1           0       16.516700   -0.305368    1.523286
    127          1           0       18.201090   -0.382146   -0.476680
    128          1           0       17.635741    1.268146   -0.991855
    129          1           0       18.496809    2.258139    1.251682
    130          1           0       18.858752    0.547820    1.794479
    131          1           0       20.363177    0.228153    0.167933
    132          1           0       20.085959    3.132060   -0.888328
    133          1           0       21.561085    1.936314   -1.387569
    134          1           0       19.820105    1.558952   -1.827168
    135          1           0       21.110232    1.491378    2.551777
    136          1           0       22.283051    1.994989    1.259036
    137          1           0       20.746181    3.106849    1.460168
 ---------------------------------------------------------------------

 SCF Done:  E(RCAM-B3LYP) =  -2932.58662936     A.U. after   17 cycles

 Excitation energies and oscillator strengths:

 Excited State   1:      Singlet-A      2.1039 eV  589.31 nm  f=0.1906  <S**2>=0.000
     240 -> 243       -0.28102
     241 -> 242        0.63613
 This state for optimization and/or second-order correction.
 Total Energy, E(TD-HF/TD-KS) =  -2932.50931226
 Copying the excited state density for this state as the 1-particle RhoCI density.

 The electronic state is 1-A.
 Alpha  occ. eigenvalues --  -46.84574 -19.26407 -19.26277 -19.21669 -19.21665
 Alpha  occ. eigenvalues --  -19.20787 -14.41328 -14.39882 -14.39597 -14.38881
 Alpha  occ. eigenvalues --  -10.39776 -10.38469 -10.36485 -10.31692 -10.31187
 Alpha  occ. eigenvalues --  -10.30738 -10.29838 -10.29639 -10.29539 -10.29480
 Alpha  occ. eigenvalues --  -10.29309 -10.28927 -10.28919 -10.28694 -10.28679
 Alpha  occ. eigenvalues --  -10.28660 -10.28554 -10.28099 -10.28080 -10.28062
 Alpha  occ. eigenvalues --  -10.28052 -10.27830 -10.27769 -10.27660 -10.27559
 Alpha  occ. eigenvalues --  -10.27510 -10.27392 -10.27372 -10.27279 -10.27206
 Alpha  occ. eigenvalues --  -10.26826 -10.26824 -10.26796 -10.26719 -10.26680
 Alpha  occ. eigenvalues --  -10.26623 -10.26623 -10.26522 -10.26445 -10.26282
 Alpha  occ. eigenvalues --  -10.26167 -10.26069 -10.26036 -10.25928 -10.25916
 Alpha  occ. eigenvalues --  -10.25748 -10.25667 -10.25635 -10.25555 -10.25490
 Alpha  occ. eigenvalues --  -10.25368 -10.24856 -10.24579 -10.23969 -10.23754
 Alpha  occ. eigenvalues --   -3.13562  -1.88270  -1.87801  -1.87737  -1.19718
 Alpha  occ. eigenvalues --   -1.17900  -1.12590  -1.11555  -1.09818  -1.05221
 Alpha  occ. eigenvalues --   -1.04505  -1.03770  -1.02786  -0.91640  -0.91532
 Alpha  occ. eigenvalues --   -0.90944  -0.90497  -0.89659  -0.89488  -0.89361
 Alpha  occ. eigenvalues --   -0.88662  -0.88636  -0.87755  -0.86541  -0.85909
 Alpha  occ. eigenvalues --   -0.85067  -0.84064  -0.83821  -0.82946  -0.82654
 Alpha  occ. eigenvalues --   -0.81326  -0.80743  -0.80331  -0.79756  -0.77987
 Alpha  occ. eigenvalues --   -0.77235  -0.77038  -0.76236  -0.75370  -0.75098
 Alpha  occ. eigenvalues --   -0.74789  -0.73955  -0.73440  -0.73340  -0.72599
 Alpha  occ. eigenvalues --   -0.71618  -0.70854  -0.69419  -0.68399  -0.68092
 Alpha  occ. eigenvalues --   -0.66747  -0.66602  -0.65431  -0.65317  -0.65014
 Alpha  occ. eigenvalues --   -0.64372  -0.63919  -0.63333  -0.62379  -0.61557
 Alpha  occ. eigenvalues --   -0.60953  -0.60356  -0.60129  -0.59882  -0.59385
 Alpha  occ. eigenvalues --   -0.58758  -0.58198  -0.57996  -0.57475  -0.57122
 Alpha  occ. eigenvalues --   -0.56435  -0.55937  -0.55511  -0.55240  -0.54677
 Alpha  occ. eigenvalues --   -0.54374  -0.54185  -0.54024  -0.53553  -0.53541
 Alpha  occ. eigenvalues --   -0.52954  -0.52701  -0.52622  -0.52065  -0.51894
 Alpha  occ. eigenvalues --   -0.51645  -0.51574  -0.51109  -0.50934  -0.50789
 Alpha  occ. eigenvalues --   -0.50528  -0.50300  -0.49859  -0.49749  -0.49639
 Alpha  occ. eigenvalues --   -0.49073  -0.48913  -0.48618  -0.48329  -0.48136
 Alpha  occ. eigenvalues --   -0.47668  -0.47532  -0.47321  -0.47094  -0.47074
 Alpha  occ. eigenvalues --   -0.46817  -0.46657  -0.46451  -0.46003  -0.45948
 Alpha  occ. eigenvalues --   -0.45799  -0.45607  -0.45201  -0.45110  -0.44877
 Alpha  occ. eigenvalues --   -0.44807  -0.44690  -0.44476  -0.44246  -0.44098
 Alpha  occ. eigenvalues --   -0.44054  -0.43781  -0.43686  -0.43272  -0.43135
 Alpha  occ. eigenvalues --   -0.43101  -0.42864  -0.42546  -0.42395  -0.42161
 Alpha  occ. eigenvalues --   -0.41890  -0.41637  -0.41263  -0.41212  -0.41081
 Alpha  occ. eigenvalues --   -0.40875  -0.40648  -0.40446  -0.40264  -0.40159
 Alpha  occ. eigenvalues --   -0.39968  -0.39895  -0.39610  -0.39210  -0.39060
 Alpha  occ. eigenvalues --   -0.38758  -0.37969  -0.37769  -0.37491  -0.37490
 Alpha  occ. eigenvalues --   -0.37220  -0.37174  -0.36996  -0.36635  -0.36221
 Alpha  occ. eigenvalues --   -0.36201  -0.36014  -0.35855  -0.35595  -0.35570
 Alpha  occ. eigenvalues --   -0.35305  -0.34861  -0.34441  -0.34025  -0.33907
 Alpha  occ. eigenvalues --   -0.33330  -0.32884  -0.31923  -0.30774  -0.30252
 Alpha  occ. eigenvalues --   -0.29709  -0.29048  -0.28356  -0.27791  -0.22807
 Alpha  occ. eigenvalues --   -0.21438
 Alpha virt. eigenvalues --   -0.06135  -0.03311   0.01685   0.04229   0.04998
 Alpha virt. eigenvalues --    0.05432   0.06480   0.07631   0.07780   0.07882
 Alpha virt. eigenvalues --    0.08476   0.10214   0.10787   0.10913   0.11506

 Mulliken charges:
               1
     1  Mg   0.830929
     2  C    0.047352
     3  C   -0.101377
     4  C   -0.159903
     5  C   -0.150366
     6  N   -0.646704
     7  C    0.297542
     8  C   -0.191727
     9  C   -0.118334
    10  C    0.340677
    11  C   -0.311315
    12  C   -0.166686
    13  C   -0.249778
    14  C    0.584785
    15  O   -0.423888
    16  O   -0.475921
    17  N   -0.722564
    18  C    0.304701
    19  C    0.064243
    20  C    0.024561
    21  C    0.245231
    22  C   -0.400314
    23  C   -0.066267
    24  C   -0.245725
    25  N   -0.648682
    26  C    0.208582
    27  C    0.098158
    28  C    0.010531
    29  C    0.311034
    30  C   -0.380128
    31  C   -0.253324
    32  C   -0.288948
    33  N   -0.712027
    34  C    0.199470
    35  C    0.071053
    36  C    0.026137
    37  C    0.324256
    38  C   -0.409646
    39  C    0.372402
    40  O   -0.432358
    41  C   -0.343826
    42  C    0.653856
    43  O   -0.468940
    44  O   -0.472755
    45  C   -0.076524
    46  C    0.026589
    47  C   -0.132639
    48  C    0.074510
    49  C   -0.355099
    50  C   -0.196812
    51  C   -0.175115
    52  C   -0.179927
    53  C   -0.053420
    54  C   -0.289190
    55  C   -0.173611
    56  C   -0.170326
    57  C   -0.166615
    58  C   -0.026453
    59  C   -0.278991
    60  C   -0.185008
    61  C   -0.166577
    62  C   -0.149678
    63  C   -0.050336
    64  C   -0.301736
    65  C   -0.288400
    66  H    0.006474
    67  H    0.075669
    68  H    0.089974
    69  H    0.133288
    70  H    0.111246
    71  H    0.108541
    72  H    0.081608
    73  H    0.127892
    74  H    0.119147
    75  H    0.121774
    76  H    0.124912
    77  H    0.127472
    78  H    0.097539
    79  H    0.134049
    80  H    0.110962
    81  H    0.106393
    82  H    0.102871
    83  H    0.111032
    84  H    0.095090
    85  H    0.086274
    86  H    0.131083
    87  H    0.109389
    88  H    0.092809
    89  H    0.100019
    90  H    0.090761
    91  H    0.117720
    92  H    0.122177
    93  H    0.157633
    94  H    0.098614
    95  H    0.165941
    96  H    0.134210
    97  H    0.122346
    98  H    0.125432
    99  H    0.114960
   100  H    0.095288
   101  H    0.078755
   102  H    0.117213
   103  H    0.101578
   104  H    0.132021
   105  H    0.079263
   106  H    0.095583
   107  H    0.114253
   108  H    0.098904
   109  H    0.092292
   110  H    0.086078
   111  H    0.071416
   112  H    0.092010
   113  H    0.078852
   114  H    0.089863
   115  H    0.081211
   116  H    0.087707
   117  H    0.075798
   118  H    0.089396
   119  H    0.086955
   120  H    0.104371
   121  H    0.104656
   122  H    0.089203
   123  H    0.084826
   124  H    0.054877
   125  H    0.072032
   126  H    0.088955
   127  H    0.058168
   128  H    0.087124
   129  H    0.047648
   130  H    0.098999
   131  H    0.084996
   132  H    0.097623
   133  H    0.101515
   134  H    0.092457
   135  H    0.079665
   136  H    0.085591
   137  H    0.108910
 Sum of Mulliken charges =   0.00000

 Dipole moment (field-independent basis, Debye):
    X=              0.0708    Y=              2.9506    Z=              0.8526  Tot=              3.0721
 Quadrupole moment (field-independent basis, Debye-Ang):
   XX=           -357.5395   YY=           -387.1951   ZZ=           -399.4875
   XY=            -15.2576   XZ=              9.0743   YZ=             -5.8644

 Normal termination of Gaussian 09 at Fri Jun 28 18:33:12 2019.
