 Gaussian 09, Revision D.01,
 Gaussian 09:  ES64L-G09RevD.01 24-Apr-2013

 -------------------------------------
 # td=(NStates=1) CAM-B3LYP/6-31G(d,p)
 -------------------------------------

 --
 TD
 --
 Symbolic Z-matrix:
 Charge =  0 Multiplicity = 1

                         Standard orientation:
 ---------------------------------------------------------------------
 Center     Atomic      Atomic             Coordinates (Angstroms)
 Number     Number       Type             X           Y           Z
 ---------------------------------------------------------------------
      1         12           0       -7.127635    0.590715    0.205589
      2          6           0       -4.863472   -1.972876    0.482582
      3          6           0       -4.865485    2.733180    1.140616
      4          6           0       -9.435504    3.107338   -0.419621
      5          6           0       -9.577778   -1.659396   -0.902991
      6          7           0       -5.115890    0.323489    0.833637
      7          6           0       -4.364793   -0.709081    0.803205
      8          6           0       -2.887067   -0.428475    1.285159
      9          6           0       -2.988648    1.080567    1.670375
     10          6           0       -4.364781    1.495642    1.173606
     11          6           0       -2.820407    1.284865    3.143153
     12          6           0       -1.850299   -0.670661    0.144219
     13          6           0       -0.441023   -0.499626    0.624234
     14          6           0        0.583226   -0.708269   -0.530370
     15          8           0        0.265840   -0.929632   -1.721570
     16          8           0        1.790049   -0.491452   -0.115983
     17          7           0       -7.134578    2.621184    0.200757
     18          6           0       -6.042109    3.352219    0.746806
     19          6           0       -6.349608    4.728952    0.834995
     20          6           0       -7.695305    4.931204    0.430727
     21          6           0       -8.243041    3.523520    0.047762
     22          6           0       -5.509232    5.729924    1.480389
     23          6           0       -8.559018    6.101887    0.266954
     24          6           0       -7.978968    7.313817    0.208843
     25          7           0       -9.241598    0.672705   -0.541342
     26          6           0       -9.877043    1.832446   -0.663930
     27          6           0      -11.268889    1.508210   -1.041047
     28          6           0      -11.340693    0.098769   -1.230880
     29          6           0       -9.994823   -0.424719   -0.794762
     30          6           0      -12.408131    2.470873   -1.309162
     31          6           0      -12.482004   -0.738302   -1.702856
     32          6           0      -12.286730   -1.152316   -3.144620
     33          7           0       -7.278626   -1.371446   -0.110062
     34          6           0       -8.238108   -2.185339   -0.530322
     35          6           0       -7.836728   -3.655785   -0.487597
     36          6           0       -6.597605   -3.577203   -0.067752
     37          6           0       -6.245984   -2.149405    0.121871
     38          6           0       -8.632264   -4.766217   -0.983888
     39          6           0       -5.439857   -4.396190    0.119988
     40          8           0       -5.293065   -5.556363    0.067835
     41          6           0       -4.160026   -3.334590    0.561618
     42          6           0       -3.519017   -3.694555    1.931565
     43          8           0       -3.790182   -3.168550    2.981445
     44          8           0       -2.627262   -4.746352    1.802646
     45          6           0       -2.216841   -5.323206    3.005158
     46          6           0        2.773859   -0.625014   -1.259097
     47          6           0        4.134094   -0.345374   -0.528181
     48          6           0        5.079636    0.350133   -1.018578
     49          6           0        5.106192    1.225562   -2.317963
     50          6           0        6.455162    0.497532   -0.294398
     51          6           0        7.590784   -0.036237   -1.035439
     52          6           0        8.907325    0.048762   -0.116223
     53          6           0       10.137698   -0.332370   -0.981675
     54          6           0       10.067940   -1.834886   -1.599509
     55          6           0       11.415950   -0.117566   -0.063767
     56          6           0       12.789412   -0.353986   -0.913333
     57          6           0       13.929043   -0.236859    0.053756
     58          6           0       15.298011   -0.400121   -0.555292
     59          6           0       15.773810   -1.843533   -0.851863
     60          6           0       16.388538    0.223385    0.334001
     61          6           0       17.876810    0.458519   -0.187959
     62          6           0       18.722311    1.132887    0.815661
     63          6           0       20.251864    1.310601    0.307076
     64          6           0       20.428661    2.348706   -0.851614
     65          6           0       21.259253    1.723254    1.514565
     66          1           0       -4.111940    3.571261    1.294303
     67          1           0      -10.152025    3.891018   -0.388617
     68          1           0       -9.997745   -2.698437   -1.223910
     69          1           0       -2.621731   -1.031372    2.047362
     70          1           0       -2.170409    1.643981    1.215779
     71          1           0       -1.629498    1.472230    3.313059
     72          1           0       -2.954632    2.317765    3.387133
     73          1           0       -3.445018    0.715516    3.601167
     74          1           0       -1.832359   -1.730722   -0.350050
     75          1           0       -1.849161   -0.014372   -0.596543
     76          1           0       -0.235250    0.543749    1.188515
     77          1           0       -0.156002   -1.369532    1.093913
     78          1           0       -4.952115    6.455040    0.698559
     79          1           0       -6.375942    6.601155    1.901672
     80          1           0       -4.946921    5.539319    2.332287
     81          1           0       -9.674219    5.851404    0.338307
     82          1           0       -8.532957    8.276634    0.156067
     83          1           0       -6.869470    7.411975    0.114207
     84          1           0      -11.897063    3.189381   -1.960285
     85          1           0      -13.306203    1.900734   -1.773927
     86          1           0      -12.833742    2.819470   -0.378106
     87          1           0      -12.634535   -1.610449   -1.133695
     88          1           0      -13.486184   -0.467589   -1.709534
     89          1           0      -12.952438   -1.907589   -3.588814
     90          1           0      -12.362826   -0.306439   -3.735212
     91          1           0      -11.285874   -1.487302   -3.499869
     92          1           0       -8.904499   -5.047110   -1.980072
     93          1           0       -8.060739   -5.637206   -0.777651
     94          1           0       -9.615044   -4.952343   -0.318654
     95          1           0       -3.368332   -3.434170   -0.240776
     96          1           0       -1.531625   -4.518079    3.529877
     97          1           0       -3.026752   -5.385069    3.662846
     98          1           0       -1.734754   -6.312618    2.734690
     99          1           0        2.453008   -1.765841   -1.745471
    100          1           0        2.475690    0.153879   -2.054127
    101          1           0        4.381839   -0.803761    0.420350
    102          1           0        4.201189    1.314059   -2.951583
    103          1           0        5.298230    2.355071   -2.000139
    104          1           0        5.900178    0.782387   -2.878946
    105          1           0        6.754584    1.529883   -0.204797
    106          1           0        6.304864   -0.057126    0.640378
    107          1           0        7.051070   -1.063596   -1.238760
    108          1           0        7.846516    0.340699   -2.044976
    109          1           0        8.776703    1.136553    0.248930
    110          1           0        8.720909   -0.635448    0.722518
    111          1           0       10.011022    0.370088   -1.824726
    112          1           0        9.187783   -2.110173   -2.114788
    113          1           0       10.858710   -2.235344   -2.135857
    114          1           0       10.130535   -2.271456   -0.716274
    115          1           0       11.312396    0.953913    0.354564
    116          1           0       11.559765   -0.735625    0.759838
    117          1           0       12.576966   -1.340272   -1.096941
    118          1           0       12.781633    0.240906   -1.694124
    119          1           0       14.019796    0.891716    0.424109
    120          1           0       13.879692   -0.821225    1.095802
    121          1           0       15.224656    0.166939   -1.560525
    122          1           0       16.089448   -2.261164    0.023098
    123          1           0       14.837374   -2.440274   -1.361344
    124          1           0       16.854453   -1.844828   -1.503673
    125          1           0       15.916726    1.189402    0.587169
    126          1           0       16.409958   -0.423263    1.211587
    127          1           0       18.336309   -0.497312   -0.335299
    128          1           0       17.699125    0.843088   -1.266512
    129          1           0       18.576768    2.156359    0.885160
    130          1           0       18.776194    0.649743    1.773759
    131          1           0       20.763523    0.316131    0.030154
    132          1           0       20.161921    3.393174   -0.501929
    133          1           0       21.504818    2.436685   -1.065275
    134          1           0       19.919754    1.993325   -1.690971
    135          1           0       21.479006    0.839116    2.377706
    136          1           0       22.142334    2.043239    0.931419
    137          1           0       20.966187    2.605224    2.098312
 ---------------------------------------------------------------------

 SCF Done:  E(RCAM-B3LYP) =  -2932.61536719     A.U. after   16 cycles

 Excitation energies and oscillator strengths:

 Excited State   1:      Singlet-A      1.9165 eV  646.93 nm  f=0.3935  <S**2>=0.000
     240 -> 243        0.19729
     241 -> 242        0.67042
 This state for optimization and/or second-order correction.
 Total Energy, E(TD-HF/TD-KS) =  -2932.54493728
 Copying the excited state density for this state as the 1-particle RhoCI density.

 The electronic state is 1-A.
 Alpha  occ. eigenvalues --  -46.85230 -19.27187 -19.25640 -19.21644 -19.21414
 Alpha  occ. eigenvalues --  -19.19935 -14.41697 -14.40096 -14.39410 -14.38550
 Alpha  occ. eigenvalues --  -10.39471 -10.38648 -10.35702 -10.35027 -10.31071
 Alpha  occ. eigenvalues --  -10.30600 -10.30121 -10.29655 -10.29523 -10.29428
 Alpha  occ. eigenvalues --  -10.29316 -10.28818 -10.28567 -10.28466 -10.28375
 Alpha  occ. eigenvalues --  -10.28334 -10.28234 -10.27931 -10.27585 -10.27386
 Alpha  occ. eigenvalues --  -10.27311 -10.27289 -10.27240 -10.27224 -10.27091
 Alpha  occ. eigenvalues --  -10.27034 -10.27000 -10.26810 -10.26734 -10.26605
 Alpha  occ. eigenvalues --  -10.26538 -10.26439 -10.26192 -10.26081 -10.26072
 Alpha  occ. eigenvalues --  -10.26060 -10.26035 -10.26007 -10.25997 -10.25937
 Alpha  occ. eigenvalues --  -10.25913 -10.25791 -10.25771 -10.25717 -10.25523
 Alpha  occ. eigenvalues --  -10.25364 -10.25324 -10.25084 -10.24800 -10.24745
 Alpha  occ. eigenvalues --  -10.24613 -10.24519 -10.23818 -10.23438 -10.23108
 Alpha  occ. eigenvalues --   -3.14120  -1.88830  -1.88336  -1.88313  -1.18973
 Alpha  occ. eigenvalues --   -1.17769  -1.14413  -1.09762  -1.07041  -1.06155
 Alpha  occ. eigenvalues --   -1.04345  -1.02819  -1.00125  -0.91935  -0.91289
 Alpha  occ. eigenvalues --   -0.90592  -0.90379  -0.89711  -0.88974  -0.88755
 Alpha  occ. eigenvalues --   -0.88449  -0.87837  -0.87602  -0.87479  -0.86282
 Alpha  occ. eigenvalues --   -0.85317  -0.84077  -0.83124  -0.83089  -0.82601
 Alpha  occ. eigenvalues --   -0.81234  -0.80980  -0.80488  -0.79900  -0.78413
 Alpha  occ. eigenvalues --   -0.77176  -0.76663  -0.76049  -0.75691  -0.75418
 Alpha  occ. eigenvalues --   -0.74691  -0.74653  -0.74151  -0.73631  -0.72689
 Alpha  occ. eigenvalues --   -0.71503  -0.70080  -0.69875  -0.69165  -0.68609
 Alpha  occ. eigenvalues --   -0.67060  -0.66191  -0.65963  -0.65316  -0.65096
 Alpha  occ. eigenvalues --   -0.64331  -0.63953  -0.62365  -0.62083  -0.62057
 Alpha  occ. eigenvalues --   -0.61197  -0.60864  -0.60506  -0.59775  -0.58953
 Alpha  occ. eigenvalues --   -0.58397  -0.57944  -0.57375  -0.57236  -0.56868
 Alpha  occ. eigenvalues --   -0.56201  -0.55899  -0.55321  -0.54913  -0.54852
 Alpha  occ. eigenvalues --   -0.54467  -0.54203  -0.54039  -0.53862  -0.53536
 Alpha  occ. eigenvalues --   -0.53104  -0.53000  -0.52202  -0.51932  -0.51783
 Alpha  occ. eigenvalues --   -0.51639  -0.51553  -0.51198  -0.50969  -0.50747
 Alpha  occ. eigenvalues --   -0.50696  -0.50303  -0.50034  -0.49708  -0.49687
 Alpha  occ. eigenvalues --   -0.49368  -0.49133  -0.48840  -0.48712  -0.48533
 Alpha  occ. eigenvalues --   -0.48419  -0.47924  -0.47666  -0.47518  -0.47157
 Alpha  occ. eigenvalues --   -0.47010  -0.46691  -0.46259  -0.46194  -0.46126
 Alpha  occ. eigenvalues --   -0.45747  -0.45361  -0.45223  -0.45113  -0.44739
 Alpha  occ. eigenvalues --   -0.44648  -0.44505  -0.44365  -0.44312  -0.44130
 Alpha  occ. eigenvalues --   -0.43974  -0.43773  -0.43641  -0.43427  -0.43092
 Alpha  occ. eigenvalues --   -0.42821  -0.42677  -0.42563  -0.42499  -0.42303
 Alpha  occ. eigenvalues --   -0.42227  -0.42013  -0.41972  -0.41827  -0.41600
 Alpha  occ. eigenvalues --   -0.41522  -0.41331  -0.40824  -0.40382  -0.39946
 Alpha  occ. eigenvalues --   -0.39808  -0.39592  -0.39434  -0.39381  -0.39270
 Alpha  occ. eigenvalues --   -0.38667  -0.38159  -0.38105  -0.37631  -0.37527
 Alpha  occ. eigenvalues --   -0.37311  -0.37193  -0.36867  -0.36739  -0.36392
 Alpha  occ. eigenvalues --   -0.36350  -0.36229  -0.36167  -0.35484  -0.35191
 Alpha  occ. eigenvalues --   -0.35093  -0.34757  -0.34249  -0.34100  -0.33151
 Alpha  occ. eigenvalues --   -0.32624  -0.32360  -0.31914  -0.31397  -0.31166
 Alpha  occ. eigenvalues --   -0.30982  -0.29814  -0.27176  -0.26788  -0.23541
 Alpha  occ. eigenvalues --   -0.19995
 Alpha virt. eigenvalues --   -0.06549  -0.02458   0.01973   0.03846   0.05397
 Alpha virt. eigenvalues --    0.05938   0.06107   0.07001   0.07265   0.07793
 Alpha virt. eigenvalues --    0.08499   0.10630   0.11437   0.11483   0.11733

 Mulliken charges:
               1
     1  Mg   0.832350
     2  C    0.028425
     3  C   -0.215422
     4  C   -0.165736
     5  C   -0.136471
     6  N   -0.650260
     7  C    0.353469
     8  C   -0.132815
     9  C   -0.152324
    10  C    0.325089
    11  C   -0.281804
    12  C   -0.169770
    13  C   -0.255915
    14  C    0.580359
    15  O   -0.514804
    16  O   -0.447065
    17  N   -0.719285
    18  C    0.324053
    19  C    0.058034
    20  C    0.012749
    21  C    0.265997
    22  C   -0.399537
    23  C   -0.049564
    24  C   -0.265880
    25  N   -0.687873
    26  C    0.346989
    27  C   -0.037595
    28  C    0.022243
    29  C    0.292422
    30  C   -0.362001
    31  C   -0.237762
    32  C   -0.329689
    33  N   -0.702189
    34  C    0.172510
    35  C    0.057208
    36  C    0.034509
    37  C    0.308172
    38  C   -0.419652
    39  C    0.346297
    40  O   -0.409239
    41  C   -0.328397
    42  C    0.614358
    43  O   -0.462648
    44  O   -0.456218
    45  C   -0.076766
    46  C   -0.000475
    47  C   -0.143397
    48  C    0.120515
    49  C   -0.354971
    50  C   -0.217255
    51  C   -0.183424
    52  C   -0.172798
    53  C   -0.078026
    54  C   -0.333047
    55  C   -0.202215
    56  C   -0.165366
    57  C   -0.167993
    58  C   -0.059223
    59  C   -0.284323
    60  C   -0.179886
    61  C   -0.178159
    62  C   -0.156757
    63  C   -0.084128
    64  C   -0.314910
    65  C   -0.311345
    66  H    0.078914
    67  H    0.080512
    68  H    0.104339
    69  H    0.123469
    70  H    0.099543
    71  H    0.085903
    72  H    0.111609
    73  H    0.130626
    74  H    0.105461
    75  H    0.127193
    76  H    0.114288
    77  H    0.140561
    78  H    0.106976
    79  H    0.089527
    80  H    0.133198
    81  H    0.105259
    82  H    0.104288
    83  H    0.113284
    84  H    0.123957
    85  H    0.106982
    86  H    0.125107
    87  H    0.109387
    88  H    0.109623
    89  H    0.093348
    90  H    0.115880
    91  H    0.103098
    92  H    0.147853
    93  H    0.149008
    94  H    0.109717
    95  H    0.145646
    96  H    0.099632
    97  H    0.137242
    98  H    0.124778
    99  H    0.128089
   100  H    0.142729
   101  H    0.093367
   102  H    0.108241
   103  H    0.105139
   104  H    0.131070
   105  H    0.096927
   106  H    0.098897
   107  H    0.074083
   108  H    0.096641
   109  H    0.092485
   110  H    0.098671
   111  H    0.086134
   112  H    0.110540
   113  H    0.112286
   114  H    0.119229
   115  H    0.080736
   116  H    0.104483
   117  H    0.112752
   118  H    0.107004
   119  H    0.072804
   120  H    0.072973
   121  H    0.066548
   122  H    0.113225
   123  H    0.075246
   124  H    0.072184
   125  H    0.081273
   126  H    0.084943
   127  H    0.097991
   128  H    0.088281
   129  H    0.104191
   130  H    0.103606
   131  H    0.078306
   132  H    0.098867
   133  H    0.103184
   134  H    0.118027
   135  H    0.071960
   136  H    0.099444
   137  H    0.099863
 Sum of Mulliken charges =   0.00000

 Dipole moment (field-independent basis, Debye):
    X=              2.4325    Y=              3.5978    Z=              0.8738  Tot=              4.4300
 Quadrupole moment (field-independent basis, Debye-Ang):
   XX=           -358.8791   YY=           -385.5021   ZZ=           -400.4101
   XY=             -9.8149   XZ=              1.9918   YZ=              0.6575

 Normal termination of Gaussian 09 at Thu Jun 27 18:20:58 2019.
