 Gaussian 09, Revision D.01,
 Gaussian 09:  ES64L-G09RevD.01 24-Apr-2013

 -------------------------------------
 # td=(NStates=1) CAM-B3LYP/6-31G(d,p)
 -------------------------------------

 --
 TD
 --
 Symbolic Z-matrix:
 Charge =  0 Multiplicity = 1

                         Standard orientation:
 ---------------------------------------------------------------------
 Center     Atomic      Atomic             Coordinates (Angstroms)
 Number     Number       Type             X           Y           Z
 ---------------------------------------------------------------------
      1         12           0       -7.108409    0.658986    0.034277
      2          6           0       -4.790692   -1.922077    0.385317
      3          6           0       -4.696795    2.825221    1.103248
      4          6           0       -9.290755    3.159025   -0.481605
      5          6           0       -9.505267   -1.750882   -0.638532
      6          7           0       -5.023032    0.522057    0.508992
      7          6           0       -4.324641   -0.625064    0.754060
      8          6           0       -2.879888   -0.344719    1.095555
      9          6           0       -2.955402    1.125748    1.554588
     10          6           0       -4.364100    1.559084    1.040237
     11          6           0       -2.840574    1.276610    3.220205
     12          6           0       -1.890668   -0.627320   -0.075836
     13          6           0       -0.498846   -0.383868    0.453824
     14          6           0        0.436161   -0.751495   -0.731215
     15          8           0        0.307944   -1.092056   -1.899063
     16          8           0        1.686281   -0.515926   -0.114724
     17          7           0       -7.008160    2.591408    0.272725
     18          6           0       -6.038947    3.361498    0.801515
     19          6           0       -6.392303    4.756313    0.975198
     20          6           0       -7.671809    4.903957    0.421578
     21          6           0       -8.069126    3.486461    0.057008
     22          6           0       -5.447798    5.838317    1.401216
     23          6           0       -8.524080    5.977740    0.312572
     24          6           0       -8.190144    7.227853    0.115773
     25          7           0       -9.089118    0.657390   -0.578519
     26          6           0       -9.802841    1.864615   -0.756232
     27          6           0      -11.172108    1.506297   -1.167419
     28          6           0      -11.227430    0.064684   -1.105487
     29          6           0       -9.981528   -0.471866   -0.737167
     30          6           0      -12.268377    2.417448   -1.389380
     31          6           0      -12.414422   -0.685794   -1.577619
     32          6           0      -12.262403   -1.051304   -3.115959
     33          7           0       -7.276190   -1.364443   -0.066637
     34          6           0       -8.251593   -2.236777   -0.378259
     35          6           0       -7.865058   -3.578030   -0.362085
     36          6           0       -6.483585   -3.578456   -0.130990
     37          6           0       -6.128337   -2.158252    0.015924
     38          6           0       -8.774689   -4.757226   -0.693123
     39          6           0       -5.282368   -4.406516    0.221106
     40          8           0       -5.044570   -5.530804    0.118390
     41          6           0       -4.198212   -3.319470    0.425644
     42          6           0       -3.533645   -3.644250    1.851802
     43          8           0       -3.785545   -3.041357    2.875332
     44          8           0       -2.611829   -4.663124    1.725403
     45          6           0       -2.218221   -5.310175    2.923834
     46          6           0        2.802185   -0.823699   -1.101591
     47          6           0        4.067253   -0.570109   -0.482694
     48          6           0        5.027304    0.258491   -0.846612
     49          6           0        5.095808    1.139235   -2.089414
     50          6           0        6.317893    0.317875   -0.074218
     51          6           0        7.562562   -0.271081   -0.830186
     52          6           0        8.814179   -0.292918   -0.028689
     53          6           0       10.149027   -0.712020   -0.806083
     54          6           0       10.021749   -2.127195   -1.367585
     55          6           0       11.449858   -0.335715    0.039554
     56          6           0       12.761857   -0.360739   -0.802477
     57          6           0       13.824296   -0.062057    0.109053
     58          6           0       15.314660   -0.133372   -0.465651
     59          6           0       15.558685   -1.624609   -1.050957
     60          6           0       16.424011    0.417839    0.395223
     61          6           0       17.780939    0.597872   -0.316618
     62          6           0       18.764074    1.316536    0.727956
     63          6           0       20.186721    1.392626    0.268724
     64          6           0       20.321715    2.156013   -1.013155
     65          6           0       21.039472    2.058384    1.471238
     66          1           0       -4.034911    3.409511    1.469069
     67          1           0      -10.084650    4.000777   -0.384854
     68          1           0      -10.312709   -2.473876   -0.674317
     69          1           0       -2.462863   -1.110057    1.878874
     70          1           0       -2.040539    1.727574    1.021165
     71          1           0       -1.703618    0.984148    3.490724
     72          1           0       -3.275937    2.224521    3.530828
     73          1           0       -3.476933    0.635206    3.770646
     74          1           0       -1.942475   -1.728129   -0.282602
     75          1           0       -2.279166   -0.116676   -1.000648
     76          1           0       -0.142616    0.690153    0.709735
     77          1           0       -0.258170   -1.000848    1.353260
     78          1           0       -5.021966    6.305979    0.568230
     79          1           0       -6.014418    6.846967    1.674491
     80          1           0       -4.931090    5.593022    2.415204
     81          1           0       -9.634516    5.871508    0.533031
     82          1           0       -8.863850    8.079591    0.109549
     83          1           0       -7.218028    7.380178   -0.131321
     84          1           0      -12.030788    2.755642   -2.484658
     85          1           0      -13.186696    2.192077   -1.247933
     86          1           0      -12.370248    3.436538   -0.695129
     87          1           0      -12.505143   -1.609121   -1.050377
     88          1           0      -13.307709   -0.132322   -1.488911
     89          1           0      -13.207626   -1.498342   -3.352322
     90          1           0      -12.293649   -0.029827   -3.671253
     91          1           0      -11.542916   -1.770289   -3.455457
     92          1           0       -9.179286   -4.609584   -1.619019
     93          1           0       -8.363675   -5.661669   -0.604476
     94          1           0       -9.507959   -4.896896    0.018972
     95          1           0       -3.313570   -3.728339   -0.243212
     96          1           0       -1.938675   -4.431001    3.688092
     97          1           0       -2.950917   -5.922936    3.348104
     98          1           0       -1.333930   -5.842446    2.691669
     99          1           0        2.796982   -1.966608   -1.397560
    100          1           0        2.499885   -0.165110   -2.033910
    101          1           0        4.206549   -1.200683    0.447825
    102          1           0        4.133530    1.066164   -2.492312
    103          1           0        5.284643    2.177409   -2.087254
    104          1           0        5.798699    0.687518   -3.045382
    105          1           0        6.527510    1.333238    0.221838
    106          1           0        6.093480   -0.176109    0.934895
    107          1           0        7.236928   -1.310198   -0.948806
    108          1           0        7.952044    0.184304   -1.735264
    109          1           0        9.001428    0.746333    0.422381
    110          1           0        8.803005   -0.868028    1.028578
    111          1           0       10.323206   -0.025140   -1.524540
    112          1           0        9.277820   -2.306711   -2.154419
    113          1           0       10.977887   -2.036263   -2.014355
    114          1           0       10.084365   -2.861640   -0.681586
    115          1           0       11.017579    0.626861    0.443368
    116          1           0       11.466303   -1.059657    0.941035
    117          1           0       12.722943   -1.427738   -1.169369
    118          1           0       12.574232    0.168963   -1.697751
    119          1           0       13.532468    0.940037    0.441083
    120          1           0       13.762413   -0.700845    1.099355
    121          1           0       15.383715    0.561617   -1.338434
    122          1           0       15.584536   -2.520931   -0.205577
    123          1           0       15.018383   -1.933196   -1.922517
    124          1           0       16.708234   -1.781965   -1.385923
    125          1           0       16.216308    1.568482    0.709237
    126          1           0       16.629462   -0.095339    1.294451
    127          1           0       18.223999   -0.345578   -0.385005
    128          1           0       17.728754    1.288178   -1.323812
    129          1           0       18.406448    2.389185    0.736489
    130          1           0       18.570599    0.848694    1.777074
    131          1           0       20.452134    0.481385    0.192293
    132          1           0       19.656648    3.219510   -1.088496
    133          1           0       21.456096    2.176795   -1.146312
    134          1           0       19.710456    1.639882   -1.764591
    135          1           0       21.081631    1.437272    2.292945
    136          1           0       22.124807    2.110771    1.085481
    137          1           0       20.460746    3.019406    1.429068
 ---------------------------------------------------------------------

 SCF Done:  E(RCAM-B3LYP) =  -2932.64143963     A.U. after   18 cycles

 Excitation energies and oscillator strengths:

 Excited State   1:      Singlet-A      2.0564 eV  602.92 nm  f=0.2649  <S**2>=0.000
     240 -> 242       -0.13427
     240 -> 243        0.23231
     241 -> 242        0.63993
     241 -> 243        0.10634
 This state for optimization and/or second-order correction.
 Total Energy, E(TD-HF/TD-KS) =  -2932.56586803
 Copying the excited state density for this state as the 1-particle RhoCI density.

 The electronic state is 1-A.
 Alpha  occ. eigenvalues --  -46.83439 -19.26085 -19.24995 -19.22391 -19.21378
 Alpha  occ. eigenvalues --  -19.20760 -14.41174 -14.40365 -14.38655 -14.38430
 Alpha  occ. eigenvalues --  -10.39577 -10.39559 -10.34927 -10.32314 -10.31067
 Alpha  occ. eigenvalues --  -10.30917 -10.30891 -10.29844 -10.29568 -10.29080
 Alpha  occ. eigenvalues --  -10.28987 -10.28965 -10.28955 -10.28848 -10.28016
 Alpha  occ. eigenvalues --  -10.27934 -10.27821 -10.27814 -10.27727 -10.27633
 Alpha  occ. eigenvalues --  -10.27564 -10.27344 -10.27229 -10.27125 -10.27014
 Alpha  occ. eigenvalues --  -10.27008 -10.26858 -10.26810 -10.26770 -10.26726
 Alpha  occ. eigenvalues --  -10.26265 -10.26235 -10.26227 -10.26146 -10.25888
 Alpha  occ. eigenvalues --  -10.25853 -10.25816 -10.25771 -10.25723 -10.25709
 Alpha  occ. eigenvalues --  -10.25608 -10.25590 -10.25472 -10.25455 -10.25365
 Alpha  occ. eigenvalues --  -10.25314 -10.25207 -10.25149 -10.25120 -10.25004
 Alpha  occ. eigenvalues --  -10.24667 -10.23987 -10.23943 -10.23675 -10.23610
 Alpha  occ. eigenvalues --   -3.12609  -1.87302  -1.86887  -1.86766  -1.17280
 Alpha  occ. eigenvalues --   -1.15564  -1.14893  -1.09386  -1.07832  -1.04551
 Alpha  occ. eigenvalues --   -1.03410  -1.03040  -0.99319  -0.91958  -0.91169
 Alpha  occ. eigenvalues --   -0.90975  -0.90447  -0.89837  -0.89583  -0.88660
 Alpha  occ. eigenvalues --   -0.87831  -0.87440  -0.87160  -0.87055  -0.85605
 Alpha  occ. eigenvalues --   -0.85054  -0.84277  -0.83415  -0.83061  -0.82755
 Alpha  occ. eigenvalues --   -0.81047  -0.80489  -0.80116  -0.79386  -0.78571
 Alpha  occ. eigenvalues --   -0.77593  -0.76874  -0.76172  -0.75833  -0.75175
 Alpha  occ. eigenvalues --   -0.75004  -0.74604  -0.73583  -0.72868  -0.72088
 Alpha  occ. eigenvalues --   -0.71150  -0.70151  -0.69589  -0.69029  -0.68370
 Alpha  occ. eigenvalues --   -0.67560  -0.66284  -0.65121  -0.64380  -0.64072
 Alpha  occ. eigenvalues --   -0.63306  -0.63157  -0.63010  -0.61942  -0.61940
 Alpha  occ. eigenvalues --   -0.61664  -0.60727  -0.60331  -0.59883  -0.58805
 Alpha  occ. eigenvalues --   -0.58448  -0.57771  -0.57321  -0.56052  -0.55743
 Alpha  occ. eigenvalues --   -0.55631  -0.55085  -0.54738  -0.54589  -0.54555
 Alpha  occ. eigenvalues --   -0.54056  -0.54010  -0.53749  -0.53525  -0.53479
 Alpha  occ. eigenvalues --   -0.53008  -0.52780  -0.52410  -0.52361  -0.51935
 Alpha  occ. eigenvalues --   -0.51804  -0.51468  -0.51337  -0.51061  -0.50775
 Alpha  occ. eigenvalues --   -0.50513  -0.50329  -0.50143  -0.49906  -0.49762
 Alpha  occ. eigenvalues --   -0.49423  -0.49059  -0.48609  -0.48483  -0.48271
 Alpha  occ. eigenvalues --   -0.48142  -0.47703  -0.47623  -0.47357  -0.47199
 Alpha  occ. eigenvalues --   -0.46749  -0.46664  -0.46186  -0.46077  -0.45993
 Alpha  occ. eigenvalues --   -0.45630  -0.45460  -0.45183  -0.45059  -0.44959
 Alpha  occ. eigenvalues --   -0.44711  -0.44408  -0.44258  -0.44140  -0.43934
 Alpha  occ. eigenvalues --   -0.43748  -0.43492  -0.43201  -0.43164  -0.42965
 Alpha  occ. eigenvalues --   -0.42611  -0.42547  -0.42422  -0.42229  -0.41952
 Alpha  occ. eigenvalues --   -0.41817  -0.41775  -0.41528  -0.41306  -0.40993
 Alpha  occ. eigenvalues --   -0.40821  -0.40577  -0.40559  -0.40501  -0.40316
 Alpha  occ. eigenvalues --   -0.40124  -0.39884  -0.39471  -0.39457  -0.38646
 Alpha  occ. eigenvalues --   -0.38616  -0.38340  -0.38120  -0.37927  -0.37681
 Alpha  occ. eigenvalues --   -0.37527  -0.37307  -0.36799  -0.36690  -0.36496
 Alpha  occ. eigenvalues --   -0.36341  -0.36024  -0.35710  -0.35635  -0.35462
 Alpha  occ. eigenvalues --   -0.35068  -0.34665  -0.34147  -0.33859  -0.33563
 Alpha  occ. eigenvalues --   -0.33069  -0.32875  -0.31637  -0.30967  -0.29999
 Alpha  occ. eigenvalues --   -0.29979  -0.29211  -0.28395  -0.25917  -0.23384
 Alpha  occ. eigenvalues --   -0.20879
 Alpha virt. eigenvalues --   -0.06243  -0.03254   0.01734   0.04363   0.05478
 Alpha virt. eigenvalues --    0.05780   0.06010   0.06747   0.06815   0.07599
 Alpha virt. eigenvalues --    0.08264   0.10574   0.11057   0.11586   0.11772

 Mulliken charges:
               1
     1  Mg   0.815321
     2  C    0.077111
     3  C   -0.160415
     4  C   -0.169974
     5  C   -0.193168
     6  N   -0.642382
     7  C    0.303333
     8  C   -0.146504
     9  C   -0.151670
    10  C    0.378329
    11  C   -0.313291
    12  C   -0.174930
    13  C   -0.256726
    14  C    0.624875
    15  O   -0.471112
    16  O   -0.519115
    17  N   -0.709184
    18  C    0.301033
    19  C    0.027139
    20  C    0.044989
    21  C    0.289864
    22  C   -0.389093
    23  C   -0.091974
    24  C   -0.236206
    25  N   -0.704554
    26  C    0.280621
    27  C    0.022859
    28  C    0.008527
    29  C    0.305461
    30  C   -0.356134
    31  C   -0.241954
    32  C   -0.311109
    33  N   -0.699702
    34  C    0.317092
    35  C    0.010467
    36  C   -0.056612
    37  C    0.238338
    38  C   -0.355045
    39  C    0.393119
    40  O   -0.400000
    41  C   -0.346903
    42  C    0.597143
    43  O   -0.457330
    44  O   -0.458874
    45  C   -0.083324
    46  C    0.004039
    47  C   -0.117498
    48  C    0.126113
    49  C   -0.354399
    50  C   -0.233736
    51  C   -0.154451
    52  C   -0.182168
    53  C   -0.083462
    54  C   -0.300829
    55  C   -0.194848
    56  C   -0.172604
    57  C   -0.160599
    58  C   -0.042366
    59  C   -0.319564
    60  C   -0.172192
    61  C   -0.178265
    62  C   -0.176240
    63  C   -0.062690
    64  C   -0.295353
    65  C   -0.300838
    66  H    0.051478
    67  H    0.095394
    68  H    0.086089
    69  H    0.106828
    70  H    0.086721
    71  H    0.095124
    72  H    0.108673
    73  H    0.136316
    74  H    0.122012
    75  H    0.125458
    76  H    0.144238
    77  H    0.149690
    78  H    0.149118
    79  H    0.100821
    80  H    0.122023
    81  H    0.098375
    82  H    0.108396
    83  H    0.091061
    84  H    0.116508
    85  H    0.125746
    86  H    0.080130
    87  H    0.101893
    88  H    0.107536
    89  H    0.102676
    90  H    0.097898
    91  H    0.118802
    92  H    0.133619
    93  H    0.137839
    94  H    0.125075
    95  H    0.157235
    96  H    0.109569
    97  H    0.138201
    98  H    0.127947
    99  H    0.115864
   100  H    0.123940
   101  H    0.096077
   102  H    0.110429
   103  H    0.128325
   104  H    0.088285
   105  H    0.100646
   106  H    0.087203
   107  H    0.105158
   108  H    0.102424
   109  H    0.067213
   110  H    0.061158
   111  H    0.093091
   112  H    0.107171
   113  H    0.080147
   114  H    0.116606
   115  H    0.089493
   116  H    0.080930
   117  H    0.099790
   118  H    0.102161
   119  H    0.095129
   120  H    0.083924
   121  H    0.082403
   122  H    0.076718
   123  H    0.121146
   124  H    0.078328
   125  H    0.070646
   126  H    0.096271
   127  H    0.106973
   128  H    0.075166
   129  H    0.076941
   130  H    0.076640
   131  H    0.095680
   132  H    0.069555
   133  H    0.102354
   134  H    0.112099
   135  H    0.111485
   136  H    0.079367
   137  H    0.108189
 Sum of Mulliken charges =   0.00000

 Dipole moment (field-independent basis, Debye):
    X=              0.1953    Y=              3.8421    Z=              0.8074  Tot=              3.9309
 Quadrupole moment (field-independent basis, Debye-Ang):
   XX=           -337.6020   YY=           -379.9249   ZZ=           -399.8492
   XY=            -30.5193   XZ=             -1.4950   YZ=             -5.8726

 Normal termination of Gaussian 09 at Thu Jun 27 20:12:03 2019.
