 Gaussian 09, Revision D.01,
 Gaussian 09:  ES64L-G09RevD.01 24-Apr-2013

 -------------------------------------
 # td=(NStates=1) CAM-B3LYP/6-31G(d,p)
 -------------------------------------

 --
 TD
 --
 Symbolic Z-matrix:
 Charge =  0 Multiplicity = 1

                         Standard orientation:
 ---------------------------------------------------------------------
 Center     Atomic      Atomic             Coordinates (Angstroms)
 Number     Number       Type             X           Y           Z
 ---------------------------------------------------------------------
      1         12           0       -7.129257    0.578026    0.114167
      2          6           0       -4.835913   -1.973208    0.507769
      3          6           0       -4.821352    2.822019    1.133030
      4          6           0       -9.331398    3.048765   -0.177815
      5          6           0       -9.626868   -1.693083   -0.867044
      6          7           0       -5.167156    0.407515    0.847120
      7          6           0       -4.396199   -0.671406    0.825755
      8          6           0       -2.865132   -0.429642    1.227894
      9          6           0       -3.046353    1.104993    1.746946
     10          6           0       -4.458946    1.464451    1.173479
     11          6           0       -3.015243    1.231154    3.133979
     12          6           0       -1.896039   -0.669214    0.135619
     13          6           0       -0.445051   -0.590257    0.569300
     14          6           0        0.524416   -0.673263   -0.569069
     15          8           0        0.297540   -0.923479   -1.735357
     16          8           0        1.764434   -0.453658   -0.215622
     17          7           0       -7.090592    2.616941    0.417905
     18          6           0       -6.040030    3.410157    0.761426
     19          6           0       -6.456089    4.765646    0.806589
     20          6           0       -7.696749    4.901290    0.374473
     21          6           0       -8.085291    3.419324    0.124101
     22          6           0       -5.489374    5.810883    1.302092
     23          6           0       -8.622984    5.955691    0.177593
     24          6           0       -8.224187    7.202472   -0.062400
     25          7           0       -9.115824    0.668158   -0.465398
     26          6           0       -9.887421    1.812027   -0.574914
     27          6           0      -11.156297    1.473356   -1.053912
     28          6           0      -11.186880    0.046971   -1.180180
     29          6           0       -9.987727   -0.387378   -0.750588
     30          6           0      -12.224937    2.460657   -1.181303
     31          6           0      -12.355240   -0.716064   -1.733126
     32          6           0      -12.158418   -1.137649   -3.236691
     33          7           0       -7.257693   -1.395247   -0.244475
     34          6           0       -8.304182   -2.181870   -0.605227
     35          6           0       -7.815756   -3.533011   -0.513383
     36          6           0       -6.483494   -3.483467   -0.114567
     37          6           0       -6.163257   -2.177686    0.008217
     38          6           0       -8.571542   -4.797174   -0.856191
     39          6           0       -5.380703   -4.255978    0.112381
     40          8           0       -5.293792   -5.517469    0.158192
     41          6           0       -4.178300   -3.331794    0.448334
     42          6           0       -3.517002   -3.681383    1.783681
     43          8           0       -3.788034   -3.220383    2.908691
     44          8           0       -2.681093   -4.755771    1.678731
     45          6           0       -2.115918   -5.184236    2.899185
     46          6           0        2.830507   -0.587951   -1.154372
     47          6           0        4.190543   -0.369809   -0.600391
     48          6           0        5.172769    0.333277   -1.051721
     49          6           0        5.083013    1.206485   -2.251864
     50          6           0        6.436798    0.523274   -0.297363
     51          6           0        7.629300   -0.168647   -1.024811
     52          6           0        8.917598   -0.020607   -0.200587
     53          6           0       10.220079   -0.580683   -0.896624
     54          6           0       10.097122   -1.983411   -1.333645
     55          6           0       11.394360   -0.281857   -0.088064
     56          6           0       12.768834   -0.491848   -0.724934
     57          6           0       13.929723   -0.193539    0.177480
     58          6           0       15.368017   -0.242370   -0.492208
     59          6           0       15.667328   -1.562169   -0.950533
     60          6           0       16.465965    0.302528    0.466491
     61          6           0       17.809392    0.560979   -0.145849
     62          6           0       18.705607    1.297178    0.807288
     63          6           0       20.125969    1.241997    0.298968
     64          6           0       20.276105    2.100702   -0.988123
     65          6           0       21.033537    1.996527    1.434459
     66          1           0       -4.196308    3.582047    1.606541
     67          1           0      -10.115829    3.782278   -0.192502
     68          1           0      -10.510442   -2.360999   -0.912342
     69          1           0       -2.542128   -0.984012    2.198023
     70          1           0       -2.174660    1.909167    1.356644
     71          1           0       -1.966614    0.981055    3.570550
     72          1           0       -3.243304    2.195569    3.683908
     73          1           0       -3.554862    0.569573    3.716528
     74          1           0       -2.131342   -1.670437   -0.315970
     75          1           0       -2.075424    0.083645   -0.569254
     76          1           0       -0.161718    0.261823    1.086935
     77          1           0       -0.151005   -1.260473    1.360417
     78          1           0       -4.817630    6.090485    0.473317
     79          1           0       -5.878395    6.713070    1.778737
     80          1           0       -4.782230    5.273598    2.103804
     81          1           0       -9.665149    5.798431    0.267597
     82          1           0       -8.981722    8.160667   -0.089024
     83          1           0       -7.189593    7.351476   -0.100859
     84          1           0      -12.120795    3.271164   -1.944612
     85          1           0      -13.388521    2.148306   -1.218045
     86          1           0      -12.286409    3.042744   -0.321695
     87          1           0      -12.343618   -1.699345   -1.142298
     88          1           0      -13.399402   -0.328438   -1.619255
     89          1           0      -13.077176   -1.664374   -3.398078
     90          1           0      -12.233523   -0.202765   -3.840915
     91          1           0      -11.276932   -1.819597   -3.280730
     92          1           0       -8.970468   -4.662665   -1.845535
     93          1           0       -7.971333   -5.758536   -0.631894
     94          1           0       -9.470617   -4.954619   -0.318716
     95          1           0       -3.377470   -3.609300   -0.475509
     96          1           0       -1.207204   -4.475500    3.265849
     97          1           0       -3.005108   -5.288294    3.465920
     98          1           0       -1.673734   -6.242133    2.776652
     99          1           0        2.752028   -1.738022   -1.413590
    100          1           0        2.643337   -0.157859   -1.999822
    101          1           0        4.450395   -1.084165    0.239596
    102          1           0        4.074612    1.101032   -2.634955
    103          1           0        5.472541    2.327550   -2.125698
    104          1           0        5.601320    0.732264   -3.094839
    105          1           0        6.621043    1.656396   -0.288451
    106          1           0        6.266477    0.302245    0.949347
    107          1           0        7.258055   -1.053144   -1.182343
    108          1           0        7.782299    0.346994   -1.925372
    109          1           0        9.104412    0.954772   -0.009899
    110          1           0        8.625696   -0.483992    0.650631
    111          1           0       10.352543    0.106372   -1.676800
    112          1           0        9.215789   -2.208521   -2.073361
    113          1           0       11.176345   -2.237697   -1.742733
    114          1           0        9.639466   -2.937374   -0.488921
    115          1           0       11.357485    0.756683    0.189699
    116          1           0       11.466705   -0.998543    0.846948
    117          1           0       12.893819   -1.404967   -1.029616
    118          1           0       13.072310    0.114213   -1.684286
    119          1           0       13.886167    0.916022    0.362429
    120          1           0       13.975400   -0.735074    1.087828
    121          1           0       15.341938    0.398112   -1.392841
    122          1           0       15.560576   -2.234956   -0.036567
    123          1           0       15.209509   -1.772378   -1.758607
    124          1           0       16.651760   -1.736073   -1.189736
    125          1           0       16.135177    1.433371    0.772206
    126          1           0       16.625585   -0.344109    1.402444
    127          1           0       18.269401   -0.375233   -0.751607
    128          1           0       17.563884    1.256540   -1.037951
    129          1           0       18.307671    2.205019    1.119783
    130          1           0       18.593375    0.708940    1.761510
    131          1           0       20.294856    0.202681   -0.032146
    132          1           0       19.814666    3.115126   -0.637112
    133          1           0       21.189024    1.964753   -1.301982
    134          1           0       19.725159    1.909870   -1.902035
    135          1           0       21.155577    1.185381    2.328774
    136          1           0       22.089616    2.107358    1.043927
    137          1           0       20.461904    2.762120    1.994621
 ---------------------------------------------------------------------

 SCF Done:  E(RCAM-B3LYP) =  -2932.65353689     A.U. after   17 cycles

 Excitation energies and oscillator strengths:

 Excited State   1:      Singlet-A      2.2023 eV  562.97 nm  f=0.1599  <S**2>=0.000
     240 -> 242       -0.20227
     240 -> 243       -0.28549
     241 -> 242        0.58926
     241 -> 243       -0.14518
 This state for optimization and/or second-order correction.
 Total Energy, E(TD-HF/TD-KS) =  -2932.57260264
 Copying the excited state density for this state as the 1-particle RhoCI density.

 The electronic state is 1-A.
 Alpha  occ. eigenvalues --  -46.84428 -19.25664 -19.25589 -19.20582 -19.19372
 Alpha  occ. eigenvalues --  -19.18635 -14.42636 -14.39717 -14.38969 -14.38233
 Alpha  occ. eigenvalues --  -10.39523 -10.38383 -10.33748 -10.31880 -10.31450
 Alpha  occ. eigenvalues --  -10.31374 -10.31278 -10.30373 -10.30254 -10.29380
 Alpha  occ. eigenvalues --  -10.28972 -10.28874 -10.28526 -10.28522 -10.28486
 Alpha  occ. eigenvalues --  -10.28160 -10.28003 -10.27781 -10.27699 -10.27644
 Alpha  occ. eigenvalues --  -10.27583 -10.27511 -10.27405 -10.27382 -10.27366
 Alpha  occ. eigenvalues --  -10.27334 -10.27299 -10.26909 -10.26651 -10.26555
 Alpha  occ. eigenvalues --  -10.26440 -10.26416 -10.26301 -10.26158 -10.26121
 Alpha  occ. eigenvalues --  -10.25995 -10.25951 -10.25851 -10.25801 -10.25677
 Alpha  occ. eigenvalues --  -10.25660 -10.25659 -10.25245 -10.25176 -10.25111
 Alpha  occ. eigenvalues --  -10.25107 -10.25014 -10.24306 -10.24123 -10.24061
 Alpha  occ. eigenvalues --  -10.24011 -10.23377 -10.23371 -10.23208 -10.21668
 Alpha  occ. eigenvalues --   -3.13488  -1.88196  -1.87734  -1.87655  -1.19372
 Alpha  occ. eigenvalues --   -1.17419  -1.07987  -1.07631  -1.07329  -1.06563
 Alpha  occ. eigenvalues --   -1.05655  -1.04084  -1.02441  -0.93435  -0.92543
 Alpha  occ. eigenvalues --   -0.91651  -0.91169  -0.91003  -0.90550  -0.90103
 Alpha  occ. eigenvalues --   -0.88832  -0.88719  -0.87730  -0.87327  -0.86590
 Alpha  occ. eigenvalues --   -0.86081  -0.84964  -0.83973  -0.83689  -0.83286
 Alpha  occ. eigenvalues --   -0.82581  -0.81661  -0.81298  -0.80787  -0.78913
 Alpha  occ. eigenvalues --   -0.78225  -0.77803  -0.76314  -0.76111  -0.75797
 Alpha  occ. eigenvalues --   -0.75133  -0.75088  -0.74370  -0.73855  -0.72699
 Alpha  occ. eigenvalues --   -0.71704  -0.70980  -0.69796  -0.69466  -0.69110
 Alpha  occ. eigenvalues --   -0.67909  -0.67470  -0.65465  -0.65264  -0.64520
 Alpha  occ. eigenvalues --   -0.64223  -0.64003  -0.63752  -0.63026  -0.61981
 Alpha  occ. eigenvalues --   -0.61813  -0.61678  -0.60702  -0.60515  -0.59478
 Alpha  occ. eigenvalues --   -0.59009  -0.58635  -0.57685  -0.57269  -0.56802
 Alpha  occ. eigenvalues --   -0.56311  -0.56187  -0.55760  -0.55373  -0.55251
 Alpha  occ. eigenvalues --   -0.55175  -0.54494  -0.54265  -0.53826  -0.53482
 Alpha  occ. eigenvalues --   -0.53158  -0.53130  -0.52729  -0.52481  -0.52361
 Alpha  occ. eigenvalues --   -0.51969  -0.51584  -0.51402  -0.51207  -0.50855
 Alpha  occ. eigenvalues --   -0.50744  -0.50430  -0.50256  -0.50216  -0.50126
 Alpha  occ. eigenvalues --   -0.49623  -0.49136  -0.48961  -0.48669  -0.48565
 Alpha  occ. eigenvalues --   -0.48397  -0.48296  -0.47889  -0.47845  -0.47716
 Alpha  occ. eigenvalues --   -0.47101  -0.46983  -0.46883  -0.46610  -0.46232
 Alpha  occ. eigenvalues --   -0.46040  -0.45914  -0.45384  -0.45192  -0.45047
 Alpha  occ. eigenvalues --   -0.44800  -0.44493  -0.44361  -0.44133  -0.44033
 Alpha  occ. eigenvalues --   -0.43639  -0.43537  -0.43401  -0.43335  -0.42996
 Alpha  occ. eigenvalues --   -0.42844  -0.42574  -0.42520  -0.42168  -0.41984
 Alpha  occ. eigenvalues --   -0.41922  -0.41745  -0.41679  -0.41544  -0.41292
 Alpha  occ. eigenvalues --   -0.41103  -0.40919  -0.40713  -0.40598  -0.40510
 Alpha  occ. eigenvalues --   -0.40366  -0.39809  -0.39270  -0.39194  -0.38799
 Alpha  occ. eigenvalues --   -0.38761  -0.38476  -0.38442  -0.38192  -0.38110
 Alpha  occ. eigenvalues --   -0.37826  -0.37347  -0.37338  -0.37083  -0.36694
 Alpha  occ. eigenvalues --   -0.36170  -0.35936  -0.35807  -0.35488  -0.35386
 Alpha  occ. eigenvalues --   -0.35331  -0.34907  -0.34535  -0.33547  -0.33332
 Alpha  occ. eigenvalues --   -0.33185  -0.32878  -0.32750  -0.31642  -0.30188
 Alpha  occ. eigenvalues --   -0.29358  -0.29015  -0.28773  -0.26996  -0.23237
 Alpha  occ. eigenvalues --   -0.22003
 Alpha virt. eigenvalues --   -0.06318  -0.03951   0.01249   0.03244   0.05028
 Alpha virt. eigenvalues --    0.05841   0.06237   0.06464   0.07195   0.07484
 Alpha virt. eigenvalues --    0.08325   0.10437   0.11140   0.11824   0.12161

 Mulliken charges:
               1
     1  Mg   0.814367
     2  C    0.074088
     3  C   -0.222018
     4  C   -0.193364
     5  C   -0.157775
     6  N   -0.626455
     7  C    0.288130
     8  C   -0.164513
     9  C   -0.126056
    10  C    0.353687
    11  C   -0.312397
    12  C   -0.141749
    13  C   -0.281391
    14  C    0.596384
    15  O   -0.495569
    16  O   -0.465684
    17  N   -0.690370
    18  C    0.328878
    19  C    0.012301
    20  C    0.046765
    21  C    0.325928
    22  C   -0.377395
    23  C   -0.058771
    24  C   -0.244186
    25  N   -0.706577
    26  C    0.298335
    27  C    0.028162
    28  C    0.054275
    29  C    0.306353
    30  C   -0.406093
    31  C   -0.264201
    32  C   -0.298082
    33  N   -0.754307
    34  C    0.281114
    35  C   -0.023145
    36  C    0.125904
    37  C    0.267755
    38  C   -0.387931
    39  C    0.308121
    40  O   -0.506079
    41  C   -0.324845
    42  C    0.644385
    43  O   -0.493734
    44  O   -0.448646
    45  C   -0.068218
    46  C    0.043272
    47  C   -0.143406
    48  C    0.147492
    49  C   -0.364293
    50  C   -0.235056
    51  C   -0.178894
    52  C   -0.168606
    53  C   -0.043244
    54  C   -0.284537
    55  C   -0.160600
    56  C   -0.183715
    57  C   -0.166721
    58  C   -0.083256
    59  C   -0.276080
    60  C   -0.164056
    61  C   -0.169482
    62  C   -0.158760
    63  C   -0.068900
    64  C   -0.290986
    65  C   -0.313789
    66  H    0.070856
    67  H    0.068093
    68  H    0.106587
    69  H    0.119590
    70  H    0.080198
    71  H    0.088433
    72  H    0.105717
    73  H    0.138578
    74  H    0.121546
    75  H    0.124817
    76  H    0.142375
    77  H    0.140035
    78  H    0.132426
    79  H    0.127696
    80  H    0.099342
    81  H    0.106368
    82  H    0.099321
    83  H    0.104702
    84  H    0.115458
    85  H    0.094679
    86  H    0.131227
    87  H    0.089201
    88  H    0.109662
    89  H    0.110066
    90  H    0.117643
    91  H    0.113339
    92  H    0.123604
    93  H    0.147871
    94  H    0.122710
    95  H    0.155409
    96  H    0.099161
    97  H    0.146628
    98  H    0.114621
    99  H    0.100691
   100  H    0.124168
   101  H    0.082688
   102  H    0.109386
   103  H    0.107027
   104  H    0.125469
   105  H    0.090295
   106  H    0.067300
   107  H    0.110729
   108  H    0.101427
   109  H    0.090500
   110  H    0.102379
   111  H    0.096803
   112  H    0.100017
   113  H    0.094821
   114  H    0.049790
   115  H    0.091327
   116  H    0.076794
   117  H    0.110707
   118  H    0.063783
   119  H    0.079186
   120  H    0.090877
   121  H    0.072719
   122  H    0.081864
   123  H    0.105682
   124  H    0.097701
   125  H    0.063670
   126  H    0.078820
   127  H    0.073208
   128  H    0.080490
   129  H    0.100683
   130  H    0.079687
   131  H    0.091846
   132  H    0.085935
   133  H    0.106405
   134  H    0.095824
   135  H    0.074672
   136  H    0.106757
   137  H    0.118145
 Sum of Mulliken charges =   0.00000

 Dipole moment (field-independent basis, Debye):
    X=              0.8694    Y=              6.5130    Z=              0.2492  Tot=              6.5755
 Quadrupole moment (field-independent basis, Debye-Ang):
   XX=           -330.1809   YY=           -394.8641   ZZ=           -399.9816
   XY=            -34.6728   XZ=              0.8716   YZ=              1.7505

 Normal termination of Gaussian 09 at Sat Jun 29 08:55:16 2019.
