 Gaussian 09, Revision D.01,
 Gaussian 09:  ES64L-G09RevD.01 24-Apr-2013

 -------------------------------------
 # td=(NStates=1) CAM-B3LYP/6-31G(d,p)
 -------------------------------------

 --
 TD
 --
 Symbolic Z-matrix:
 Charge =  0 Multiplicity = 1

                         Standard orientation:
 ---------------------------------------------------------------------
 Center     Atomic      Atomic             Coordinates (Angstroms)
 Number     Number       Type             X           Y           Z
 ---------------------------------------------------------------------
      1         12           0       -7.149039    0.578509    0.131993
      2          6           0       -4.810999   -1.952944    0.593007
      3          6           0       -4.706502    2.824656    1.122608
      4          6           0       -9.338373    3.137635   -0.328842
      5          6           0       -9.516768   -1.637637   -0.921473
      6          7           0       -5.078000    0.456808    0.764852
      7          6           0       -4.288812   -0.737881    0.848873
      8          6           0       -2.896787   -0.408150    1.266868
      9          6           0       -2.975238    1.100473    1.734939
     10          6           0       -4.265811    1.470201    1.134102
     11          6           0       -3.011458    1.108875    3.200699
     12          6           0       -1.887045   -0.670333    0.137719
     13          6           0       -0.434980   -0.509086    0.626329
     14          6           0        0.531153   -0.646965   -0.603716
     15          8           0        0.182381   -1.036275   -1.686435
     16          8           0        1.833332   -0.337040   -0.265419
     17          7           0       -7.103530    2.567816    0.545546
     18          6           0       -6.055313    3.330603    0.917164
     19          6           0       -6.411618    4.724197    0.863363
     20          6           0       -7.684723    4.891536    0.472890
     21          6           0       -8.111089    3.495561    0.153096
     22          6           0       -5.401370    5.831808    1.237782
     23          6           0       -8.539623    6.093968    0.405820
     24          6           0       -8.090211    7.252562    0.140729
     25          7           0       -9.134769    0.731737   -0.465442
     26          6           0       -9.879277    1.817310   -0.570773
     27          6           0      -11.197523    1.510613   -1.032153
     28          6           0      -11.166722    0.127010   -1.299995
     29          6           0       -9.910227   -0.365081   -0.752868
     30          6           0      -12.252415    2.542203   -1.341908
     31          6           0      -12.246845   -0.809031   -1.858900
     32          6           0      -12.230973   -1.011228   -3.332703
     33          7           0       -7.273990   -1.450735   -0.085960
     34          6           0       -8.295722   -2.177528   -0.664989
     35          6           0       -7.912460   -3.584100   -0.506375
     36          6           0       -6.472985   -3.550251   -0.152762
     37          6           0       -6.246531   -2.234332    0.154053
     38          6           0       -8.582873   -4.815040   -0.872269
     39          6           0       -5.338668   -4.336085    0.074702
     40          8           0       -5.198783   -5.532511    0.031271
     41          6           0       -4.247801   -3.327159    0.557195
     42          6           0       -3.619450   -3.715567    1.973325
     43          8           0       -3.785668   -3.133174    2.986278
     44          8           0       -2.888295   -4.784121    1.798483
     45          6           0       -2.160867   -5.245181    2.989931
     46          6           0        2.685755   -0.613878   -1.406691
     47          6           0        4.098971   -0.483798   -0.717334
     48          6           0        5.108246    0.283332   -1.138338
     49          6           0        5.162437    1.259778   -2.326660
     50          6           0        6.326994    0.330381   -0.399065
     51          6           0        7.598392   -0.190775   -1.028168
     52          6           0        8.918656   -0.106277   -0.254635
     53          6           0       10.177670   -0.554537   -0.948964
     54          6           0       10.125238   -1.936622   -1.505133
     55          6           0       11.416295   -0.262599   -0.143885
     56          6           0       12.738079   -0.572502   -0.712033
     57          6           0       13.904403   -0.176725    0.184445
     58          6           0       15.357599   -0.273660   -0.447684
     59          6           0       15.615987   -1.814057   -0.771529
     60          6           0       16.312786    0.314946    0.528836
     61          6           0       17.707083    0.644854   -0.155729
     62          6           0       18.742288    1.341108    0.849848
     63          6           0       20.216833    1.354349    0.323948
     64          6           0       20.291060    2.228432   -0.957300
     65          6           0       21.035464    1.915401    1.424382
     66          1           0       -4.098945    3.587072    1.416490
     67          1           0      -10.037618    4.073967   -0.617262
     68          1           0      -10.267180   -2.603777   -1.085969
     69          1           0       -2.482147   -1.066909    1.917709
     70          1           0       -2.287810    1.770095    1.273705
     71          1           0       -1.942039    0.924711    3.827001
     72          1           0       -3.465035    1.957451    3.629493
     73          1           0       -3.730387    0.380197    3.737548
     74          1           0       -1.869293   -1.593007   -0.407577
     75          1           0       -2.030774    0.013939   -0.467466
     76          1           0       -0.149412    0.440765    1.153897
     77          1           0       -0.277682   -1.166958    1.324939
     78          1           0       -5.003283    6.180528    0.283133
     79          1           0       -6.071727    6.893301    1.633565
     80          1           0       -4.645296    5.684069    1.972459
     81          1           0       -9.649434    5.901462    0.700838
     82          1           0       -8.899630    8.132190    0.010204
     83          1           0       -7.204247    7.689757   -0.043634
     84          1           0      -12.059377    3.264042   -2.229219
     85          1           0      -13.251967    2.071549   -1.712547
     86          1           0      -12.214689    3.232028   -0.261651
     87          1           0      -12.331789   -1.817566   -1.305589
     88          1           0      -13.343864   -0.444229   -1.518029
     89          1           0      -13.045310   -1.545679   -3.648521
     90          1           0      -12.089453   -0.065772   -3.894117
     91          1           0      -11.314865   -1.598891   -3.507501
     92          1           0       -8.871133   -4.903202   -1.854168
     93          1           0       -8.051730   -5.737309   -0.534618
     94          1           0       -9.744959   -4.991315   -0.364624
     95          1           0       -3.258602   -3.659920   -0.048785
     96          1           0       -1.377171   -4.378037    3.325505
     97          1           0       -2.771976   -5.544555    3.975512
     98          1           0       -1.608057   -6.175196    2.758926
     99          1           0        2.567659   -1.575761   -1.722739
    100          1           0        2.602632    0.337360   -2.181905
    101          1           0        4.252530   -0.995639    0.292037
    102          1           0        4.228103    1.394815   -2.883167
    103          1           0        5.417168    2.170983   -1.973857
    104          1           0        5.908361    0.920862   -2.980058
    105          1           0        6.704383    1.321179   -0.151650
    106          1           0        6.347307   -0.170436    0.675933
    107          1           0        7.414292   -1.327820   -1.318564
    108          1           0        7.772139    0.452524   -1.845543
    109          1           0        8.893069    0.987670    0.172663
    110          1           0        8.835805   -0.728490    0.544324
    111          1           0       10.167002    0.036569   -1.968171
    112          1           0        9.182228   -2.253620   -2.144581
    113          1           0       11.201918   -2.051737   -2.107652
    114          1           0        9.824011   -2.723919   -0.752598
    115          1           0       11.423842    0.764700    0.040413
    116          1           0       11.313215   -0.808625    0.899473
    117          1           0       12.834315   -1.574566   -1.159507
    118          1           0       13.054132    0.071032   -1.621042
    119          1           0       13.676436    0.812667    0.405400
    120          1           0       13.954398   -0.712862    1.257413
    121          1           0       15.349561    0.159991   -1.448451
    122          1           0       15.468173   -2.425436    0.237809
    123          1           0       14.991390   -2.106203   -1.778101
    124          1           0       16.729834   -2.050595   -0.924589
    125          1           0       15.843947    1.358644    1.122746
    126          1           0       16.486620   -0.476927    1.300396
    127          1           0       18.282997   -0.332842   -0.798423
    128          1           0       17.429355    1.422257   -0.928896
    129          1           0       18.292897    2.235420    1.108419
    130          1           0       18.731369    0.621711    1.813878
    131          1           0       20.680431    0.422657   -0.017891
    132          1           0       19.855783    3.260919   -0.712374
    133          1           0       21.324170    2.314316   -1.269435
    134          1           0       19.750166    1.840490   -1.945297
    135          1           0       21.189259    1.454364    2.387050
    136          1           0       22.154646    2.356445    0.921968
    137          1           0       20.788140    2.919890    1.621947
 ---------------------------------------------------------------------

 SCF Done:  E(RCAM-B3LYP) =  -2932.59687236     A.U. after   17 cycles

 Excitation energies and oscillator strengths:

 Excited State   1:      Singlet-A      2.2761 eV  544.73 nm  f=0.1570  <S**2>=0.000
     240 -> 242        0.10720
     240 -> 243        0.27049
     241 -> 242        0.63117
 This state for optimization and/or second-order correction.
 Total Energy, E(TD-HF/TD-KS) =  -2932.51322792
 Copying the excited state density for this state as the 1-particle RhoCI density.

 The electronic state is 1-A.
 Alpha  occ. eigenvalues --  -46.84673 -19.26938 -19.26422 -19.21765 -19.20331
 Alpha  occ. eigenvalues --  -19.18538 -14.41341 -14.39696 -14.39554 -14.38758
 Alpha  occ. eigenvalues --  -10.39510 -10.38323 -10.33704 -10.33191 -10.32652
 Alpha  occ. eigenvalues --  -10.31355 -10.30813 -10.30369 -10.29804 -10.29632
 Alpha  occ. eigenvalues --  -10.28931 -10.28807 -10.28549 -10.28546 -10.28344
 Alpha  occ. eigenvalues --  -10.28222 -10.28073 -10.28045 -10.28004 -10.27981
 Alpha  occ. eigenvalues --  -10.27895 -10.27729 -10.27711 -10.27707 -10.27629
 Alpha  occ. eigenvalues --  -10.27351 -10.27231 -10.26994 -10.26828 -10.26756
 Alpha  occ. eigenvalues --  -10.26699 -10.26558 -10.26555 -10.26536 -10.26493
 Alpha  occ. eigenvalues --  -10.26419 -10.26374 -10.26283 -10.26254 -10.26236
 Alpha  occ. eigenvalues --  -10.26205 -10.26058 -10.25704 -10.25590 -10.25473
 Alpha  occ. eigenvalues --  -10.25310 -10.25293 -10.25269 -10.25235 -10.24980
 Alpha  occ. eigenvalues --  -10.24881 -10.24771 -10.24425 -10.23952 -10.23574
 Alpha  occ. eigenvalues --   -3.13595  -1.88316  -1.87822  -1.87769  -1.19418
 Alpha  occ. eigenvalues --   -1.18032  -1.10229  -1.10065  -1.09919  -1.04732
 Alpha  occ. eigenvalues --   -1.03681  -1.03557  -1.02586  -0.92159  -0.92037
 Alpha  occ. eigenvalues --   -0.90904  -0.90737  -0.90356  -0.89355  -0.88919
 Alpha  occ. eigenvalues --   -0.88359  -0.88014  -0.87508  -0.86564  -0.85981
 Alpha  occ. eigenvalues --   -0.85422  -0.84592  -0.83517  -0.83476  -0.82711
 Alpha  occ. eigenvalues --   -0.81550  -0.80933  -0.80376  -0.79699  -0.78176
 Alpha  occ. eigenvalues --   -0.77935  -0.76921  -0.76596  -0.75081  -0.75055
 Alpha  occ. eigenvalues --   -0.74612  -0.74440  -0.73558  -0.73473  -0.72152
 Alpha  occ. eigenvalues --   -0.71515  -0.70585  -0.69251  -0.68579  -0.68490
 Alpha  occ. eigenvalues --   -0.67460  -0.66249  -0.65779  -0.64721  -0.64210
 Alpha  occ. eigenvalues --   -0.63553  -0.63403  -0.62838  -0.62727  -0.61809
 Alpha  occ. eigenvalues --   -0.61638  -0.60828  -0.60539  -0.60005  -0.58978
 Alpha  occ. eigenvalues --   -0.58609  -0.58012  -0.57856  -0.57259  -0.56516
 Alpha  occ. eigenvalues --   -0.56070  -0.55477  -0.55435  -0.55241  -0.55000
 Alpha  occ. eigenvalues --   -0.54552  -0.54296  -0.53855  -0.53599  -0.53055
 Alpha  occ. eigenvalues --   -0.52656  -0.52645  -0.52056  -0.51766  -0.51586
 Alpha  occ. eigenvalues --   -0.51517  -0.51042  -0.50933  -0.50824  -0.50683
 Alpha  occ. eigenvalues --   -0.50339  -0.50227  -0.50068  -0.49683  -0.49588
 Alpha  occ. eigenvalues --   -0.49211  -0.49025  -0.48842  -0.48549  -0.48360
 Alpha  occ. eigenvalues --   -0.47663  -0.47567  -0.47383  -0.47219  -0.47181
 Alpha  occ. eigenvalues --   -0.46985  -0.46622  -0.46518  -0.46091  -0.45638
 Alpha  occ. eigenvalues --   -0.45540  -0.45429  -0.45123  -0.44657  -0.44593
 Alpha  occ. eigenvalues --   -0.44381  -0.44122  -0.43992  -0.43854  -0.43831
 Alpha  occ. eigenvalues --   -0.43646  -0.43527  -0.43371  -0.43137  -0.42980
 Alpha  occ. eigenvalues --   -0.42955  -0.42889  -0.42700  -0.42361  -0.42080
 Alpha  occ. eigenvalues --   -0.41797  -0.41523  -0.41240  -0.40990  -0.40930
 Alpha  occ. eigenvalues --   -0.40778  -0.40514  -0.40398  -0.40132  -0.39975
 Alpha  occ. eigenvalues --   -0.39867  -0.39733  -0.39569  -0.38920  -0.38790
 Alpha  occ. eigenvalues --   -0.38663  -0.38054  -0.37923  -0.37623  -0.37542
 Alpha  occ. eigenvalues --   -0.37335  -0.37325  -0.37039  -0.36987  -0.36671
 Alpha  occ. eigenvalues --   -0.36467  -0.36309  -0.36279  -0.36097  -0.35859
 Alpha  occ. eigenvalues --   -0.35803  -0.35735  -0.34645  -0.34270  -0.33497
 Alpha  occ. eigenvalues --   -0.33357  -0.33098  -0.32123  -0.30328  -0.29690
 Alpha  occ. eigenvalues --   -0.29325  -0.29145  -0.28242  -0.27557  -0.22960
 Alpha  occ. eigenvalues --   -0.22304
 Alpha virt. eigenvalues --   -0.06165  -0.02919   0.02506   0.04486   0.05574
 Alpha virt. eigenvalues --    0.06336   0.06453   0.07041   0.07158   0.07840
 Alpha virt. eigenvalues --    0.08488   0.10270   0.10819   0.10959   0.11246

 Mulliken charges:
               1
     1  Mg   0.824791
     2  C    0.086379
     3  C   -0.203096
     4  C   -0.217577
     5  C   -0.141881
     6  N   -0.635482
     7  C    0.313646
     8  C   -0.165294
     9  C   -0.119456
    10  C    0.343627
    11  C   -0.304081
    12  C   -0.158287
    13  C   -0.284845
    14  C    0.605127
    15  O   -0.455080
    16  O   -0.481805
    17  N   -0.708934
    18  C    0.340539
    19  C   -0.008748
    20  C    0.060111
    21  C    0.280746
    22  C   -0.371893
    23  C   -0.065405
    24  C   -0.220357
    25  N   -0.679704
    26  C    0.338744
    27  C    0.010341
    28  C    0.028678
    29  C    0.274005
    30  C   -0.353838
    31  C   -0.247860
    32  C   -0.294551
    33  N   -0.730870
    34  C    0.243556
    35  C    0.039643
    36  C    0.000742
    37  C    0.304944
    38  C   -0.394225
    39  C    0.357549
    40  O   -0.471094
    41  C   -0.371536
    42  C    0.616138
    43  O   -0.454332
    44  O   -0.422416
    45  C   -0.088386
    46  C    0.022818
    47  C   -0.170701
    48  C    0.158357
    49  C   -0.367251
    50  C   -0.239341
    51  C   -0.172540
    52  C   -0.170393
    53  C   -0.048037
    54  C   -0.299556
    55  C   -0.141812
    56  C   -0.194421
    57  C   -0.158143
    58  C   -0.057690
    59  C   -0.298589
    60  C   -0.154576
    61  C   -0.174396
    62  C   -0.157168
    63  C   -0.045970
    64  C   -0.308867
    65  C   -0.295512
    66  H    0.054480
    67  H    0.088963
    68  H    0.107500
    69  H    0.115651
    70  H    0.117233
    71  H    0.083326
    72  H    0.116914
    73  H    0.131372
    74  H    0.131731
    75  H    0.112750
    76  H    0.119962
    77  H    0.140571
    78  H    0.137823
    79  H    0.075615
    80  H    0.131509
    81  H    0.113120
    82  H    0.078057
    83  H    0.117515
    84  H    0.114689
    85  H    0.112496
    86  H    0.088571
    87  H    0.100743
    88  H    0.078912
    89  H    0.115344
    90  H    0.109529
    91  H    0.106895
    92  H    0.144623
    93  H    0.154284
    94  H    0.067838
    95  H    0.145126
    96  H    0.107177
    97  H    0.127465
    98  H    0.134742
    99  H    0.147544
   100  H    0.108328
   101  H    0.093670
   102  H    0.102716
   103  H    0.130246
   104  H    0.133360
   105  H    0.093070
   106  H    0.076774
   107  H    0.072454
   108  H    0.097171
   109  H    0.068284
   110  H    0.098985
   111  H    0.066772
   112  H    0.092144
   113  H    0.089961
   114  H    0.089775
   115  H    0.102512
   116  H    0.077955
   117  H    0.098282
   118  H    0.076221
   119  H    0.094910
   120  H    0.062659
   121  H    0.087474
   122  H    0.089302
   123  H    0.092811
   124  H    0.094302
   125  H    0.059488
   126  H    0.095388
   127  H    0.059322
   128  H    0.093492
   129  H    0.108051
   130  H    0.067831
   131  H    0.098858
   132  H    0.089734
   133  H    0.105135
   134  H    0.091872
   135  H    0.116275
   136  H    0.036651
   137  H    0.113208
 Sum of Mulliken charges =   0.00000

 Dipole moment (field-independent basis, Debye):
    X=              1.5374    Y=              5.8636    Z=              0.1787  Tot=              6.0645
 Quadrupole moment (field-independent basis, Debye-Ang):
   XX=           -358.0153   YY=           -387.7016   ZZ=           -396.6180
   XY=            -22.3106   XZ=             14.0404   YZ=             -5.6792

 Normal termination of Gaussian 09 at Fri Jun 28 21:32:52 2019.
