 Gaussian 09, Revision D.01,
 Gaussian 09:  ES64L-G09RevD.01 24-Apr-2013

 -------------------------------------
 # td=(NStates=1) CAM-B3LYP/6-31G(d,p)
 -------------------------------------

 --
 TD
 --
 Symbolic Z-matrix:
 Charge =  0 Multiplicity = 1

                         Standard orientation:
 ---------------------------------------------------------------------
 Center     Atomic      Atomic             Coordinates (Angstroms)
 Number     Number       Type             X           Y           Z
 ---------------------------------------------------------------------
      1         12           0       -7.184902    0.538796    0.204528
      2          6           0       -4.812133   -1.928967    0.536554
      3          6           0       -4.744403    2.858552    1.155044
      4          6           0       -9.524000    3.085155   -0.288528
      5          6           0       -9.544710   -1.746458   -0.888947
      6          7           0       -5.072053    0.408332    0.729512
      7          6           0       -4.270396   -0.728036    0.908853
      8          6           0       -2.915552   -0.381984    1.244919
      9          6           0       -3.065517    1.113302    1.773827
     10          6           0       -4.448902    1.468417    1.126756
     11          6           0       -2.984573    1.109626    3.269619
     12          6           0       -1.898171   -0.617338    0.121426
     13          6           0       -0.459919   -0.539525    0.532801
     14          6           0        0.485173   -0.699156   -0.637443
     15          8           0        0.266595   -0.944342   -1.826438
     16          8           0        1.802065   -0.390812   -0.182308
     17          7           0       -7.125890    2.552743    0.294481
     18          6           0       -6.083676    3.351219    0.791343
     19          6           0       -6.368170    4.828433    0.758670
     20          6           0       -7.720884    4.837820    0.330252
     21          6           0       -8.192867    3.430687    0.033851
     22          6           0       -5.635601    5.991206    1.247160
     23          6           0       -8.625058    5.927864    0.365308
     24          6           0       -8.235255    7.234189    0.082267
     25          7           0       -9.101269    0.660548   -0.390313
     26          6           0       -9.860771    1.774432   -0.538118
     27          6           0      -11.137072    1.404230   -1.038767
     28          6           0      -11.252405    0.009003   -1.119338
     29          6           0       -9.920389   -0.457274   -0.744002
     30          6           0      -12.239916    2.320187   -1.418414
     31          6           0      -12.439074   -0.759795   -1.664904
     32          6           0      -12.325891   -1.078415   -3.179386
     33          7           0       -7.145420   -1.339203   -0.095291
     34          6           0       -8.177063   -2.152227   -0.548960
     35          6           0       -7.730928   -3.601051   -0.660083
     36          6           0       -6.435579   -3.540210   -0.111141
     37          6           0       -6.183191   -2.184515    0.213480
     38          6           0       -8.540907   -4.648411   -1.109747
     39          6           0       -5.336850   -4.400534    0.070783
     40          8           0       -5.165027   -5.629966   -0.053188
     41          6           0       -4.220735   -3.370701    0.570824
     42          6           0       -3.481917   -3.723915    1.851080
     43          8           0       -3.621655   -3.220896    2.977476
     44          8           0       -2.554422   -4.795937    1.743210
     45          6           0       -1.918256   -5.199265    2.849898
     46          6           0        2.808238   -0.525169   -1.211336
     47          6           0        4.179055   -0.319515   -0.603987
     48          6           0        5.103317    0.538207   -0.968599
     49          6           0        5.002673    1.423079   -2.160210
     50          6           0        6.341408    0.542846   -0.168369
     51          6           0        7.489484    0.034607   -0.963036
     52          6           0        8.801511   -0.030540   -0.152946
     53          6           0       10.145763   -0.503865   -0.803483
     54          6           0       10.030131   -1.912065   -1.293734
     55          6           0       11.365748   -0.327518    0.029553
     56          6           0       12.693369   -0.490701   -0.595891
     57          6           0       13.949104   -0.133856    0.251731
     58          6           0       15.343464   -0.076205   -0.591930
     59          6           0       15.566194   -1.607022   -1.088637
     60          6           0       16.435408    0.374904    0.341446
     61          6           0       17.826594    0.408003   -0.136597
     62          6           0       18.903074    1.119924    0.737015
     63          6           0       20.309446    1.281127    0.216335
     64          6           0       20.236324    2.207022   -1.018741
     65          6           0       21.059148    1.794577    1.415631
     66          1           0       -4.002217    3.473392    1.739063
     67          1           0      -10.115674    3.947671   -0.457257
     68          1           0      -10.078286   -2.699605   -1.139614
     69          1           0       -2.692961   -1.027126    2.078665
     70          1           0       -2.233712    1.675963    1.378677
     71          1           0       -2.181558    0.579646    3.770313
     72          1           0       -3.060584    2.042981    3.806654
     73          1           0       -3.808578    0.489226    3.459050
     74          1           0       -1.873050   -1.567172   -0.266740
     75          1           0       -2.181113    0.055746   -0.719715
     76          1           0       -0.148686    0.532247    0.845787
     77          1           0       -0.180395   -1.354822    1.304089
     78          1           0       -5.161159    6.467272    0.292401
     79          1           0       -6.194551    6.728657    1.707822
     80          1           0       -4.986246    5.775838    2.040320
     81          1           0       -9.587773    5.680311    0.828485
     82          1           0       -9.098922    8.116573    0.337184
     83          1           0       -7.287900    7.576618   -0.232580
     84          1           0      -12.106881    3.060589   -2.079915
     85          1           0      -13.110416    1.570348   -1.742282
     86          1           0      -12.344450    2.954773   -0.480791
     87          1           0      -12.451830   -1.793104   -1.125396
     88          1           0      -13.289165   -0.326972   -1.381383
     89          1           0      -13.171334   -1.600173   -3.634183
     90          1           0      -11.986918   -0.119143   -3.507955
     91          1           0      -11.550809   -1.920617   -3.453614
     92          1           0       -8.963418   -4.588808   -2.219654
     93          1           0       -8.009347   -5.590492   -0.860696
     94          1           0       -9.398677   -4.966938   -0.344916
     95          1           0       -3.326739   -3.336699   -0.117300
     96          1           0       -1.485587   -4.252831    3.273796
     97          1           0       -2.692883   -5.633136    3.563422
     98          1           0       -1.287303   -6.233183    2.693908
     99          1           0        2.587765   -1.710280   -1.565343
    100          1           0        2.581667   -0.125167   -2.186059
    101          1           0        4.260384   -0.723471    0.357415
    102          1           0        3.825378    1.343670   -2.616309
    103          1           0        5.216344    2.356883   -2.044320
    104          1           0        5.700387    1.101660   -2.926895
    105          1           0        6.772855    1.540552    0.033134
    106          1           0        6.205022    0.001877    0.727796
    107          1           0        7.229960   -0.971005   -1.348023
    108          1           0        7.790811    0.758451   -1.912079
    109          1           0        8.943239    0.776261    0.234709
    110          1           0        8.553238   -0.902070    0.643551
    111          1           0       10.117290    0.170702   -1.759613
    112          1           0        9.205194   -2.078023   -2.147434
    113          1           0       10.983477   -2.268332   -1.985467
    114          1           0        9.773762   -2.596645   -0.329395
    115          1           0       11.226811    0.705187    0.334711
    116          1           0       11.216896   -0.864329    1.050131
    117          1           0       12.799413   -1.682378   -0.760980
    118          1           0       12.878769    0.047736   -1.562324
    119          1           0       13.919790    0.850160    0.559941
    120          1           0       14.179700   -0.942483    0.911453
    121          1           0       15.201176    0.475435   -1.378065
    122          1           0       15.636290   -2.260796   -0.246618
    123          1           0       14.592034   -1.948481   -1.592516
    124          1           0       16.471934   -1.527540   -2.099097
    125          1           0       15.961054    1.440447    0.812049
    126          1           0       16.442223   -0.314329    1.144824
    127          1           0       18.294636   -0.679279   -0.402424
    128          1           0       17.964704    0.930242   -1.140101
    129          1           0       18.570733    2.151213    1.007490
    130          1           0       19.011278    0.607745    1.584089
    131          1           0       20.665950    0.259910    0.086433
    132          1           0       19.770657    3.162965   -0.824801
    133          1           0       21.240237    2.384055   -1.417753
    134          1           0       19.629790    1.867441   -1.892288
    135          1           0       21.073182    1.010172    2.152759
    136          1           0       22.102954    1.809866    1.187692
    137          1           0       20.899572    2.831777    1.734131
 ---------------------------------------------------------------------

 SCF Done:  E(RCAM-B3LYP) =  -2932.61062549     A.U. after   18 cycles

 Excitation energies and oscillator strengths:

 Excited State   1:      Singlet-A      2.0220 eV  613.18 nm  f=0.2698  <S**2>=0.000
     240 -> 242       -0.10636
     240 -> 243        0.20876
     241 -> 242        0.65630
 This state for optimization and/or second-order correction.
 Total Energy, E(TD-HF/TD-KS) =  -2932.53631859
 Copying the excited state density for this state as the 1-particle RhoCI density.

 The electronic state is 1-A.
 Alpha  occ. eigenvalues --  -46.83642 -19.25473 -19.24775 -19.22205 -19.21266
 Alpha  occ. eigenvalues --  -19.20176 -14.42040 -14.40840 -14.40196 -14.39891
 Alpha  occ. eigenvalues --  -10.40057 -10.39990 -10.35273 -10.32590 -10.31938
 Alpha  occ. eigenvalues --  -10.31413 -10.31186 -10.31166 -10.30220 -10.29589
 Alpha  occ. eigenvalues --  -10.29420 -10.29372 -10.29298 -10.29284 -10.29072
 Alpha  occ. eigenvalues --  -10.28745 -10.28734 -10.28420 -10.28211 -10.28117
 Alpha  occ. eigenvalues --  -10.27931 -10.27535 -10.27453 -10.27418 -10.27389
 Alpha  occ. eigenvalues --  -10.27026 -10.27017 -10.26849 -10.26807 -10.26794
 Alpha  occ. eigenvalues --  -10.26702 -10.26639 -10.26631 -10.26631 -10.26538
 Alpha  occ. eigenvalues --  -10.26404 -10.26353 -10.26186 -10.26143 -10.25921
 Alpha  occ. eigenvalues --  -10.25762 -10.25666 -10.25503 -10.25490 -10.25385
 Alpha  occ. eigenvalues --  -10.25209 -10.25148 -10.24959 -10.24818 -10.24802
 Alpha  occ. eigenvalues --  -10.24550 -10.24428 -10.24390 -10.23694 -10.22989
 Alpha  occ. eigenvalues --   -3.13079  -1.87745  -1.87337  -1.87284  -1.17133
 Alpha  occ. eigenvalues --   -1.15944  -1.09004  -1.08290  -1.08228  -1.05661
 Alpha  occ. eigenvalues --   -1.04338  -1.03018  -1.01630  -0.92614  -0.92504
 Alpha  occ. eigenvalues --   -0.91112  -0.90767  -0.90219  -0.90062  -0.89597
 Alpha  occ. eigenvalues --   -0.88746  -0.88606  -0.88379  -0.87490  -0.86810
 Alpha  occ. eigenvalues --   -0.85634  -0.84964  -0.83685  -0.83201  -0.83080
 Alpha  occ. eigenvalues --   -0.81623  -0.81016  -0.80545  -0.79728  -0.78909
 Alpha  occ. eigenvalues --   -0.78238  -0.77260  -0.76766  -0.76671  -0.75570
 Alpha  occ. eigenvalues --   -0.74785  -0.74649  -0.74061  -0.73745  -0.72442
 Alpha  occ. eigenvalues --   -0.71663  -0.70797  -0.70432  -0.69207  -0.68928
 Alpha  occ. eigenvalues --   -0.67647  -0.66363  -0.65873  -0.65143  -0.64251
 Alpha  occ. eigenvalues --   -0.63885  -0.63836  -0.62642  -0.62535  -0.61692
 Alpha  occ. eigenvalues --   -0.61330  -0.60920  -0.60636  -0.59999  -0.59526
 Alpha  occ. eigenvalues --   -0.59037  -0.58619  -0.58226  -0.56908  -0.56890
 Alpha  occ. eigenvalues --   -0.56418  -0.56140  -0.55749  -0.55077  -0.54730
 Alpha  occ. eigenvalues --   -0.54607  -0.54526  -0.54408  -0.53656  -0.53603
 Alpha  occ. eigenvalues --   -0.52755  -0.52673  -0.52514  -0.52218  -0.51934
 Alpha  occ. eigenvalues --   -0.51778  -0.51277  -0.51191  -0.50928  -0.50814
 Alpha  occ. eigenvalues --   -0.50771  -0.50512  -0.50248  -0.49929  -0.49845
 Alpha  occ. eigenvalues --   -0.49507  -0.49294  -0.49146  -0.48976  -0.48814
 Alpha  occ. eigenvalues --   -0.48328  -0.48249  -0.47981  -0.47816  -0.47554
 Alpha  occ. eigenvalues --   -0.47413  -0.47161  -0.46840  -0.46693  -0.46445
 Alpha  occ. eigenvalues --   -0.45997  -0.45758  -0.45566  -0.45420  -0.45294
 Alpha  occ. eigenvalues --   -0.44909  -0.44884  -0.44482  -0.44386  -0.44019
 Alpha  occ. eigenvalues --   -0.43965  -0.43816  -0.43681  -0.43543  -0.43390
 Alpha  occ. eigenvalues --   -0.43210  -0.42994  -0.42837  -0.42628  -0.42462
 Alpha  occ. eigenvalues --   -0.42217  -0.41972  -0.41650  -0.41597  -0.41136
 Alpha  occ. eigenvalues --   -0.40977  -0.40734  -0.40619  -0.40483  -0.40355
 Alpha  occ. eigenvalues --   -0.40099  -0.40041  -0.39477  -0.39433  -0.39034
 Alpha  occ. eigenvalues --   -0.38703  -0.38681  -0.38342  -0.38272  -0.38101
 Alpha  occ. eigenvalues --   -0.37502  -0.37284  -0.37103  -0.36570  -0.36505
 Alpha  occ. eigenvalues --   -0.35716  -0.35679  -0.35379  -0.35338  -0.34902
 Alpha  occ. eigenvalues --   -0.34560  -0.34459  -0.34104  -0.34010  -0.33636
 Alpha  occ. eigenvalues --   -0.33293  -0.33233  -0.31943  -0.31349  -0.30234
 Alpha  occ. eigenvalues --   -0.29951  -0.29542  -0.28339  -0.27745  -0.23654
 Alpha  occ. eigenvalues --   -0.21448
 Alpha virt. eigenvalues --   -0.07106  -0.03194   0.00400   0.03118   0.04795
 Alpha virt. eigenvalues --    0.05072   0.05447   0.06338   0.06580   0.07099
 Alpha virt. eigenvalues --    0.07537   0.10138   0.10544   0.10960   0.11099

 Mulliken charges:
               1
     1  Mg   0.843725
     2  C    0.043281
     3  C   -0.198131
     4  C   -0.174858
     5  C   -0.132848
     6  N   -0.620830
     7  C    0.282798
     8  C   -0.180715
     9  C   -0.163937
    10  C    0.376106
    11  C   -0.312360
    12  C   -0.161830
    13  C   -0.266934
    14  C    0.611943
    15  O   -0.470107
    16  O   -0.506868
    17  N   -0.695989
    18  C    0.274373
    19  C    0.055813
    20  C   -0.013804
    21  C    0.303511
    22  C   -0.376512
    23  C   -0.107951
    24  C   -0.237806
    25  N   -0.725480
    26  C    0.374831
    27  C   -0.018785
    28  C    0.026143
    29  C    0.271080
    30  C   -0.356444
    31  C   -0.237933
    32  C   -0.299926
    33  N   -0.712714
    34  C    0.198337
    35  C    0.100542
    36  C    0.006058
    37  C    0.292894
    38  C   -0.442792
    39  C    0.368755
    40  O   -0.480021
    41  C   -0.321600
    42  C    0.602100
    43  O   -0.475488
    44  O   -0.441764
    45  C   -0.064317
    46  C    0.023857
    47  C   -0.139339
    48  C    0.157552
    49  C   -0.354487
    50  C   -0.216647
    51  C   -0.182077
    52  C   -0.127935
    53  C   -0.059925
    54  C   -0.281964
    55  C   -0.154481
    56  C   -0.173647
    57  C   -0.175222
    58  C   -0.073230
    59  C   -0.301704
    60  C   -0.128026
    61  C   -0.184081
    62  C   -0.142966
    63  C   -0.063384
    64  C   -0.318887
    65  C   -0.316953
    66  H    0.098140
    67  H    0.098316
    68  H    0.115817
    69  H    0.126043
    70  H    0.098001
    71  H    0.120687
    72  H    0.105140
    73  H    0.128132
    74  H    0.127841
    75  H    0.121765
    76  H    0.138934
    77  H    0.144022
    78  H    0.121861
    79  H    0.139752
    80  H    0.121430
    81  H    0.115782
    82  H    0.080503
    83  H    0.116397
    84  H    0.133859
    85  H    0.093991
    86  H    0.105917
    87  H    0.090156
    88  H    0.123101
    89  H    0.111640
    90  H    0.122170
    91  H    0.093651
    92  H    0.126385
    93  H    0.152962
    94  H    0.118930
    95  H    0.161167
    96  H    0.107559
    97  H    0.104901
    98  H    0.105374
    99  H    0.075556
   100  H    0.134372
   101  H    0.090826
   102  H    0.079042
   103  H    0.128831
   104  H    0.125097
   105  H    0.093529
   106  H    0.107727
   107  H    0.102283
   108  H    0.060132
   109  H    0.084879
   110  H    0.056185
   111  H    0.066702
   112  H    0.085174
   113  H    0.083489
   114  H    0.080585
   115  H    0.086599
   116  H    0.084734
   117  H    0.078638
   118  H    0.092623
   119  H    0.095690
   120  H    0.096980
   121  H    0.091139
   122  H    0.109327
   123  H    0.098376
   124  H    0.056386
   125  H    0.053188
   126  H    0.097326
   127  H    0.072614
   128  H    0.076146
   129  H    0.076612
   130  H    0.086702
   131  H    0.086665
   132  H    0.106308
   133  H    0.095900
   134  H    0.104300
   135  H    0.107248
   136  H    0.095374
   137  H    0.106393
 Sum of Mulliken charges =   0.00000

 Dipole moment (field-independent basis, Debye):
    X=             -0.5917    Y=              6.8546    Z=              1.1781  Tot=              6.9803
 Quadrupole moment (field-independent basis, Debye-Ang):
   XX=           -326.7388   YY=           -394.1194   ZZ=           -401.5217
   XY=            -17.1478   XZ=             10.7099   YZ=              2.4161

 Normal termination of Gaussian 09 at Sun Jun 30 13:55:58 2019.
