 Gaussian 09, Revision D.01,
 Gaussian 09:  ES64L-G09RevD.01 24-Apr-2013

 -------------------------------------
 # td=(NStates=1) CAM-B3LYP/6-31G(d,p)
 -------------------------------------

 --
 TD
 --
 Symbolic Z-matrix:
 Charge =  0 Multiplicity = 1

                         Standard orientation:
 ---------------------------------------------------------------------
 Center     Atomic      Atomic             Coordinates (Angstroms)
 Number     Number       Type             X           Y           Z
 ---------------------------------------------------------------------
      1         12           0       -7.118660    0.650905    0.066960
      2          6           0       -4.864922   -1.993920    0.514329
      3          6           0       -4.774599    2.772002    1.264168
      4          6           0       -9.391589    3.090688   -0.392683
      5          6           0       -9.454931   -1.690084   -0.864471
      6          7           0       -5.149350    0.464426    0.800983
      7          6           0       -4.355511   -0.774654    0.880640
      8          6           0       -2.939463   -0.356203    1.358438
      9          6           0       -3.041840    1.058313    1.831114
     10          6           0       -4.394887    1.507433    1.234067
     11          6           0       -2.935166    1.233042    3.392919
     12          6           0       -1.933077   -0.628063    0.195850
     13          6           0       -0.485162   -0.487571    0.612439
     14          6           0        0.446605   -0.700244   -0.535801
     15          8           0        0.098191   -0.956126   -1.667912
     16          8           0        1.733969   -0.399522   -0.174083
     17          7           0       -7.113838    2.599670    0.354137
     18          6           0       -6.036821    3.290998    0.842808
     19          6           0       -6.419056    4.704155    0.847514
     20          6           0       -7.692181    4.789372    0.397075
     21          6           0       -8.198360    3.470872    0.116381
     22          6           0       -5.501336    5.769625    1.414063
     23          6           0       -8.494251    6.044445    0.268807
     24          6           0       -8.060429    7.219087   -0.022832
     25          7           0       -9.108062    0.690415   -0.439263
     26          6           0       -9.894122    1.847852   -0.530187
     27          6           0      -11.188983    1.514959   -1.063392
     28          6           0      -11.155727    0.155520   -1.298435
     29          6           0       -9.858557   -0.358554   -0.868128
     30          6           0      -12.242941    2.521394   -1.283813
     31          6           0      -12.309152   -0.660776   -1.794927
     32          6           0      -12.096869   -1.165560   -3.267895
     33          7           0       -7.144659   -1.299923   -0.278878
     34          6           0       -8.150526   -2.208993   -0.546279
     35          6           0       -7.824795   -3.556150   -0.545154
     36          6           0       -6.523211   -3.510309   -0.120628
     37          6           0       -6.136593   -2.183835    0.089243
     38          6           0       -8.636925   -4.685130   -0.898468
     39          6           0       -5.400813   -4.434530    0.176568
     40          8           0       -5.191123   -5.599226    0.081618
     41          6           0       -4.200024   -3.352889    0.503587
     42          6           0       -3.593885   -3.767155    1.910447
     43          8           0       -3.818781   -3.245601    2.956298
     44          8           0       -2.830015   -4.793766    1.696258
     45          6           0       -2.077184   -5.351872    2.855707
     46          6           0        2.788185   -0.644282   -1.131330
     47          6           0        4.089119   -0.484350   -0.665183
     48          6           0        5.076487    0.326553   -1.091118
     49          6           0        5.073278    1.183311   -2.294492
     50          6           0        6.366482    0.420006   -0.339489
     51          6           0        7.577022   -0.188515   -1.077987
     52          6           0        8.822039   -0.103802   -0.194817
     53          6           0       10.097412   -0.452120   -0.958761
     54          6           0       10.083208   -1.933042   -1.396993
     55          6           0       11.411721   -0.164296   -0.184358
     56          6           0       12.764925   -0.536241   -0.789638
     57          6           0       13.915942   -0.166654    0.143926
     58          6           0       15.382231   -0.204929   -0.493119
     59          6           0       15.624827   -1.635120   -0.952457
     60          6           0       16.389152    0.436412    0.451393
     61          6           0       17.721215    0.686183   -0.188726
     62          6           0       18.748422    1.212643    0.881797
     63          6           0       20.188048    1.233306    0.378710
     64          6           0       20.384707    2.113838   -0.917210
     65          6           0       21.111423    1.777137    1.435959
     66          1           0       -4.172979    3.321723    1.781582
     67          1           0      -10.156938    3.922858   -0.583795
     68          1           0      -10.355115   -2.252482   -1.319228
     69          1           0       -2.619656   -0.963395    2.151453
     70          1           0       -2.238604    1.677429    1.328669
     71          1           0       -2.083659    1.051791    3.813995
     72          1           0       -3.088089    2.392444    3.564991
     73          1           0       -3.834464    0.832764    3.834752
     74          1           0       -2.046368   -1.847819    0.011477
     75          1           0       -2.275069   -0.023244   -0.755652
     76          1           0       -0.305821    0.579905    1.151236
     77          1           0       -0.181750   -1.134094    1.372332
     78          1           0       -4.796981    6.165344    0.565437
     79          1           0       -5.975138    6.417767    2.053195
     80          1           0       -4.675308    5.132928    1.965166
     81          1           0       -9.447405    5.909295    0.604953
     82          1           0       -8.721252    8.144839   -0.016659
     83          1           0       -6.871379    7.548208   -0.560475
     84          1           0      -11.856005    3.530505   -1.956670
     85          1           0      -13.166733    2.251508   -1.501863
     86          1           0      -12.302466    3.012709   -0.313120
     87          1           0      -12.081944   -1.664293   -1.222888
     88          1           0      -13.397157   -0.304504   -1.469322
     89          1           0      -12.770699   -1.911875   -3.492945
     90          1           0      -12.346121   -0.347307   -4.068226
     91          1           0      -11.110059   -1.426905   -3.611950
     92          1           0       -9.369259   -4.587326   -1.850943
     93          1           0       -8.276579   -5.758585   -0.766886
     94          1           0       -9.493046   -4.658981   -0.200787
     95          1           0       -3.464073   -3.438640   -0.248382
     96          1           0       -1.589019   -4.484819    3.516681
     97          1           0       -2.879050   -5.799189    3.226085
     98          1           0       -1.413552   -6.215154    2.474750
     99          1           0        2.684058   -1.639343   -1.680448
    100          1           0        2.638188    0.009821   -2.200642
    101          1           0        4.283960   -0.668330    0.509524
    102          1           0        4.033127    1.441025   -2.678787
    103          1           0        5.604561    2.186879   -1.926200
    104          1           0        5.632462    0.749200   -3.220075
    105          1           0        6.581701    1.567902    0.027751
    106          1           0        6.348745    0.017681    0.750548
    107          1           0        7.409555   -1.318853   -1.213803
    108          1           0        7.778569    0.473274   -2.046828
    109          1           0        8.929381    0.812682    0.121705
    110          1           0        8.831518   -0.702282    0.734259
    111          1           0       10.131453    0.191788   -2.058674
    112          1           0        9.243939   -2.044253   -2.226619
    113          1           0       10.958874   -2.214883   -1.903144
    114          1           0       10.117415   -2.516083   -0.560126
    115          1           0       11.364006    0.719639    0.012643
    116          1           0       11.349053   -0.648673    0.772525
    117          1           0       12.813587   -1.551616   -1.122816
    118          1           0       12.919470    0.066213   -1.698322
    119          1           0       13.757798    0.922555    0.253168
    120          1           0       13.971706   -0.665534    1.131835
    121          1           0       15.268677    0.348727   -1.461895
    122          1           0       15.567890   -2.257671    0.009187
    123          1           0       14.651518   -1.948560   -1.483114
    124          1           0       16.535975   -2.108798   -1.403436
    125          1           0       16.124843    1.522188    0.868078
    126          1           0       16.514137   -0.143112    1.178917
    127          1           0       18.215665   -0.253147   -0.548820
    128          1           0       17.529709    1.545708   -1.125694
    129          1           0       18.647800    2.384630    0.905019
    130          1           0       18.922723    0.543387    1.652390
    131          1           0       20.402697    0.235283    0.195309
    132          1           0       20.178550    3.146312   -0.653982
    133          1           0       21.572213    2.107717   -1.177994
    134          1           0       19.985384    1.729784   -1.739496
    135          1           0       21.197506    1.205081    2.293157
    136          1           0       22.242940    1.855675    1.065030
    137          1           0       20.726341    2.789715    1.438025
 ---------------------------------------------------------------------

 SCF Done:  E(RCAM-B3LYP) =  -2932.59360350     A.U. after   18 cycles

 Excitation energies and oscillator strengths:

 Excited State   1:      Singlet-A      2.0096 eV  616.97 nm  f=0.2759  <S**2>=0.000
     240 -> 243        0.22779
     241 -> 242        0.66550
 This state for optimization and/or second-order correction.
 Total Energy, E(TD-HF/TD-KS) =  -2932.51975339
 Copying the excited state density for this state as the 1-particle RhoCI density.

 The electronic state is 1-A.
 Alpha  occ. eigenvalues --  -46.82271 -19.26641 -19.25918 -19.21266 -19.20939
 Alpha  occ. eigenvalues --  -19.19945 -14.40974 -14.39164 -14.38940 -14.38725
 Alpha  occ. eigenvalues --  -10.39477 -10.38191 -10.35128 -10.33011 -10.32376
 Alpha  occ. eigenvalues --  -10.30715 -10.30083 -10.29567 -10.28899 -10.28853
 Alpha  occ. eigenvalues --  -10.28510 -10.28455 -10.28304 -10.28194 -10.28174
 Alpha  occ. eigenvalues --  -10.28056 -10.28026 -10.28004 -10.27630 -10.27598
 Alpha  occ. eigenvalues --  -10.27571 -10.27490 -10.27331 -10.27275 -10.27197
 Alpha  occ. eigenvalues --  -10.27123 -10.26964 -10.26807 -10.26804 -10.26535
 Alpha  occ. eigenvalues --  -10.26477 -10.26437 -10.26274 -10.26233 -10.26221
 Alpha  occ. eigenvalues --  -10.26195 -10.26083 -10.26066 -10.25931 -10.25799
 Alpha  occ. eigenvalues --  -10.25522 -10.25418 -10.25296 -10.25266 -10.25058
 Alpha  occ. eigenvalues --  -10.24927 -10.24776 -10.24563 -10.24226 -10.24179
 Alpha  occ. eigenvalues --  -10.24110 -10.24056 -10.23634 -10.23626 -10.22856
 Alpha  occ. eigenvalues --   -3.11631  -1.86317  -1.85862  -1.85848  -1.18831
 Alpha  occ. eigenvalues --   -1.17625  -1.12663  -1.09447  -1.09434  -1.04121
 Alpha  occ. eigenvalues --   -1.02864  -1.01994  -1.00894  -0.92327  -0.91788
 Alpha  occ. eigenvalues --   -0.90944  -0.90243  -0.89828  -0.89184  -0.88796
 Alpha  occ. eigenvalues --   -0.88736  -0.88558  -0.87960  -0.87137  -0.86410
 Alpha  occ. eigenvalues --   -0.85476  -0.84375  -0.83467  -0.83257  -0.82886
 Alpha  occ. eigenvalues --   -0.81806  -0.81642  -0.80689  -0.79842  -0.78673
 Alpha  occ. eigenvalues --   -0.77848  -0.77087  -0.76081  -0.75972  -0.75629
 Alpha  occ. eigenvalues --   -0.75363  -0.75172  -0.75033  -0.73446  -0.72990
 Alpha  occ. eigenvalues --   -0.71736  -0.70314  -0.69659  -0.68948  -0.67705
 Alpha  occ. eigenvalues --   -0.66395  -0.65998  -0.65827  -0.65172  -0.64260
 Alpha  occ. eigenvalues --   -0.63084  -0.63046  -0.62873  -0.62145  -0.61693
 Alpha  occ. eigenvalues --   -0.61509  -0.60369  -0.60037  -0.58968  -0.58857
 Alpha  occ. eigenvalues --   -0.58256  -0.57749  -0.57381  -0.57002  -0.56492
 Alpha  occ. eigenvalues --   -0.56428  -0.55824  -0.55486  -0.55379  -0.55080
 Alpha  occ. eigenvalues --   -0.54781  -0.54646  -0.54047  -0.53537  -0.53319
 Alpha  occ. eigenvalues --   -0.53019  -0.52817  -0.52445  -0.52296  -0.51864
 Alpha  occ. eigenvalues --   -0.51543  -0.51143  -0.50988  -0.50754  -0.50724
 Alpha  occ. eigenvalues --   -0.50539  -0.50430  -0.50098  -0.49713  -0.49451
 Alpha  occ. eigenvalues --   -0.49354  -0.49032  -0.48523  -0.48422  -0.47968
 Alpha  occ. eigenvalues --   -0.47864  -0.47778  -0.47641  -0.47458  -0.47168
 Alpha  occ. eigenvalues --   -0.46992  -0.46843  -0.46419  -0.46364  -0.46144
 Alpha  occ. eigenvalues --   -0.45908  -0.45484  -0.45203  -0.45082  -0.44959
 Alpha  occ. eigenvalues --   -0.44747  -0.44721  -0.44432  -0.44358  -0.44140
 Alpha  occ. eigenvalues --   -0.43976  -0.43835  -0.43552  -0.43444  -0.43229
 Alpha  occ. eigenvalues --   -0.43032  -0.42867  -0.42654  -0.42247  -0.42003
 Alpha  occ. eigenvalues --   -0.41766  -0.41501  -0.41282  -0.41180  -0.41091
 Alpha  occ. eigenvalues --   -0.40795  -0.40625  -0.40433  -0.40169  -0.39899
 Alpha  occ. eigenvalues --   -0.39690  -0.39673  -0.39429  -0.39373  -0.38783
 Alpha  occ. eigenvalues --   -0.38459  -0.38092  -0.38040  -0.37902  -0.37618
 Alpha  occ. eigenvalues --   -0.37311  -0.37235  -0.37193  -0.36849  -0.36711
 Alpha  occ. eigenvalues --   -0.36199  -0.36095  -0.36064  -0.35948  -0.35870
 Alpha  occ. eigenvalues --   -0.35641  -0.35408  -0.34723  -0.33910  -0.33863
 Alpha  occ. eigenvalues --   -0.33454  -0.33234  -0.31801  -0.31163  -0.29415
 Alpha  occ. eigenvalues --   -0.29161  -0.29101  -0.28106  -0.27392  -0.23212
 Alpha  occ. eigenvalues --   -0.21135
 Alpha virt. eigenvalues --   -0.06624  -0.02350   0.02117   0.04858   0.05466
 Alpha virt. eigenvalues --    0.05847   0.06774   0.07250   0.07562   0.08379
 Alpha virt. eigenvalues --    0.08801   0.10831   0.11075   0.11344   0.11442

 Mulliken charges:
               1
     1  Mg   0.802613
     2  C    0.081475
     3  C   -0.148866
     4  C   -0.175432
     5  C   -0.174388
     6  N   -0.657041
     7  C    0.263090
     8  C   -0.134151
     9  C   -0.148926
    10  C    0.356077
    11  C   -0.300449
    12  C   -0.161036
    13  C   -0.267553
    14  C    0.626930
    15  O   -0.459519
    16  O   -0.487378
    17  N   -0.743563
    18  C    0.335197
    19  C    0.006637
    20  C   -0.015658
    21  C    0.315125
    22  C   -0.352933
    23  C   -0.045818
    24  C   -0.238292
    25  N   -0.697824
    26  C    0.272680
    27  C    0.064038
    28  C    0.011119
    29  C    0.321072
    30  C   -0.364192
    31  C   -0.257918
    32  C   -0.314110
    33  N   -0.702319
    34  C    0.228439
    35  C    0.156655
    36  C   -0.059316
    37  C    0.299892
    38  C   -0.415803
    39  C    0.375910
    40  O   -0.430514
    41  C   -0.350893
    42  C    0.596219
    43  O   -0.474460
    44  O   -0.442582
    45  C   -0.094152
    46  C    0.025662
    47  C   -0.124301
    48  C    0.144650
    49  C   -0.359112
    50  C   -0.231561
    51  C   -0.164149
    52  C   -0.156760
    53  C   -0.072617
    54  C   -0.304917
    55  C   -0.148204
    56  C   -0.196078
    57  C   -0.180150
    58  C   -0.070079
    59  C   -0.312162
    60  C   -0.127363
    61  C   -0.173202
    62  C   -0.143883
    63  C   -0.103588
    64  C   -0.298906
    65  C   -0.281740
    66  H    0.050944
    67  H    0.085520
    68  H    0.083979
    69  H    0.117421
    70  H    0.099283
    71  H    0.123880
    72  H    0.081842
    73  H    0.136695
    74  H    0.089117
    75  H    0.121253
    76  H    0.119026
    77  H    0.144667
    78  H    0.115790
    79  H    0.136736
    80  H    0.091578
    81  H    0.100684
    82  H    0.100213
    83  H    0.074083
    84  H    0.090952
    85  H    0.116925
    86  H    0.126778
    87  H    0.093150
    88  H    0.105572
    89  H    0.115781
    90  H    0.088198
    91  H    0.124747
    92  H    0.113117
    93  H    0.147247
    94  H    0.133740
    95  H    0.159895
    96  H    0.133189
    97  H    0.160238
    98  H    0.131002
    99  H    0.129019
   100  H    0.083486
   101  H    0.079161
   102  H    0.112476
   103  H    0.102704
   104  H    0.120332
   105  H    0.072959
   106  H    0.087562
   107  H    0.111914
   108  H    0.092953
   109  H    0.100390
   110  H    0.089775
   111  H    0.030638
   112  H    0.087621
   113  H    0.105027
   114  H    0.105447
   115  H    0.093255
   116  H    0.082811
   117  H    0.099957
   118  H    0.093021
   119  H    0.093200
   120  H    0.088161
   121  H    0.077437
   122  H    0.077368
   123  H    0.098425
   124  H    0.104766
   125  H    0.077524
   126  H    0.095779
   127  H    0.085836
   128  H    0.060900
   129  H    0.076550
   130  H    0.101921
   131  H    0.082190
   132  H    0.099547
   133  H    0.068539
   134  H    0.117960
   135  H    0.104134
   136  H    0.077801
   137  H    0.098590
 Sum of Mulliken charges =   0.00000

 Dipole moment (field-independent basis, Debye):
    X=              1.4287    Y=              2.7315    Z=              1.6956  Tot=              3.5181
 Quadrupole moment (field-independent basis, Debye-Ang):
   XX=           -340.5300   YY=           -388.8346   ZZ=           -398.0280
   XY=            -24.0665   XZ=             13.4460   YZ=             -4.1333

 Normal termination of Gaussian 09 at Fri Jun 28 22:09:07 2019.
