 Gaussian 09, Revision D.01,
 Gaussian 09:  ES64L-G09RevD.01 24-Apr-2013

 -------------------------------------
 # td=(NStates=1) CAM-B3LYP/6-31G(d,p)
 -------------------------------------

 --
 TD
 --
 Symbolic Z-matrix:
 Charge =  0 Multiplicity = 1

                         Standard orientation:
 ---------------------------------------------------------------------
 Center     Atomic      Atomic             Coordinates (Angstroms)
 Number     Number       Type             X           Y           Z
 ---------------------------------------------------------------------
      1         12           0       -7.197980    0.591757    0.214897
      2          6           0       -4.846396   -2.038871    0.468069
      3          6           0       -4.743462    2.843357    1.284353
      4          6           0       -9.470169    3.161735   -0.341515
      5          6           0       -9.504177   -1.741946   -0.763701
      6          7           0       -5.195910    0.411474    0.852769
      7          6           0       -4.391615   -0.744441    0.782146
      8          6           0       -2.923587   -0.453043    1.089510
      9          6           0       -2.975508    1.033534    1.563821
     10          6           0       -4.334984    1.493334    1.100202
     11          6           0       -2.822582    1.182151    3.129759
     12          6           0       -1.941985   -0.604809    0.005260
     13          6           0       -0.488801   -0.475394    0.427484
     14          6           0        0.521759   -0.610872   -0.686456
     15          8           0        0.298011   -1.060647   -1.764740
     16          8           0        1.827324   -0.451571   -0.268776
     17          7           0       -7.162206    2.621570    0.458058
     18          6           0       -6.065978    3.363815    0.913918
     19          6           0       -6.396835    4.769387    0.879158
     20          6           0       -7.740149    4.881277    0.420257
     21          6           0       -8.234468    3.513647    0.132592
     22          6           0       -5.476184    5.899251    1.382177
     23          6           0       -8.661443    6.016297    0.285484
     24          6           0       -8.284334    7.273353    0.122323
     25          7           0       -9.233997    0.691385   -0.404789
     26          6           0       -9.909627    1.849958   -0.594239
     27          6           0      -11.252642    1.467564   -1.135780
     28          6           0      -11.271632    0.059911   -1.251786
     29          6           0       -9.898632   -0.389780   -0.782286
     30          6           0      -12.344576    2.588714   -1.335018
     31          6           0      -12.371626   -0.779315   -1.763008
     32          6           0      -12.322229   -1.197263   -3.188424
     33          7           0       -7.246199   -1.441201   -0.073303
     34          6           0       -8.254557   -2.257354   -0.458775
     35          6           0       -7.822680   -3.642818   -0.473760
     36          6           0       -6.493118   -3.602917   -0.176416
     37          6           0       -6.182235   -2.230210    0.115678
     38          6           0       -8.698098   -4.860222   -0.810555
     39          6           0       -5.315499   -4.352228    0.249087
     40          8           0       -5.207513   -5.579047    0.252221
     41          6           0       -4.104328   -3.321209    0.528285
     42          6           0       -3.410266   -3.697792    1.862408
     43          8           0       -3.630608   -3.133874    2.898296
     44          8           0       -2.501216   -4.728119    1.656353
     45          6           0       -2.061765   -5.282754    2.800320
     46          6           0        2.816963   -0.660704   -1.248243
     47          6           0        4.074733   -0.393463   -0.583893
     48          6           0        5.091451    0.332607   -1.052342
     49          6           0        5.064649    1.151678   -2.387488
     50          6           0        6.405271    0.479164   -0.325903
     51          6           0        7.657585   -0.061437   -1.009454
     52          6           0        8.951378   -0.046587   -0.177518
     53          6           0       10.248405   -0.530727   -0.769103
     54          6           0       10.013155   -1.919251   -1.283292
     55          6           0       11.360689   -0.323109    0.122375
     56          6           0       12.682244   -0.405037   -0.668717
     57          6           0       13.947989   -0.131484    0.226851
     58          6           0       15.295270   -0.105667   -0.428080
     59          6           0       15.596992   -1.488125   -0.944322
     60          6           0       16.440183    0.306824    0.515515
     61          6           0       17.771857    0.565825   -0.204542
     62          6           0       18.758084    1.267121    0.724328
     63          6           0       20.234530    1.246914    0.191442
     64          6           0       20.303287    2.181011   -1.074209
     65          6           0       21.185636    1.754188    1.367786
     66          1           0       -4.018424    3.390073    1.760799
     67          1           0      -10.059065    4.082062   -0.468298
     68          1           0      -10.036766   -2.474345   -1.256092
     69          1           0       -2.421993   -1.107634    1.788047
     70          1           0       -2.206160    1.677367    1.126781
     71          1           0       -1.871527    0.706340    3.447579
     72          1           0       -2.578337    2.418499    3.412718
     73          1           0       -3.824947    0.822937    3.550403
     74          1           0       -2.151489   -1.576951   -0.522742
     75          1           0       -2.022715    0.290424   -0.828895
     76          1           0       -0.310907    0.510662    0.950423
     77          1           0       -0.450226   -1.137983    1.221497
     78          1           0       -4.732914    6.198286    0.499588
     79          1           0       -6.096936    6.814099    1.768690
     80          1           0       -4.760128    5.457151    2.087078
     81          1           0       -9.720616    5.833731    0.343974
     82          1           0       -9.070222    7.876791    0.211439
     83          1           0       -7.252584    7.823963   -0.095894
     84          1           0      -12.065378    3.077250   -2.429359
     85          1           0      -13.365086    2.022176   -1.396020
     86          1           0      -12.217132    3.419460   -0.585434
     87          1           0      -12.465442   -1.793536   -1.075554
     88          1           0      -13.318642   -0.260523   -1.574346
     89          1           0      -13.252938   -1.482955   -3.745592
     90          1           0      -12.235404   -0.060240   -3.677252
     91          1           0      -11.409807   -1.731655   -3.432475
     92          1           0       -9.230469   -4.942537   -1.726616
     93          1           0       -8.231024   -5.720540   -0.838831
     94          1           0       -9.218010   -5.090249    0.206387
     95          1           0       -3.536809   -3.668640   -0.329365
     96          1           0       -1.412495   -4.459301    3.193487
     97          1           0       -2.863900   -5.642695    3.311099
     98          1           0       -1.455750   -6.100721    2.557557
     99          1           0        2.696291   -1.733076   -1.588766
    100          1           0        2.540241   -0.126931   -1.997176
    101          1           0        4.221231   -0.918456    0.357523
    102          1           0        4.161419    1.337455   -2.771987
    103          1           0        5.346314    2.167506   -2.161283
    104          1           0        5.489211    0.458638   -3.140286
    105          1           0        6.695393    1.525536   -0.111961
    106          1           0        6.384769   -0.002903    0.679993
    107          1           0        7.386079   -1.078359   -1.495083
    108          1           0        7.679711    0.588973   -1.973040
    109          1           0        8.912149    1.096879    0.129017
    110          1           0        8.776917   -0.725506    0.731052
    111          1           0       10.297431    0.154810   -1.595635
    112          1           0        9.170273   -2.017757   -1.880014
    113          1           0       10.893652   -2.232529   -2.173101
    114          1           0       10.148672   -2.740618   -0.610932
    115          1           0       11.296619    0.570316    0.758403
    116          1           0       11.601631   -1.106548    0.836099
    117          1           0       12.809764   -1.315388   -1.147166
    118          1           0       12.951283    0.371708   -1.518895
    119          1           0       13.991601    0.801937    0.715259
    120          1           0       13.766449   -0.888859    0.909995
    121          1           0       15.241166    0.427800   -1.251681
    122          1           0       15.481433   -2.417828   -0.273928
    123          1           0       14.887312   -1.644936   -1.662074
    124          1           0       16.704711   -1.525459   -1.393439
    125          1           0       16.161412    1.335168    1.097273
    126          1           0       16.442397   -0.449717    1.216769
    127          1           0       18.248863   -0.304400   -0.518272
    128          1           0       17.645105    1.158094   -1.063163
    129          1           0       18.411727    2.458916    1.077615
    130          1           0       18.728487    0.922077    1.747761
    131          1           0       20.215208    0.172463    0.183623
    132          1           0       20.102718    3.262639   -0.878200
    133          1           0       21.444096    2.222451   -1.252317
    134          1           0       19.889112    1.737202   -1.841874
    135          1           0       21.270123    1.146272    2.274387
    136          1           0       22.327826    1.880799    1.205039
    137          1           0       20.965741    2.800522    1.700357
 ---------------------------------------------------------------------

 SCF Done:  E(RCAM-B3LYP) =  -2932.68129508     A.U. after   18 cycles

 Excitation energies and oscillator strengths:

 Excited State   1:      Singlet-A      1.9753 eV  627.67 nm  f=0.2603  <S**2>=0.000
     240 -> 243        0.24510
     241 -> 242        0.65796
 This state for optimization and/or second-order correction.
 Total Energy, E(TD-HF/TD-KS) =  -2932.60870360
 Copying the excited state density for this state as the 1-particle RhoCI density.

 The electronic state is 1-A.
 Alpha  occ. eigenvalues --  -46.84847 -19.26007 -19.25077 -19.22335 -19.21503
 Alpha  occ. eigenvalues --  -19.20557 -14.42488 -14.39827 -14.39763 -14.39656
 Alpha  occ. eigenvalues --  -10.40285 -10.39494 -10.35710 -10.31747 -10.31384
 Alpha  occ. eigenvalues --  -10.31082 -10.29821 -10.29468 -10.29426 -10.29387
 Alpha  occ. eigenvalues --  -10.29375 -10.29236 -10.29088 -10.28996 -10.28931
 Alpha  occ. eigenvalues --  -10.28801 -10.28643 -10.27982 -10.27939 -10.27884
 Alpha  occ. eigenvalues --  -10.27836 -10.27638 -10.27591 -10.27505 -10.27503
 Alpha  occ. eigenvalues --  -10.27399 -10.27333 -10.27092 -10.27074 -10.27070
 Alpha  occ. eigenvalues --  -10.27064 -10.26872 -10.26572 -10.26503 -10.26436
 Alpha  occ. eigenvalues --  -10.26320 -10.26304 -10.26004 -10.25905 -10.25684
 Alpha  occ. eigenvalues --  -10.25626 -10.25477 -10.25407 -10.25352 -10.25283
 Alpha  occ. eigenvalues --  -10.25256 -10.25120 -10.25081 -10.25080 -10.25071
 Alpha  occ. eigenvalues --  -10.24689 -10.24244 -10.24223 -10.23760 -10.23006
 Alpha  occ. eigenvalues --   -3.13736  -1.88462  -1.87960  -1.87912  -1.19353
 Alpha  occ. eigenvalues --   -1.18716  -1.11598  -1.10450  -1.10136  -1.05310
 Alpha  occ. eigenvalues --   -1.03373  -1.02427  -1.00676  -0.93240  -0.92288
 Alpha  occ. eigenvalues --   -0.91489  -0.90928  -0.90250  -0.89124  -0.88466
 Alpha  occ. eigenvalues --   -0.88183  -0.87857  -0.87667  -0.86877  -0.86236
 Alpha  occ. eigenvalues --   -0.85325  -0.84289  -0.83550  -0.83266  -0.82303
 Alpha  occ. eigenvalues --   -0.81962  -0.81584  -0.80551  -0.80307  -0.78901
 Alpha  occ. eigenvalues --   -0.77647  -0.77015  -0.76372  -0.75870  -0.75742
 Alpha  occ. eigenvalues --   -0.75688  -0.74833  -0.74343  -0.73530  -0.72784
 Alpha  occ. eigenvalues --   -0.71711  -0.70297  -0.69529  -0.68653  -0.68411
 Alpha  occ. eigenvalues --   -0.67190  -0.66877  -0.65555  -0.65270  -0.64938
 Alpha  occ. eigenvalues --   -0.64511  -0.64413  -0.64034  -0.63061  -0.62833
 Alpha  occ. eigenvalues --   -0.62630  -0.61702  -0.59944  -0.59550  -0.59412
 Alpha  occ. eigenvalues --   -0.59250  -0.58582  -0.58100  -0.57690  -0.57438
 Alpha  occ. eigenvalues --   -0.56943  -0.56541  -0.55784  -0.55145  -0.55120
 Alpha  occ. eigenvalues --   -0.54644  -0.54256  -0.54228  -0.53754  -0.53498
 Alpha  occ. eigenvalues --   -0.53203  -0.52932  -0.52477  -0.52103  -0.52002
 Alpha  occ. eigenvalues --   -0.51921  -0.51747  -0.51524  -0.51100  -0.51008
 Alpha  occ. eigenvalues --   -0.50814  -0.50585  -0.50494  -0.49988  -0.49974
 Alpha  occ. eigenvalues --   -0.49693  -0.49382  -0.48963  -0.48614  -0.48436
 Alpha  occ. eigenvalues --   -0.48333  -0.48230  -0.48030  -0.47691  -0.47386
 Alpha  occ. eigenvalues --   -0.47189  -0.47119  -0.46826  -0.46469  -0.46441
 Alpha  occ. eigenvalues --   -0.46357  -0.45581  -0.45549  -0.45383  -0.45152
 Alpha  occ. eigenvalues --   -0.44962  -0.44807  -0.44695  -0.44478  -0.44156
 Alpha  occ. eigenvalues --   -0.44104  -0.43762  -0.43635  -0.43548  -0.43106
 Alpha  occ. eigenvalues --   -0.42981  -0.42895  -0.42800  -0.42487  -0.42200
 Alpha  occ. eigenvalues --   -0.42166  -0.41863  -0.41754  -0.41418  -0.41286
 Alpha  occ. eigenvalues --   -0.41114  -0.40912  -0.40754  -0.40559  -0.40505
 Alpha  occ. eigenvalues --   -0.40199  -0.40086  -0.40025  -0.39679  -0.39160
 Alpha  occ. eigenvalues --   -0.39118  -0.38569  -0.38314  -0.37762  -0.37573
 Alpha  occ. eigenvalues --   -0.37037  -0.36990  -0.36751  -0.36521  -0.36259
 Alpha  occ. eigenvalues --   -0.35907  -0.35857  -0.35751  -0.35710  -0.35500
 Alpha  occ. eigenvalues --   -0.35378  -0.35218  -0.34758  -0.34343  -0.34126
 Alpha  occ. eigenvalues --   -0.33256  -0.32944  -0.32544  -0.31074  -0.30315
 Alpha  occ. eigenvalues --   -0.29947  -0.29922  -0.27967  -0.27023  -0.23537
 Alpha  occ. eigenvalues --   -0.21239
 Alpha virt. eigenvalues --   -0.06838  -0.03387   0.01338   0.04016   0.05228
 Alpha virt. eigenvalues --    0.05486   0.06105   0.06329   0.06719   0.06949
 Alpha virt. eigenvalues --    0.07666   0.10240   0.11085   0.11393   0.11793

 Mulliken charges:
               1
     1  Mg   0.819039
     2  C    0.069913
     3  C   -0.185390
     4  C   -0.142207
     5  C   -0.139132
     6  N   -0.641375
     7  C    0.316872
     8  C   -0.144213
     9  C   -0.153317
    10  C    0.310810
    11  C   -0.279574
    12  C   -0.164473
    13  C   -0.268648
    14  C    0.604625
    15  O   -0.444538
    16  O   -0.496840
    17  N   -0.728935
    18  C    0.318704
    19  C    0.004742
    20  C    0.023137
    21  C    0.279568
    22  C   -0.362114
    23  C   -0.110178
    24  C   -0.221552
    25  N   -0.689348
    26  C    0.293451
    27  C    0.002638
    28  C    0.014783
    29  C    0.312608
    30  C   -0.348380
    31  C   -0.241188
    32  C   -0.289429
    33  N   -0.730008
    34  C    0.266809
    35  C   -0.008739
    36  C    0.026317
    37  C    0.300235
    38  C   -0.373315
    39  C    0.339534
    40  O   -0.465994
    41  C   -0.313564
    42  C    0.624115
    43  O   -0.451140
    44  O   -0.449774
    45  C   -0.068733
    46  C    0.050968
    47  C   -0.130816
    48  C    0.099283
    49  C   -0.365333
    50  C   -0.222703
    51  C   -0.188726
    52  C   -0.167230
    53  C   -0.029365
    54  C   -0.309395
    55  C   -0.172161
    56  C   -0.202989
    57  C   -0.171210
    58  C   -0.063483
    59  C   -0.310558
    60  C   -0.162478
    61  C   -0.178897
    62  C   -0.171281
    63  C   -0.059828
    64  C   -0.302818
    65  C   -0.329469
    66  H    0.078742
    67  H    0.092169
    68  H    0.092024
    69  H    0.114644
    70  H    0.108381
    71  H    0.115568
    72  H    0.063675
    73  H    0.135828
    74  H    0.118359
    75  H    0.078044
    76  H    0.124341
    77  H    0.141561
    78  H    0.107794
    79  H    0.121166
    80  H    0.118862
    81  H    0.103803
    82  H    0.094901
    83  H    0.110575
    84  H    0.104037
    85  H    0.111380
    86  H    0.121965
    87  H    0.072220
    88  H    0.103345
    89  H    0.114865
    90  H    0.069809
    91  H    0.116231
    92  H    0.129318
    93  H    0.152200
    94  H    0.122320
    95  H    0.174800
    96  H    0.105230
    97  H    0.129414
    98  H    0.121028
    99  H    0.112451
   100  H    0.113006
   101  H    0.093626
   102  H    0.118026
   103  H    0.120655
   104  H    0.130310
   105  H    0.095829
   106  H    0.092220
   107  H    0.081127
   108  H    0.081991
   109  H    0.074104
   110  H    0.079239
   111  H    0.102634
   112  H    0.124145
   113  H    0.049489
   114  H    0.114766
   115  H    0.101370
   116  H    0.096502
   117  H    0.111561
   118  H    0.063657
   119  H    0.087442
   120  H    0.086846
   121  H    0.091854
   122  H    0.086416
   123  H    0.107468
   124  H    0.073673
   125  H    0.061766
   126  H    0.104410
   127  H    0.101113
   128  H    0.108541
   129  H    0.029480
   130  H    0.095843
   131  H    0.102370
   132  H    0.115186
   133  H    0.090432
   134  H    0.119069
   135  H    0.103681
   136  H    0.081218
   137  H    0.100572
 Sum of Mulliken charges =   0.00000

 Dipole moment (field-independent basis, Debye):
    X=              0.8323    Y=              3.4150    Z=             -0.1183  Tot=              3.5170
 Quadrupole moment (field-independent basis, Debye-Ang):
   XX=           -365.6054   YY=           -386.3619   ZZ=           -401.3323
   XY=            -21.4933   XZ=             10.0685   YZ=             -1.1951

 Normal termination of Gaussian 09 at Fri Jun 28 21:47:56 2019.
