 Gaussian 09, Revision D.01,
 Gaussian 09:  ES64L-G09RevD.01 24-Apr-2013

 -------------------------------------
 # td=(NStates=1) CAM-B3LYP/6-31G(d,p)
 -------------------------------------

 --
 TD
 --
 Symbolic Z-matrix:
 Charge =  0 Multiplicity = 1

                         Standard orientation:
 ---------------------------------------------------------------------
 Center     Atomic      Atomic             Coordinates (Angstroms)
 Number     Number       Type             X           Y           Z
 ---------------------------------------------------------------------
      1         12           0       -7.144028    0.620045    0.083312
      2          6           0       -4.899859   -1.895050    0.477356
      3          6           0       -4.758922    2.882243    1.086198
      4          6           0       -9.366760    3.032531   -0.395420
      5          6           0       -9.654176   -1.775500   -0.795587
      6          7           0       -5.111497    0.475974    0.669347
      7          6           0       -4.352797   -0.613861    0.827506
      8          6           0       -2.896124   -0.309646    1.177535
      9          6           0       -3.028585    1.163590    1.636720
     10          6           0       -4.402718    1.532432    1.042556
     11          6           0       -2.978026    1.285843    3.117092
     12          6           0       -1.923421   -0.537506   -0.026315
     13          6           0       -0.429727   -0.490877    0.608467
     14          6           0        0.572862   -0.796668   -0.558549
     15          8           0        0.253451   -1.144962   -1.653736
     16          8           0        1.842503   -0.622987   -0.128503
     17          7           0       -7.132463    2.583434    0.398185
     18          6           0       -6.064342    3.411216    0.770683
     19          6           0       -6.543524    4.787166    0.843554
     20          6           0       -7.849904    4.838005    0.403172
     21          6           0       -8.199643    3.432409    0.137652
     22          6           0       -5.575186    5.858833    1.253591
     23          6           0       -8.692399    5.991879    0.224883
     24          6           0       -8.189735    7.244310    0.124577
     25          7           0       -9.186433    0.573862   -0.501252
     26          6           0       -9.889974    1.704728   -0.648357
     27          6           0      -11.181591    1.409344   -1.128962
     28          6           0      -11.292408    0.090454   -1.157322
     29          6           0      -10.017779   -0.459899   -0.757049
     30          6           0      -12.271071    2.444265   -1.440434
     31          6           0      -12.439094   -0.795677   -1.593471
     32          6           0      -12.459765   -1.071368   -3.158935
     33          7           0       -7.206024   -1.359748   -0.287249
     34          6           0       -8.272436   -2.279133   -0.532471
     35          6           0       -7.732187   -3.638488   -0.533083
     36          6           0       -6.533184   -3.633780   -0.070748
     37          6           0       -6.179095   -2.117571    0.035976
     38          6           0       -8.620554   -4.871514   -1.007550
     39          6           0       -5.249481   -4.359240    0.316342
     40          8           0       -5.174717   -5.566381    0.278867
     41          6           0       -4.149649   -3.274925    0.516950
     42          6           0       -3.407961   -3.572129    1.828195
     43          8           0       -3.532781   -3.092378    2.968101
     44          8           0       -2.628337   -4.737972    1.545207
     45          6           0       -1.996084   -5.188383    2.768370
     46          6           0        2.806209   -0.731071   -1.137212
     47          6           0        4.134346   -0.513801   -0.436606
     48          6           0        5.082053    0.411344   -0.766111
     49          6           0        4.991451    1.270919   -2.002943
     50          6           0        6.393637    0.489838   -0.002557
     51          6           0        7.554004   -0.216863   -0.759859
     52          6           0        8.939121   -0.134513   -0.040299
     53          6           0       10.159872   -0.477300   -0.772296
     54          6           0       10.213505   -1.931067   -1.265414
     55          6           0       11.509262   -0.183524    0.111660
     56          6           0       12.724991   -0.483298   -0.652943
     57          6           0       13.980669   -0.103237    0.196681
     58          6           0       15.349218   -0.222361   -0.474787
     59          6           0       15.573474   -1.701622   -0.952759
     60          6           0       16.477519    0.397038    0.324542
     61          6           0       17.847541    0.446322   -0.389257
     62          6           0       18.740824    1.325851    0.635232
     63          6           0       20.185682    1.389576    0.135370
     64          6           0       20.388406    2.079581   -1.174568
     65          6           0       21.137127    2.085009    1.225341
     66          1           0       -4.097879    3.681808    1.615120
     67          1           0      -10.030403    3.762451   -0.715354
     68          1           0      -10.395759   -2.549579   -1.121467
     69          1           0       -2.610019   -0.926553    2.076130
     70          1           0       -2.185962    1.675906    1.174991
     71          1           0       -1.974070    0.919948    3.458619
     72          1           0       -3.511738    2.204899    3.383673
     73          1           0       -3.560892    0.333966    3.372489
     74          1           0       -2.045514   -1.512117   -0.407539
     75          1           0       -1.839174    0.115968   -0.833821
     76          1           0       -0.227280    0.466299    1.039102
     77          1           0       -0.276186   -1.231239    1.309942
     78          1           0       -4.768348    5.980387    0.543426
     79          1           0       -6.440067    6.645180    1.360639
     80          1           0       -5.037365    5.601138    2.204443
     81          1           0       -9.686457    5.549987    0.401760
     82          1           0       -8.719964    8.223878    0.271920
     83          1           0       -7.089035    7.573099    0.157173
     84          1           0      -11.948252    3.101764   -2.339799
     85          1           0      -13.199458    2.010766   -1.664524
     86          1           0      -12.612019    3.168705   -0.625104
     87          1           0      -12.686172   -1.660152   -1.065783
     88          1           0      -13.239504   -0.379336   -1.290961
     89          1           0      -13.148163   -1.672698   -3.494168
     90          1           0      -12.518210   -0.130837   -3.623977
     91          1           0      -11.420697   -1.250591   -3.311079
     92          1           0       -8.636110   -4.713446   -2.172100
     93          1           0       -8.320103   -5.808645   -0.428314
     94          1           0       -9.838085   -4.556981   -0.677408
     95          1           0       -3.265875   -3.471711   -0.277644
     96          1           0       -1.436561   -4.343728    3.413092
     97          1           0       -2.620420   -5.658693    3.542946
     98          1           0       -1.164284   -5.798622    2.351309
     99          1           0        2.828418   -1.776610   -1.662233
    100          1           0        2.473655    0.224085   -1.859918
    101          1           0        4.429376   -1.210515    0.366660
    102          1           0        3.929248    1.434118   -2.133068
    103          1           0        5.507834    2.233447   -1.985863
    104          1           0        5.262622    0.656197   -3.021864
    105          1           0        6.623603    1.528489    0.402622
    106          1           0        6.254960   -0.024039    1.030938
    107          1           0        7.388753   -1.388026   -0.932973
    108          1           0        7.809323    0.337032   -1.762275
    109          1           0        9.241617    0.795420    0.198945
    110          1           0        8.854908   -0.520198    0.959468
    111          1           0       10.403924    0.143417   -1.647154
    112          1           0        9.279759   -2.222014   -1.748988
    113          1           0       11.254109   -2.137220   -1.699756
    114          1           0       10.147812   -2.551115   -0.342495
    115          1           0       11.267592    0.745261    0.508969
    116          1           0       11.404871   -0.954600    1.091220
    117          1           0       12.831607   -1.580257   -1.058707
    118          1           0       12.996376    0.025068   -1.656981
    119          1           0       13.745255    0.989935    0.361774
    120          1           0       13.909232   -0.693490    1.031861
    121          1           0       15.244154    0.394499   -1.338276
    122          1           0       15.674283   -2.379772   -0.179734
    123          1           0       14.897699   -2.010805   -1.703953
    124          1           0       16.546993   -1.661582   -1.519705
    125          1           0       16.151818    1.424247    0.338080
    126          1           0       16.461014   -0.007858    1.368607
    127          1           0       18.273045   -0.421515   -0.340792
    128          1           0       17.487874    0.944961   -1.241492
    129          1           0       18.291681    2.310149    0.639023
    130          1           0       18.548911    0.783647    1.620881
    131          1           0       20.540825    0.257004    0.124492
    132          1           0       19.912713    2.985397   -1.108304
    133          1           0       21.602752    1.944653   -1.258285
    134          1           0       19.809666    1.456099   -2.020463
    135          1           0       21.213595    1.541755    2.215057
    136          1           0       22.150377    2.305374    0.771507
    137          1           0       20.418377    2.941242    1.366973
 ---------------------------------------------------------------------

 SCF Done:  E(RCAM-B3LYP) =  -2932.66276457     A.U. after   18 cycles

 Excitation energies and oscillator strengths:

 Excited State   1:      Singlet-A      2.0737 eV  597.89 nm  f=0.2483  <S**2>=0.000
     240 -> 242       -0.11578
     240 -> 243        0.25254
     241 -> 242        0.63389
     241 -> 243        0.12497
 This state for optimization and/or second-order correction.
 Total Energy, E(TD-HF/TD-KS) =  -2932.58655775
 Copying the excited state density for this state as the 1-particle RhoCI density.

 The electronic state is 1-A.
 Alpha  occ. eigenvalues --  -46.84538 -19.26828 -19.26663 -19.22964 -19.21878
 Alpha  occ. eigenvalues --  -19.21313 -14.42318 -14.39953 -14.39686 -14.38551
 Alpha  occ. eigenvalues --  -10.40786 -10.39480 -10.36508 -10.33973 -10.31779
 Alpha  occ. eigenvalues --  -10.31447 -10.31144 -10.31018 -10.30249 -10.29814
 Alpha  occ. eigenvalues --  -10.29286 -10.29094 -10.29081 -10.28572 -10.28128
 Alpha  occ. eigenvalues --  -10.28104 -10.28042 -10.28000 -10.28000 -10.27875
 Alpha  occ. eigenvalues --  -10.27825 -10.27518 -10.27350 -10.27332 -10.27320
 Alpha  occ. eigenvalues --  -10.27144 -10.26930 -10.26896 -10.26848 -10.26681
 Alpha  occ. eigenvalues --  -10.26628 -10.26525 -10.26422 -10.26415 -10.26404
 Alpha  occ. eigenvalues --  -10.26352 -10.26299 -10.26260 -10.26189 -10.26030
 Alpha  occ. eigenvalues --  -10.25560 -10.25493 -10.25359 -10.25351 -10.25218
 Alpha  occ. eigenvalues --  -10.25039 -10.25019 -10.24410 -10.24085 -10.24031
 Alpha  occ. eigenvalues --  -10.23859 -10.23772 -10.23645 -10.23587 -10.22994
 Alpha  occ. eigenvalues --   -3.13607  -1.88312  -1.87870  -1.87768  -1.19747
 Alpha  occ. eigenvalues --   -1.16269  -1.12052  -1.11241  -1.08699  -1.06165
 Alpha  occ. eigenvalues --   -1.04224  -1.03038  -1.02219  -0.91532  -0.91204
 Alpha  occ. eigenvalues --   -0.90589  -0.90405  -0.89939  -0.89641  -0.88860
 Alpha  occ. eigenvalues --   -0.88288  -0.88181  -0.87576  -0.86914  -0.85954
 Alpha  occ. eigenvalues --   -0.85253  -0.84324  -0.82972  -0.82845  -0.82708
 Alpha  occ. eigenvalues --   -0.81541  -0.80616  -0.79970  -0.79280  -0.77780
 Alpha  occ. eigenvalues --   -0.77134  -0.76894  -0.76304  -0.75453  -0.75194
 Alpha  occ. eigenvalues --   -0.74673  -0.74493  -0.74172  -0.73375  -0.72644
 Alpha  occ. eigenvalues --   -0.71624  -0.71169  -0.70655  -0.69286  -0.68826
 Alpha  occ. eigenvalues --   -0.67394  -0.67105  -0.65696  -0.65287  -0.64626
 Alpha  occ. eigenvalues --   -0.63416  -0.63261  -0.62794  -0.62285  -0.61958
 Alpha  occ. eigenvalues --   -0.61126  -0.60891  -0.60788  -0.59734  -0.59432
 Alpha  occ. eigenvalues --   -0.58617  -0.58105  -0.57581  -0.57114  -0.56495
 Alpha  occ. eigenvalues --   -0.56468  -0.56220  -0.55727  -0.55196  -0.54523
 Alpha  occ. eigenvalues --   -0.54344  -0.54101  -0.54025  -0.53876  -0.53017
 Alpha  occ. eigenvalues --   -0.52959  -0.52731  -0.52647  -0.52493  -0.52265
 Alpha  occ. eigenvalues --   -0.51705  -0.51332  -0.51172  -0.51030  -0.50460
 Alpha  occ. eigenvalues --   -0.50218  -0.50083  -0.50027  -0.49879  -0.49867
 Alpha  occ. eigenvalues --   -0.49464  -0.49125  -0.48949  -0.48705  -0.48393
 Alpha  occ. eigenvalues --   -0.48238  -0.48004  -0.47593  -0.47487  -0.47104
 Alpha  occ. eigenvalues --   -0.46889  -0.46640  -0.46590  -0.46209  -0.45986
 Alpha  occ. eigenvalues --   -0.45956  -0.45636  -0.45500  -0.45259  -0.45111
 Alpha  occ. eigenvalues --   -0.45024  -0.44640  -0.44596  -0.44341  -0.44146
 Alpha  occ. eigenvalues --   -0.43970  -0.43793  -0.43569  -0.43485  -0.43322
 Alpha  occ. eigenvalues --   -0.43260  -0.43116  -0.42761  -0.42493  -0.42392
 Alpha  occ. eigenvalues --   -0.42123  -0.41957  -0.41780  -0.41574  -0.41303
 Alpha  occ. eigenvalues --   -0.41253  -0.41196  -0.40792  -0.40538  -0.40431
 Alpha  occ. eigenvalues --   -0.39960  -0.39903  -0.39393  -0.39020  -0.38895
 Alpha  occ. eigenvalues --   -0.38736  -0.38419  -0.38393  -0.38203  -0.37968
 Alpha  occ. eigenvalues --   -0.37693  -0.37381  -0.36933  -0.36479  -0.36365
 Alpha  occ. eigenvalues --   -0.36213  -0.36172  -0.36011  -0.35913  -0.35883
 Alpha  occ. eigenvalues --   -0.35588  -0.35225  -0.34668  -0.34488  -0.34013
 Alpha  occ. eigenvalues --   -0.33536  -0.32633  -0.32041  -0.31744  -0.30475
 Alpha  occ. eigenvalues --   -0.30137  -0.29460  -0.28711  -0.27747  -0.23472
 Alpha  occ. eigenvalues --   -0.20402
 Alpha virt. eigenvalues --   -0.05600  -0.03281   0.00923   0.02828   0.04344
 Alpha virt. eigenvalues --    0.05421   0.05964   0.06506   0.06667   0.06909
 Alpha virt. eigenvalues --    0.07753   0.10641   0.11383   0.11461   0.11821

 Mulliken charges:
               1
     1  Mg   0.811284
     2  C    0.028899
     3  C   -0.222908
     4  C   -0.181386
     5  C   -0.187513
     6  N   -0.615048
     7  C    0.308958
     8  C   -0.179677
     9  C   -0.135779
    10  C    0.349388
    11  C   -0.300915
    12  C   -0.170961
    13  C   -0.280824
    14  C    0.586786
    15  O   -0.452819
    16  O   -0.450916
    17  N   -0.726535
    18  C    0.304580
    19  C   -0.017333
    20  C    0.021927
    21  C    0.328339
    22  C   -0.362574
    23  C   -0.028023
    24  C   -0.291691
    25  N   -0.683773
    26  C    0.282260
    27  C    0.043887
    28  C   -0.019409
    29  C    0.303524
    30  C   -0.375080
    31  C   -0.230125
    32  C   -0.314261
    33  N   -0.698952
    34  C    0.222673
    35  C   -0.048088
    36  C    0.049796
    37  C    0.286746
    38  C   -0.340086
    39  C    0.410386
    40  O   -0.433048
    41  C   -0.309613
    42  C    0.618681
    43  O   -0.470526
    44  O   -0.462795
    45  C   -0.082090
    46  C    0.011912
    47  C   -0.123674
    48  C    0.114842
    49  C   -0.352344
    50  C   -0.234784
    51  C   -0.162166
    52  C   -0.171609
    53  C   -0.075477
    54  C   -0.306134
    55  C   -0.163478
    56  C   -0.191076
    57  C   -0.162781
    58  C   -0.076999
    59  C   -0.321703
    60  C   -0.193115
    61  C   -0.159125
    62  C   -0.184854
    63  C   -0.070790
    64  C   -0.274231
    65  C   -0.298808
    66  H    0.081784
    67  H    0.079946
    68  H    0.103965
    69  H    0.124298
    70  H    0.100165
    71  H    0.113741
    72  H    0.117011
    73  H    0.116252
    74  H    0.124370
    75  H    0.131515
    76  H    0.134321
    77  H    0.143141
    78  H    0.133147
    79  H    0.105623
    80  H    0.110593
    81  H    0.110513
    82  H    0.108999
    83  H    0.123670
    84  H    0.108131
    85  H    0.121865
    86  H    0.108965
    87  H    0.099163
    88  H    0.101622
    89  H    0.110922
    90  H    0.111675
    91  H    0.115566
    92  H    0.136566
    93  H    0.147927
    94  H    0.075850
    95  H    0.170985
    96  H    0.103416
    97  H    0.139010
    98  H    0.120548
    99  H    0.126059
   100  H    0.098158
   101  H    0.095946
   102  H    0.112085
   103  H    0.114878
   104  H    0.107458
   105  H    0.101716
   106  H    0.086851
   107  H    0.092152
   108  H    0.090686
   109  H    0.094677
   110  H    0.089228
   111  H    0.086717
   112  H    0.097878
   113  H    0.093818
   114  H    0.087940
   115  H    0.102050
   116  H    0.062650
   117  H    0.091361
   118  H    0.081102
   119  H    0.078521
   120  H    0.096906
   121  H    0.074932
   122  H    0.110379
   123  H    0.106840
   124  H    0.089794
   125  H    0.092168
   126  H    0.079402
   127  H    0.110597
   128  H    0.101242
   129  H    0.086956
   130  H    0.092851
   131  H    0.060233
   132  H    0.113856
   133  H    0.091425
   134  H    0.089758
   135  H    0.098431
   136  H    0.093852
   137  H    0.094208
 Sum of Mulliken charges =   0.00000

 Dipole moment (field-independent basis, Debye):
    X=              1.8426    Y=              4.7270    Z=              0.5473  Tot=              5.1029
 Quadrupole moment (field-independent basis, Debye-Ang):
   XX=           -362.0829   YY=           -396.4025   ZZ=           -402.8805
   XY=            -20.8329   XZ=              8.1024   YZ=             -1.9146

 Normal termination of Gaussian 09 at Sun Jun 30 02:36:33 2019.
