 Gaussian 09, Revision D.01,
 Gaussian 09:  ES64L-G09RevD.01 24-Apr-2013

 -------------------------------------
 # td=(NStates=1) CAM-B3LYP/6-31G(d,p)
 -------------------------------------

 --
 TD
 --
 Symbolic Z-matrix:
 Charge =  0 Multiplicity = 1

                         Standard orientation:
 ---------------------------------------------------------------------
 Center     Atomic      Atomic             Coordinates (Angstroms)
 Number     Number       Type             X           Y           Z
 ---------------------------------------------------------------------
      1         12           0       -7.201893    0.603335    0.057714
      2          6           0       -4.800451   -1.937406    0.518958
      3          6           0       -4.815796    2.963124    1.138041
      4          6           0       -9.476453    2.995523   -0.328898
      5          6           0       -9.560329   -1.800749   -0.780425
      6          7           0       -5.125756    0.578339    0.756816
      7          6           0       -4.350817   -0.605445    0.685384
      8          6           0       -2.981202   -0.323690    1.125660
      9          6           0       -3.064012    1.211865    1.664804
     10          6           0       -4.410579    1.620887    1.129342
     11          6           0       -2.943162    1.366162    3.168620
     12          6           0       -1.898895   -0.424511   -0.018103
     13          6           0       -0.438620   -0.397947    0.467699
     14          6           0        0.574757   -0.753479   -0.562334
     15          8           0        0.162512   -1.235467   -1.706217
     16          8           0        1.735092   -0.415724   -0.220897
     17          7           0       -7.169982    2.682174    0.373754
     18          6           0       -6.091224    3.408968    0.825104
     19          6           0       -6.513329    4.733072    0.788486
     20          6           0       -7.871959    4.793828    0.403691
     21          6           0       -8.212550    3.443699    0.138302
     22          6           0       -5.660785    5.909302    1.246102
     23          6           0       -8.716366    5.993996    0.232270
     24          6           0       -8.274547    7.232789   -0.074978
     25          7           0       -9.143064    0.545609   -0.449172
     26          6           0       -9.959445    1.699590   -0.628757
     27          6           0      -11.212587    1.343238   -1.087931
     28          6           0      -11.299341    0.017692   -1.205739
     29          6           0       -9.983558   -0.504742   -0.873310
     30          6           0      -12.389550    2.292362   -1.164493
     31          6           0      -12.388927   -0.878717   -1.653584
     32          6           0      -12.155530   -1.205218   -3.174800
     33          7           0       -7.175768   -1.349692   -0.227612
     34          6           0       -8.248727   -2.261279   -0.434436
     35          6           0       -7.770796   -3.614269   -0.430096
     36          6           0       -6.425442   -3.541992   -0.048480
     37          6           0       -6.116675   -2.122800    0.161723
     38          6           0       -8.598637   -4.923098   -0.509717
     39          6           0       -5.247493   -4.309265    0.344335
     40          8           0       -5.076635   -5.541483    0.369749
     41          6           0       -4.062003   -3.185925    0.594262
     42          6           0       -3.363823   -3.569718    1.901036
     43          8           0       -3.468225   -2.895341    2.930938
     44          8           0       -2.599231   -4.618645    1.674753
     45          6           0       -1.916497   -5.079839    2.888791
     46          6           0        2.801112   -0.743546   -1.180567
     47          6           0        4.178167   -0.428490   -0.708877
     48          6           0        5.200831    0.251782   -1.247180
     49          6           0        5.261686    1.056482   -2.606368
     50          6           0        6.476244    0.374990   -0.479595
     51          6           0        7.604867   -0.384668   -1.098487
     52          6           0        8.968074   -0.088336   -0.338460
     53          6           0       10.137504   -0.690282   -0.971142
     54          6           0       10.078645   -2.118898   -1.258334
     55          6           0       11.326286   -0.344830   -0.028534
     56          6           0       12.744459   -0.600217   -0.672935
     57          6           0       13.887083   -0.204163    0.278824
     58          6           0       15.343244   -0.301632   -0.389084
     59          6           0       15.721291   -1.732484   -0.875637
     60          6           0       16.363491    0.369712    0.500462
     61          6           0       17.704371    0.683594   -0.083892
     62          6           0       18.652191    1.463705    0.823178
     63          6           0       20.062118    1.500003    0.427475
     64          6           0       20.267688    2.134350   -0.985955
     65          6           0       21.089174    2.147820    1.483826
     66          1           0       -4.049562    3.810219    1.300598
     67          1           0      -10.249205    3.807518   -0.403086
     68          1           0      -10.233395   -2.405557   -0.997287
     69          1           0       -2.742188   -0.897505    2.071673
     70          1           0       -2.188453    2.022263    1.237120
     71          1           0       -1.826101    1.264379    3.444039
     72          1           0       -3.117959    2.387423    3.353799
     73          1           0       -3.298498    0.476499    3.933331
     74          1           0       -2.152197   -1.294912   -0.473727
     75          1           0       -2.009423    0.499231   -0.696248
     76          1           0       -0.140454    0.549336    1.026185
     77          1           0       -0.197373   -1.184078    1.226696
     78          1           0       -5.063420    6.399080    0.397896
     79          1           0       -6.185767    6.746708    1.630534
     80          1           0       -4.808189    5.366272    1.737042
     81          1           0       -9.863118    5.918798    0.412120
     82          1           0       -8.991277    8.090315   -0.277687
     83          1           0       -7.159791    7.518717   -0.190488
     84          1           0      -12.231058    3.402619   -1.572513
     85          1           0      -13.545982    1.772980   -1.593886
     86          1           0      -12.834305    2.641446   -0.099382
     87          1           0      -12.226449   -1.848384   -1.208349
     88          1           0      -13.341534   -0.453644   -1.602609
     89          1           0      -12.857886   -2.029373   -3.541023
     90          1           0      -12.034466   -0.374819   -3.793608
     91          1           0      -11.313974   -1.905737   -3.343781
     92          1           0       -8.863144   -5.170289   -1.586372
     93          1           0       -7.971882   -6.012083   -0.065912
     94          1           0       -9.691417   -4.560793   -0.142545
     95          1           0       -3.335568   -3.235032   -0.059118
     96          1           0       -1.202235   -4.181122    3.290682
     97          1           0       -2.673950   -5.414315    3.588409
     98          1           0       -1.437016   -6.117992    2.647618
     99          1           0        2.811366   -1.810713   -1.333037
    100          1           0        2.557722   -0.448648   -2.060034
    101          1           0        4.501377   -0.867283    0.247434
    102          1           0        4.406680    0.910702   -3.230371
    103          1           0        5.551714    2.123208   -2.481846
    104          1           0        6.271036    0.431075   -3.267044
    105          1           0        6.770967    1.398871   -0.447563
    106          1           0        6.449412    0.020141    0.634634
    107          1           0        7.520793   -1.568241   -1.318528
    108          1           0        7.544676    0.050072   -2.000635
    109          1           0        9.051500    1.093690   -0.392772
    110          1           0        8.741995   -0.379990    0.629473
    111          1           0       10.509512   -0.233330   -2.040519
    112          1           0        9.230283   -2.285321   -2.066293
    113          1           0       10.936946   -2.528801   -1.688918
    114          1           0        9.949709   -2.883786   -0.504315
    115          1           0       11.375665    0.783733    0.088941
    116          1           0       11.234116   -0.818870    0.901886
    117          1           0       12.618161   -1.662833   -0.844813
    118          1           0       12.771278   -0.222728   -1.646515
    119          1           0       13.790249    0.836346    0.675291
    120          1           0       13.684356   -0.768388    1.177688
    121          1           0       15.237627    0.352604   -1.339289
    122          1           0       15.720164   -2.443178    0.002899
    123          1           0       15.109226   -2.019064   -1.831754
    124          1           0       16.762931   -1.596620   -1.221731
    125          1           0       15.942933    1.361221    0.787757
    126          1           0       16.589731   -0.190223    1.597243
    127          1           0       17.977427   -0.109972   -0.287317
    128          1           0       17.469944    1.401540   -0.854880
    129          1           0       18.230935    2.475335    0.892104
    130          1           0       18.541003    0.924232    1.849763
    131          1           0       20.579286    0.514173    0.140363
    132          1           0       19.880449    3.288613   -1.014589
    133          1           0       21.390058    2.465458   -1.355753
    134          1           0       19.691479    1.573743   -1.778254
    135          1           0       20.910762    1.666773    2.442474
    136          1           0       22.094162    2.100327    1.066301
    137          1           0       20.787147    3.110830    1.755215
 ---------------------------------------------------------------------

 SCF Done:  E(RCAM-B3LYP) =  -2932.57854156     A.U. after   18 cycles

 Excitation energies and oscillator strengths:

 Excited State   1:      Singlet-A      1.9402 eV  639.04 nm  f=0.2484  <S**2>=0.000
     240 -> 243       -0.25031
     241 -> 242        0.65858
 This state for optimization and/or second-order correction.
 Total Energy, E(TD-HF/TD-KS) =  -2932.50724169
 Copying the excited state density for this state as the 1-particle RhoCI density.

 The electronic state is 1-A.
 Alpha  occ. eigenvalues --  -46.83742 -19.28841 -19.27724 -19.20662 -19.20369
 Alpha  occ. eigenvalues --  -19.18784 -14.42096 -14.39669 -14.39051 -14.38253
 Alpha  occ. eigenvalues --  -10.39348 -10.38926 -10.35583 -10.33619 -10.31777
 Alpha  occ. eigenvalues --  -10.30814 -10.30641 -10.30060 -10.29834 -10.29583
 Alpha  occ. eigenvalues --  -10.29327 -10.29141 -10.28882 -10.28855 -10.28817
 Alpha  occ. eigenvalues --  -10.28751 -10.28721 -10.28661 -10.28520 -10.28092
 Alpha  occ. eigenvalues --  -10.27541 -10.27428 -10.27345 -10.27162 -10.27044
 Alpha  occ. eigenvalues --  -10.26977 -10.26867 -10.26845 -10.26808 -10.26807
 Alpha  occ. eigenvalues --  -10.26798 -10.26715 -10.26519 -10.26438 -10.26401
 Alpha  occ. eigenvalues --  -10.26347 -10.26327 -10.26287 -10.26277 -10.26095
 Alpha  occ. eigenvalues --  -10.26014 -10.26001 -10.25982 -10.25949 -10.25789
 Alpha  occ. eigenvalues --  -10.25548 -10.25367 -10.25355 -10.25335 -10.25047
 Alpha  occ. eigenvalues --  -10.24704 -10.24548 -10.24210 -10.24167 -10.22221
 Alpha  occ. eigenvalues --   -3.12819  -1.87524  -1.87091  -1.86966  -1.21371
 Alpha  occ. eigenvalues --   -1.19007  -1.09182  -1.08690  -1.04687  -1.04426
 Alpha  occ. eigenvalues --   -1.03706  -1.02612  -1.01568  -0.93100  -0.92416
 Alpha  occ. eigenvalues --   -0.91184  -0.90727  -0.89394  -0.88967  -0.88517
 Alpha  occ. eigenvalues --   -0.87965  -0.87757  -0.87716  -0.87006  -0.86479
 Alpha  occ. eigenvalues --   -0.85012  -0.84519  -0.83605  -0.83418  -0.82180
 Alpha  occ. eigenvalues --   -0.81928  -0.81474  -0.80763  -0.80279  -0.77676
 Alpha  occ. eigenvalues --   -0.77138  -0.76847  -0.76684  -0.75887  -0.75613
 Alpha  occ. eigenvalues --   -0.75477  -0.74552  -0.74161  -0.73789  -0.72423
 Alpha  occ. eigenvalues --   -0.71862  -0.71055  -0.70329  -0.69869  -0.68017
 Alpha  occ. eigenvalues --   -0.67375  -0.66486  -0.65801  -0.65359  -0.65116
 Alpha  occ. eigenvalues --   -0.64428  -0.63660  -0.63596  -0.62704  -0.62475
 Alpha  occ. eigenvalues --   -0.61416  -0.60793  -0.60649  -0.59758  -0.59447
 Alpha  occ. eigenvalues --   -0.58556  -0.57925  -0.57795  -0.57720  -0.56692
 Alpha  occ. eigenvalues --   -0.56043  -0.56007  -0.55723  -0.55403  -0.54914
 Alpha  occ. eigenvalues --   -0.54670  -0.54522  -0.53963  -0.53431  -0.53041
 Alpha  occ. eigenvalues --   -0.53010  -0.52748  -0.52643  -0.52194  -0.51781
 Alpha  occ. eigenvalues --   -0.51555  -0.51260  -0.51048  -0.50663  -0.50467
 Alpha  occ. eigenvalues --   -0.50215  -0.50135  -0.50103  -0.49860  -0.49747
 Alpha  occ. eigenvalues --   -0.49333  -0.48973  -0.48877  -0.48568  -0.48267
 Alpha  occ. eigenvalues --   -0.48095  -0.47827  -0.47776  -0.47402  -0.47132
 Alpha  occ. eigenvalues --   -0.46921  -0.46786  -0.46203  -0.46011  -0.45676
 Alpha  occ. eigenvalues --   -0.45361  -0.45043  -0.44820  -0.44510  -0.44435
 Alpha  occ. eigenvalues --   -0.44346  -0.43934  -0.43909  -0.43893  -0.43791
 Alpha  occ. eigenvalues --   -0.43727  -0.43303  -0.43133  -0.42989  -0.42926
 Alpha  occ. eigenvalues --   -0.42906  -0.42632  -0.42615  -0.42412  -0.42282
 Alpha  occ. eigenvalues --   -0.42147  -0.41893  -0.41778  -0.41430  -0.41241
 Alpha  occ. eigenvalues --   -0.41133  -0.40921  -0.40676  -0.40616  -0.40548
 Alpha  occ. eigenvalues --   -0.40267  -0.39916  -0.39592  -0.39551  -0.39315
 Alpha  occ. eigenvalues --   -0.38996  -0.38886  -0.38272  -0.37965  -0.37936
 Alpha  occ. eigenvalues --   -0.37417  -0.37401  -0.36715  -0.36603  -0.36498
 Alpha  occ. eigenvalues --   -0.36257  -0.35957  -0.35797  -0.35619  -0.35184
 Alpha  occ. eigenvalues --   -0.35098  -0.35072  -0.34984  -0.33534  -0.33141
 Alpha  occ. eigenvalues --   -0.33060  -0.32154  -0.31834  -0.30872  -0.30128
 Alpha  occ. eigenvalues --   -0.29630  -0.29293  -0.28367  -0.26572  -0.22990
 Alpha  occ. eigenvalues --   -0.21134
 Alpha virt. eigenvalues --   -0.06932  -0.03221   0.00934   0.04528   0.05018
 Alpha virt. eigenvalues --    0.06005   0.06279   0.06614   0.06780   0.07303
 Alpha virt. eigenvalues --    0.08259   0.10065   0.10167   0.10655   0.10970

 Mulliken charges:
               1
     1  Mg   0.820464
     2  C    0.108403
     3  C   -0.208026
     4  C   -0.186095
     5  C   -0.118242
     6  N   -0.624338
     7  C    0.284422
     8  C   -0.209640
     9  C   -0.145277
    10  C    0.368607
    11  C   -0.303616
    12  C   -0.135629
    13  C   -0.274837
    14  C    0.608463
    15  O   -0.550867
    16  O   -0.419016
    17  N   -0.750244
    18  C    0.353681
    19  C   -0.011460
    20  C    0.006657
    21  C    0.354579
    22  C   -0.371213
    23  C   -0.083785
    24  C   -0.249182
    25  N   -0.707760
    26  C    0.311056
    27  C    0.064150
    28  C    0.058017
    29  C    0.272828
    30  C   -0.373601
    31  C   -0.229530
    32  C   -0.325133
    33  N   -0.734856
    34  C    0.256063
    35  C    0.041644
    36  C   -0.005527
    37  C    0.308254
    38  C   -0.361825
    39  C    0.362871
    40  O   -0.478308
    41  C   -0.314757
    42  C    0.614891
    43  O   -0.495782
    44  O   -0.427091
    45  C   -0.090620
    46  C    0.023678
    47  C   -0.164528
    48  C    0.131421
    49  C   -0.341589
    50  C   -0.234797
    51  C   -0.174605
    52  C   -0.156247
    53  C   -0.041809
    54  C   -0.315366
    55  C   -0.187060
    56  C   -0.194256
    57  C   -0.168474
    58  C   -0.055225
    59  C   -0.307240
    60  C   -0.186120
    61  C   -0.123415
    62  C   -0.170796
    63  C   -0.046490
    64  C   -0.306940
    65  C   -0.316154
    66  H    0.095111
    67  H    0.080206
    68  H    0.028462
    69  H    0.142393
    70  H    0.069853
    71  H    0.092059
    72  H    0.117137
    73  H    0.120815
    74  H    0.125886
    75  H    0.109393
    76  H    0.125289
    77  H    0.125554
    78  H    0.104954
    79  H    0.134045
    80  H    0.098406
    81  H    0.095378
    82  H    0.100775
    83  H    0.100035
    84  H    0.112488
    85  H    0.074949
    86  H    0.109378
    87  H    0.112571
    88  H    0.114277
    89  H    0.090769
    90  H    0.128661
    91  H    0.106167
    92  H    0.125828
    93  H    0.134550
    94  H    0.105256
    95  H    0.168324
    96  H    0.127580
    97  H    0.148913
    98  H    0.126671
    99  H    0.139996
   100  H    0.136386
   101  H    0.091227
   102  H    0.127356
   103  H    0.131737
   104  H    0.073851
   105  H    0.108505
   106  H    0.081352
   107  H    0.080717
   108  H    0.098314
   109  H    0.078185
   110  H    0.106534
   111  H    0.067876
   112  H    0.084418
   113  H    0.111715
   114  H    0.101473
   115  H    0.080924
   116  H    0.095190
   117  H    0.093401
   118  H    0.090862
   119  H    0.083686
   120  H    0.092609
   121  H    0.075792
   122  H    0.105799
   123  H    0.099290
   124  H    0.102385
   125  H    0.083176
   126  H    0.047778
   127  H    0.085121
   128  H    0.097332
   129  H    0.094548
   130  H    0.074028
   131  H    0.086028
   132  H    0.061918
   133  H    0.081693
   134  H    0.108592
   135  H    0.100166
   136  H    0.107264
   137  H    0.107858
 Sum of Mulliken charges =   0.00000

 Dipole moment (field-independent basis, Debye):
    X=              3.1028    Y=              3.0655    Z=              0.4296  Tot=              4.3828
 Quadrupole moment (field-independent basis, Debye-Ang):
   XX=           -347.4533   YY=           -391.8149   ZZ=           -401.7230
   XY=            -14.7607   XZ=              7.8722   YZ=             -6.2864

 Normal termination of Gaussian 09 at Mon Jul  1 05:02:33 2019.
