 Gaussian 09, Revision D.01,
 Gaussian 09:  ES64L-G09RevD.01 24-Apr-2013

 -------------------------------------
 # td=(NStates=1) CAM-B3LYP/6-31G(d,p)
 -------------------------------------

 --
 TD
 --
 Symbolic Z-matrix:
 Charge =  0 Multiplicity = 1

                         Standard orientation:
 ---------------------------------------------------------------------
 Center     Atomic      Atomic             Coordinates (Angstroms)
 Number     Number       Type             X           Y           Z
 ---------------------------------------------------------------------
      1         12           0       -7.171331    0.551347    0.192268
      2          6           0       -4.833796   -1.960760    0.605387
      3          6           0       -4.809582    2.875688    1.315551
      4          6           0       -9.384210    3.179514   -0.346488
      5          6           0       -9.533611   -1.606010   -0.964050
      6          7           0       -5.055504    0.453758    0.831246
      7          6           0       -4.386955   -0.720900    0.824390
      8          6           0       -2.927321   -0.399350    1.229733
      9          6           0       -3.022676    1.054732    1.738475
     10          6           0       -4.353019    1.566275    1.303739
     11          6           0       -2.976827    1.045612    3.261831
     12          6           0       -1.931936   -0.607230    0.067476
     13          6           0       -0.414282   -0.472423    0.471045
     14          6           0        0.523456   -0.821515   -0.581164
     15          8           0        0.176584   -1.138331   -1.665311
     16          8           0        1.746314   -0.481880   -0.260164
     17          7           0       -7.065345    2.609277    0.342629
     18          6           0       -6.070126    3.355907    0.875163
     19          6           0       -6.413630    4.830265    0.914036
     20          6           0       -7.731159    4.867920    0.410298
     21          6           0       -8.129882    3.517880    0.124916
     22          6           0       -5.492269    5.832867    1.498266
     23          6           0       -8.508697    6.050637    0.303753
     24          6           0       -8.115521    7.282467   -0.103347
     25          7           0       -9.153322    0.672193   -0.509356
     26          6           0       -9.837063    1.879299   -0.738625
     27          6           0      -11.177702    1.511497   -1.198672
     28          6           0      -11.297036    0.189768   -1.340339
     29          6           0       -9.995560   -0.334621   -0.919891
     30          6           0      -12.281871    2.409050   -1.368917
     31          6           0      -12.377063   -0.728181   -1.776847
     32          6           0      -12.396100   -1.010587   -3.384467
     33          7           0       -7.209911   -1.334162   -0.054764
     34          6           0       -8.281956   -2.167042   -0.594929
     35          6           0       -7.882966   -3.502287   -0.438789
     36          6           0       -6.436319   -3.516229   -0.163607
     37          6           0       -6.172613   -2.157377    0.114419
     38          6           0       -8.654723   -4.665852   -0.821041
     39          6           0       -5.387370   -4.364310    0.109587
     40          8           0       -5.199001   -5.486426    0.129021
     41          6           0       -4.152836   -3.277706    0.520698
     42          6           0       -3.613637   -3.714086    1.856549
     43          8           0       -3.847605   -3.169754    2.889421
     44          8           0       -2.770850   -4.660498    1.735169
     45          6           0       -2.175682   -5.221611    3.002788
     46          6           0        2.793312   -0.856087   -1.239210
     47          6           0        4.107970   -0.617745   -0.483220
     48          6           0        5.122183    0.177103   -0.860754
     49          6           0        5.037476    1.109211   -2.129803
     50          6           0        6.442065    0.250262   -0.151224
     51          6           0        7.659169   -0.269617   -0.976621
     52          6           0        8.854650   -0.289137   -0.213419
     53          6           0       10.213276   -0.666523   -0.986667
     54          6           0       10.149144   -2.148390   -1.326837
     55          6           0       11.426021   -0.432089   -0.064915
     56          6           0       12.824680   -0.470227   -0.762488
     57          6           0       13.953168   -0.109242    0.137926
     58          6           0       15.331232   -0.183907   -0.537648
     59          6           0       15.608431   -1.568142   -0.967889
     60          6           0       16.534682    0.438361    0.381285
     61          6           0       17.868590    0.539338   -0.172746
     62          6           0       18.816437    1.339711    0.764667
     63          6           0       20.265789    1.484681    0.226222
     64          6           0       20.368483    2.358686   -1.043544
     65          6           0       21.177980    2.083396    1.290957
     66          1           0       -4.094756    3.443009    2.074207
     67          1           0      -10.198441    3.880955   -0.556560
     68          1           0      -10.442108   -2.351065   -1.047896
     69          1           0       -2.769149   -1.072225    2.171962
     70          1           0       -2.177009    1.663946    1.297975
     71          1           0       -1.917094    0.661661    3.875106
     72          1           0       -3.062543    2.138826    3.574839
     73          1           0       -3.910360    0.275604    3.504462
     74          1           0       -2.002071   -1.582512   -0.346422
     75          1           0       -2.111787    0.174969   -0.657826
     76          1           0       -0.048754    0.518825    0.768835
     77          1           0       -0.306395   -1.063242    1.511107
     78          1           0       -4.757646    6.248448    0.608556
     79          1           0       -6.047490    6.803786    1.820572
     80          1           0       -4.893964    5.361428    2.372739
     81          1           0       -9.551580    5.874235    0.277266
     82          1           0       -8.893397    8.184531   -0.169170
     83          1           0       -7.142642    7.496411   -0.342027
     84          1           0      -12.220312    3.123205   -2.228815
     85          1           0      -13.201450    1.969866   -1.673583
     86          1           0      -12.510224    3.103602   -0.379564
     87          1           0      -12.563319   -1.585558   -1.273372
     88          1           0      -13.466440   -0.139270   -1.423189
     89          1           0      -13.087025   -1.791354   -3.569964
     90          1           0      -12.603721   -0.030040   -3.873693
     91          1           0      -11.399856   -1.347449   -3.700655
     92          1           0       -9.145186   -4.352470   -1.921600
     93          1           0       -7.834655   -5.556931   -0.976445
     94          1           0       -9.488617   -4.932782   -0.267614
     95          1           0       -3.345056   -3.389543   -0.176376
     96          1           0       -1.572209   -4.621432    3.475718
     97          1           0       -3.016575   -5.700310    3.608745
     98          1           0       -1.603251   -6.079053    2.639713
     99          1           0        2.835037   -1.803368   -1.320128
    100          1           0        2.421308   -0.091487   -2.065571
    101          1           0        4.229731   -1.193527    0.445128
    102          1           0        4.122407    1.081895   -2.590831
    103          1           0        5.253568    2.120354   -1.749537
    104          1           0        5.895616    0.702651   -2.757409
    105          1           0        6.434359    1.325218    0.187251
    106          1           0        6.384291   -0.087796    0.796289
    107          1           0        7.424370   -1.225850   -1.339377
    108          1           0        7.588143    0.274899   -2.047899
    109          1           0        9.052687    0.718405    0.443964
    110          1           0        8.803632   -1.017244    0.572398
    111          1           0       10.439325   -0.058489   -1.822258
    112          1           0        9.332171   -2.233860   -1.931739
    113          1           0       11.082722   -2.444883   -2.092826
    114          1           0       10.151745   -2.873052   -0.484200
    115          1           0       11.398982    0.664826    0.400542
    116          1           0       11.500005   -1.153912    0.800631
    117          1           0       12.974138   -1.419203   -1.108374
    118          1           0       12.854951    0.067981   -1.718561
    119          1           0       13.870592    0.685870    0.680772
    120          1           0       13.925883   -0.670387    1.043113
    121          1           0       15.264652    0.328049   -1.462346
    122          1           0       15.849823   -2.381623   -0.071285
    123          1           0       14.806002   -1.992134   -1.510229
    124          1           0       16.487289   -1.563424   -1.607341
    125          1           0       16.262633    1.509374    0.914675
    126          1           0       16.585708   -0.200878    1.401253
    127          1           0       18.296648   -0.338825   -0.331778
    128          1           0       17.883015    1.205747   -1.179420
    129          1           0       18.402038    2.458534    0.753087
    130          1           0       18.795505    0.970560    1.748742
    131          1           0       20.522035    0.403459   -0.032464
    132          1           0       20.186719    3.507657   -0.670877
    133          1           0       21.372762    2.377591   -1.329056
    134          1           0       19.620483    2.190638   -1.913338
    135          1           0       21.519393    1.281777    2.110869
    136          1           0       22.295687    2.550409    0.844475
    137          1           0       20.326832    2.841805    1.650070
 ---------------------------------------------------------------------

 SCF Done:  E(RCAM-B3LYP) =  -2932.63518069     A.U. after   18 cycles

 Excitation energies and oscillator strengths:

 Excited State   1:      Singlet-A      2.0793 eV  596.28 nm  f=0.2496  <S**2>=0.000
     240 -> 242       -0.17058
     240 -> 243        0.22900
     241 -> 242        0.63279
 This state for optimization and/or second-order correction.
 Total Energy, E(TD-HF/TD-KS) =  -2932.55876770
 Copying the excited state density for this state as the 1-particle RhoCI density.

 The electronic state is 1-A.
 Alpha  occ. eigenvalues --  -46.83781 -19.25382 -19.24843 -19.19864 -19.19245
 Alpha  occ. eigenvalues --  -19.17800 -14.40597 -14.40492 -14.39809 -14.38762
 Alpha  occ. eigenvalues --  -10.37082 -10.36228 -10.33533 -10.31704 -10.31436
 Alpha  occ. eigenvalues --  -10.31065 -10.30908 -10.30585 -10.30033 -10.28953
 Alpha  occ. eigenvalues --  -10.28947 -10.28851 -10.28537 -10.28456 -10.28314
 Alpha  occ. eigenvalues --  -10.28231 -10.28192 -10.28184 -10.28158 -10.28149
 Alpha  occ. eigenvalues --  -10.27860 -10.27539 -10.27310 -10.27171 -10.27163
 Alpha  occ. eigenvalues --  -10.27026 -10.26995 -10.26910 -10.26835 -10.26773
 Alpha  occ. eigenvalues --  -10.26559 -10.26529 -10.26488 -10.26482 -10.26278
 Alpha  occ. eigenvalues --  -10.26270 -10.26247 -10.26218 -10.26170 -10.26048
 Alpha  occ. eigenvalues --  -10.25793 -10.25774 -10.25748 -10.25684 -10.25582
 Alpha  occ. eigenvalues --  -10.25569 -10.25554 -10.25548 -10.25455 -10.25035
 Alpha  occ. eigenvalues --  -10.24854 -10.24564 -10.23963 -10.23896 -10.22552
 Alpha  occ. eigenvalues --   -3.12904  -1.87601  -1.87150  -1.87088  -1.18780
 Alpha  occ. eigenvalues --   -1.18735  -1.14936  -1.09304  -1.07767  -1.03677
 Alpha  occ. eigenvalues --   -1.02792  -1.02559  -1.01474  -0.91615  -0.91502
 Alpha  occ. eigenvalues --   -0.90751  -0.90006  -0.89621  -0.89164  -0.88805
 Alpha  occ. eigenvalues --   -0.88555  -0.88271  -0.87448  -0.87058  -0.86136
 Alpha  occ. eigenvalues --   -0.85129  -0.84428  -0.83538  -0.83205  -0.82995
 Alpha  occ. eigenvalues --   -0.81941  -0.81553  -0.80808  -0.80400  -0.78140
 Alpha  occ. eigenvalues --   -0.77332  -0.77039  -0.76630  -0.75993  -0.75425
 Alpha  occ. eigenvalues --   -0.74614  -0.74588  -0.73254  -0.72756  -0.72210
 Alpha  occ. eigenvalues --   -0.71353  -0.70512  -0.70005  -0.69105  -0.68370
 Alpha  occ. eigenvalues --   -0.67697  -0.66884  -0.65875  -0.65232  -0.64015
 Alpha  occ. eigenvalues --   -0.63770  -0.63421  -0.62880  -0.62262  -0.61418
 Alpha  occ. eigenvalues --   -0.61315  -0.61072  -0.59958  -0.59527  -0.59029
 Alpha  occ. eigenvalues --   -0.58680  -0.57886  -0.57491  -0.56931  -0.56564
 Alpha  occ. eigenvalues --   -0.56345  -0.55526  -0.55024  -0.54691  -0.54562
 Alpha  occ. eigenvalues --   -0.54139  -0.54064  -0.53573  -0.53075  -0.52892
 Alpha  occ. eigenvalues --   -0.52629  -0.52522  -0.51960  -0.51802  -0.51622
 Alpha  occ. eigenvalues --   -0.51369  -0.51017  -0.50957  -0.50741  -0.50443
 Alpha  occ. eigenvalues --   -0.50365  -0.50006  -0.49788  -0.49607  -0.49302
 Alpha  occ. eigenvalues --   -0.49224  -0.49115  -0.48934  -0.48818  -0.48222
 Alpha  occ. eigenvalues --   -0.48040  -0.47964  -0.47488  -0.47190  -0.47010
 Alpha  occ. eigenvalues --   -0.46682  -0.46440  -0.46231  -0.46054  -0.46002
 Alpha  occ. eigenvalues --   -0.45850  -0.45633  -0.45403  -0.45315  -0.45183
 Alpha  occ. eigenvalues --   -0.44760  -0.44723  -0.44435  -0.44094  -0.43708
 Alpha  occ. eigenvalues --   -0.43655  -0.43569  -0.43419  -0.43298  -0.43048
 Alpha  occ. eigenvalues --   -0.42766  -0.42634  -0.42470  -0.42282  -0.42076
 Alpha  occ. eigenvalues --   -0.41883  -0.41748  -0.41564  -0.41484  -0.41295
 Alpha  occ. eigenvalues --   -0.41243  -0.40538  -0.40341  -0.40156  -0.40053
 Alpha  occ. eigenvalues --   -0.39892  -0.39636  -0.39471  -0.38975  -0.38635
 Alpha  occ. eigenvalues --   -0.38535  -0.38413  -0.38045  -0.37834  -0.37660
 Alpha  occ. eigenvalues --   -0.37414  -0.37198  -0.36986  -0.36878  -0.36555
 Alpha  occ. eigenvalues --   -0.36404  -0.36038  -0.35792  -0.35699  -0.35440
 Alpha  occ. eigenvalues --   -0.35439  -0.35068  -0.34811  -0.34100  -0.32852
 Alpha  occ. eigenvalues --   -0.32400  -0.31757  -0.31644  -0.30737  -0.29796
 Alpha  occ. eigenvalues --   -0.29105  -0.28472  -0.28179  -0.27544  -0.23027
 Alpha  occ. eigenvalues --   -0.21763
 Alpha virt. eigenvalues --   -0.07007  -0.02897   0.02118   0.04170   0.06054
 Alpha virt. eigenvalues --    0.06740   0.07198   0.07316   0.08057   0.08551
 Alpha virt. eigenvalues --    0.09340   0.10373   0.11157   0.11600   0.11626

 Mulliken charges:
               1
     1  Mg   0.830841
     2  C    0.147242
     3  C   -0.201557
     4  C   -0.186505
     5  C   -0.185534
     6  N   -0.654259
     7  C    0.306788
     8  C   -0.175355
     9  C   -0.162799
    10  C    0.338539
    11  C   -0.277104
    12  C   -0.157791
    13  C   -0.292555
    14  C    0.615322
    15  O   -0.472724
    16  O   -0.484690
    17  N   -0.692221
    18  C    0.318259
    19  C    0.045371
    20  C    0.020134
    21  C    0.326411
    22  C   -0.370634
    23  C   -0.082385
    24  C   -0.237182
    25  N   -0.680248
    26  C    0.278950
    27  C    0.024606
    28  C    0.106223
    29  C    0.278530
    30  C   -0.399554
    31  C   -0.256219
    32  C   -0.311010
    33  N   -0.769421
    34  C    0.252333
    35  C    0.058903
    36  C    0.001071
    37  C    0.313782
    38  C   -0.379928
    39  C    0.329978
    40  O   -0.408404
    41  C   -0.398521
    42  C    0.621458
    43  O   -0.494062
    44  O   -0.442719
    45  C   -0.087575
    46  C    0.040756
    47  C   -0.166957
    48  C    0.080962
    49  C   -0.332462
    50  C   -0.214285
    51  C   -0.162836
    52  C   -0.170345
    53  C   -0.065447
    54  C   -0.300103
    55  C   -0.173547
    56  C   -0.190764
    57  C   -0.154742
    58  C   -0.060247
    59  C   -0.297788
    60  C   -0.168946
    61  C   -0.150874
    62  C   -0.184183
    63  C   -0.053385
    64  C   -0.293004
    65  C   -0.276091
    66  H    0.081662
    67  H    0.102892
    68  H    0.087574
    69  H    0.125873
    70  H    0.099873
    71  H    0.080314
    72  H    0.094004
    73  H    0.118472
    74  H    0.128485
    75  H    0.115432
    76  H    0.133108
    77  H    0.110163
    78  H    0.110333
    79  H    0.118891
    80  H    0.120049
    81  H    0.090647
    82  H    0.098364
    83  H    0.106667
    84  H    0.114100
    85  H    0.120853
    86  H    0.093201
    87  H    0.125947
    88  H    0.058341
    89  H    0.116308
    90  H    0.115224
    91  H    0.119464
    92  H    0.095297
    93  H    0.130696
    94  H    0.137186
    95  H    0.147868
    96  H    0.144319
    97  H    0.136636
    98  H    0.127041
    99  H    0.134253
   100  H    0.134957
   101  H    0.091171
   102  H    0.111535
   103  H    0.117124
   104  H    0.108952
   105  H    0.095840
   106  H    0.104296
   107  H    0.116190
   108  H    0.075477
   109  H    0.069572
   110  H    0.104780
   111  H    0.097104
   112  H    0.112900
   113  H    0.069266
   114  H    0.109447
   115  H    0.066414
   116  H    0.083009
   117  H    0.107680
   118  H    0.082164
   119  H    0.089212
   120  H    0.080638
   121  H    0.092254
   122  H    0.066452
   123  H    0.109314
   124  H    0.099096
   125  H    0.064694
   126  H    0.065582
   127  H    0.110655
   128  H    0.072238
   129  H    0.070169
   130  H    0.101590
   131  H    0.075330
   132  H    0.069434
   133  H    0.115844
   134  H    0.098302
   135  H    0.092271
   136  H    0.072163
   137  H    0.097849
 Sum of Mulliken charges =   0.00000

 Dipole moment (field-independent basis, Debye):
    X=              0.8264    Y=              3.7025    Z=              0.3103  Tot=              3.8063
 Quadrupole moment (field-independent basis, Debye-Ang):
   XX=           -332.6543   YY=           -388.8107   ZZ=           -397.9787
   XY=            -33.6385   XZ=             10.1547   YZ=             -4.7746

 Normal termination of Gaussian 09 at Thu Jun 27 16:56:03 2019.
