 Gaussian 09, Revision D.01,
 Gaussian 09:  ES64L-G09RevD.01 24-Apr-2013

 -------------------------------------
 # td=(NStates=1) CAM-B3LYP/6-31G(d,p)
 -------------------------------------

 --
 TD
 --
 Symbolic Z-matrix:
 Charge =  0 Multiplicity = 1

                         Standard orientation:
 ---------------------------------------------------------------------
 Center     Atomic      Atomic             Coordinates (Angstroms)
 Number     Number       Type             X           Y           Z
 ---------------------------------------------------------------------
      1         12           0       -7.111084    0.566476    0.128444
      2          6           0       -4.806396   -1.953968    0.526314
      3          6           0       -4.872695    2.854487    1.264920
      4          6           0       -9.426925    3.059372   -0.287637
      5          6           0       -9.536170   -1.800565   -0.797442
      6          7           0       -5.065895    0.427097    0.802649
      7          6           0       -4.286273   -0.669734    0.875509
      8          6           0       -2.859804   -0.349956    1.273871
      9          6           0       -2.959452    1.124862    1.745558
     10          6           0       -4.358486    1.457268    1.147201
     11          6           0       -2.934056    1.257368    3.155122
     12          6           0       -1.876321   -0.565223    0.129760
     13          6           0       -0.417462   -0.304351    0.606046
     14          6           0        0.412061   -0.646768   -0.556770
     15          8           0        0.169842   -1.025408   -1.661989
     16          8           0        1.674982   -0.248300   -0.229706
     17          7           0       -7.151765    2.560120    0.417487
     18          6           0       -6.070474    3.355984    0.923074
     19          6           0       -6.545135    4.701519    0.956451
     20          6           0       -7.805192    4.777326    0.438108
     21          6           0       -8.166907    3.444800    0.157722
     22          6           0       -5.633511    5.832626    1.422766
     23          6           0       -8.630097    5.947033    0.271327
     24          6           0       -8.349824    7.242434   -0.080440
     25          7           0       -9.058137    0.723141   -0.630732
     26          6           0       -9.878206    1.833414   -0.668420
     27          6           0      -11.207601    1.461555   -1.053147
     28          6           0      -11.205134    0.129618   -1.204180
     29          6           0       -9.864486   -0.396189   -0.854996
     30          6           0      -12.354009    2.524276   -1.333518
     31          6           0      -12.372460   -0.722962   -1.651453
     32          6           0      -12.224770   -1.086677   -3.115944
     33          7           0       -7.173857   -1.401223   -0.237518
     34          6           0       -8.223978   -2.264458   -0.551398
     35          6           0       -7.838867   -3.666200   -0.521158
     36          6           0       -6.501910   -3.580713   -0.149911
     37          6           0       -6.119709   -2.246878    0.013085
     38          6           0       -8.468126   -4.873881   -0.802423
     39          6           0       -5.281161   -4.357440    0.165768
     40          8           0       -5.105377   -5.556026    0.053658
     41          6           0       -4.111976   -3.321297    0.472822
     42          6           0       -3.544382   -3.701961    1.885730
     43          8           0       -3.818003   -3.292692    2.895493
     44          8           0       -2.741676   -4.779955    1.663984
     45          6           0       -2.263273   -5.443486    2.820548
     46          6           0        2.733638   -0.407431   -1.231224
     47          6           0        4.126514   -0.225666   -0.679736
     48          6           0        5.147735    0.428396   -1.069873
     49          6           0        5.271692    1.219792   -2.410941
     50          6           0        6.423171    0.493681   -0.239707
     51          6           0        7.665951   -0.106440   -1.064421
     52          6           0        8.932943   -0.182458   -0.183717
     53          6           0       10.151803   -0.605116   -0.943023
     54          6           0       10.159889   -2.043358   -1.479909
     55          6           0       11.424048   -0.441688   -0.061959
     56          6           0       12.833711   -0.650669   -0.706026
     57          6           0       13.931922   -0.322411    0.327452
     58          6           0       15.296579   -0.228606   -0.446920
     59          6           0       15.727842   -1.693586   -0.792180
     60          6           0       16.395403    0.457041    0.440436
     61          6           0       17.753018    0.585944   -0.074808
     62          6           0       18.667852    1.413641    0.771621
     63          6           0       20.210174    1.460470    0.275987
     64          6           0       20.254497    2.200002   -1.019891
     65          6           0       21.179656    1.997332    1.364600
     66          1           0       -4.101626    3.642928    1.476525
     67          1           0      -10.168137    3.866348   -0.717341
     68          1           0      -10.366628   -2.513455   -0.869133
     69          1           0       -2.641913   -1.014238    2.055188
     70          1           0       -2.363490    1.798085    1.256458
     71          1           0       -1.857743    1.033143    3.462812
     72          1           0       -3.299692    2.383958    3.504007
     73          1           0       -3.530311    0.360317    3.707902
     74          1           0       -2.025246   -1.581417   -0.317874
     75          1           0       -2.211527    0.106075   -0.765792
     76          1           0       -0.216491    0.714157    0.987079
     77          1           0       -0.127030   -0.957349    1.394709
     78          1           0       -4.988488    5.891167    0.413151
     79          1           0       -6.196457    6.804949    1.582130
     80          1           0       -5.104985    5.643033    2.401998
     81          1           0       -9.795642    5.872128    0.645815
     82          1           0       -9.141729    7.942421   -0.265504
     83          1           0       -7.326405    7.440750   -0.377078
     84          1           0      -12.165726    3.091188   -2.321958
     85          1           0      -13.314785    1.993129   -1.288812
     86          1           0      -12.335939    3.340761   -0.381137
     87          1           0      -12.447201   -1.625138   -0.975693
     88          1           0      -13.197741   -0.062081   -1.614275
     89          1           0      -13.254779   -1.483151   -3.503186
     90          1           0      -12.211329   -0.057682   -3.499533
     91          1           0      -11.359553   -1.662672   -3.385958
     92          1           0       -8.831754   -4.884155   -1.882555
     93          1           0       -7.762667   -5.712530   -0.814142
     94          1           0       -9.252610   -5.088153   -0.112789
     95          1           0       -3.384251   -3.271563   -0.504379
     96          1           0       -1.565507   -4.705880    3.366810
     97          1           0       -2.982188   -5.488673    3.545500
     98          1           0       -1.785789   -6.352656    2.414552
     99          1           0        2.757231   -1.448100   -1.690379
    100          1           0        2.279238    0.345183   -1.921802
    101          1           0        4.214943   -0.747725    0.257149
    102          1           0        4.266540    1.429399   -2.852506
    103          1           0        5.997289    2.145772   -2.161655
    104          1           0        5.686701    0.560669   -3.196237
    105          1           0        6.476118    1.423580    0.183226
    106          1           0        6.209055   -0.207195    0.621976
    107          1           0        7.477228   -1.156714   -1.412703
    108          1           0        7.707429    0.388062   -2.098196
    109          1           0        9.265010    0.727437    0.638076
    110          1           0        8.618213   -1.089577    0.404938
    111          1           0       10.337085    0.237917   -1.812866
    112          1           0        9.241703   -2.262129   -2.216938
    113          1           0       11.103516   -2.466438   -1.975410
    114          1           0       10.050273   -2.875344   -0.586578
    115          1           0       11.060590    0.710365    0.366706
    116          1           0       11.516145   -0.953080    0.862204
    117          1           0       12.942567   -1.642522   -1.163469
    118          1           0       13.026050    0.223101   -1.506958
    119          1           0       13.744149    0.725512    0.857609
    120          1           0       14.074459   -0.885737    1.056333
    121          1           0       15.239670    0.311795   -1.238350
    122          1           0       15.570691   -2.236534    0.188845
    123          1           0       15.121076   -2.074187   -1.555535
    124          1           0       16.728999   -1.723449   -1.146236
    125          1           0       16.148912    1.493055    0.752981
    126          1           0       16.560817   -0.046496    1.411982
    127          1           0       18.134012   -0.490089   -0.257380
    128          1           0       17.750119    0.864364   -1.169426
    129          1           0       18.301718    2.360947    0.769223
    130          1           0       18.847822    1.073351    1.772322
    131          1           0       20.462046    0.293621    0.105131
    132          1           0       19.730511    3.186549   -0.829280
    133          1           0       21.344865    2.495221   -1.147903
    134          1           0       20.039247    1.669709   -1.848493
    135          1           0       20.981910    1.374031    2.235808
    136          1           0       22.210387    1.622374    1.100667
    137          1           0       20.904249    3.036330    1.417824
 ---------------------------------------------------------------------

 SCF Done:  E(RCAM-B3LYP) =  -2932.71012250     A.U. after   18 cycles

 Excitation energies and oscillator strengths:

 Excited State   1:      Singlet-A      2.0169 eV  614.72 nm  f=0.2340  <S**2>=0.000
     240 -> 243       -0.25667
     241 -> 242        0.65628
 This state for optimization and/or second-order correction.
 Total Energy, E(TD-HF/TD-KS) =  -2932.63600148
 Copying the excited state density for this state as the 1-particle RhoCI density.

 The electronic state is 1-A.
 Alpha  occ. eigenvalues --  -46.84145 -19.24786 -19.24782 -19.22558 -19.21323
 Alpha  occ. eigenvalues --  -19.20120 -14.42941 -14.39318 -14.38680 -14.38554
 Alpha  occ. eigenvalues --  -10.39045 -10.38891 -10.34965 -10.32238 -10.31825
 Alpha  occ. eigenvalues --  -10.30719 -10.30485 -10.29625 -10.29238 -10.29062
 Alpha  occ. eigenvalues --  -10.28998 -10.28947 -10.28586 -10.28508 -10.28303
 Alpha  occ. eigenvalues --  -10.28292 -10.28092 -10.28062 -10.27976 -10.27940
 Alpha  occ. eigenvalues --  -10.27802 -10.27772 -10.27694 -10.27651 -10.27334
 Alpha  occ. eigenvalues --  -10.27258 -10.27235 -10.27193 -10.27176 -10.27115
 Alpha  occ. eigenvalues --  -10.26988 -10.26910 -10.26723 -10.26561 -10.26501
 Alpha  occ. eigenvalues --  -10.26375 -10.26279 -10.26270 -10.26060 -10.25783
 Alpha  occ. eigenvalues --  -10.25773 -10.25712 -10.25549 -10.25142 -10.24985
 Alpha  occ. eigenvalues --  -10.24980 -10.24854 -10.24662 -10.24544 -10.24515
 Alpha  occ. eigenvalues --  -10.24201 -10.24069 -10.23965 -10.23759 -10.23652
 Alpha  occ. eigenvalues --   -3.13166  -1.87874  -1.87402  -1.87343  -1.21207
 Alpha  occ. eigenvalues --   -1.18051  -1.12011  -1.10632  -1.09151  -1.06763
 Alpha  occ. eigenvalues --   -1.02924  -1.02673  -1.01245  -0.91944  -0.91606
 Alpha  occ. eigenvalues --   -0.91113  -0.90592  -0.89522  -0.88995  -0.88749
 Alpha  occ. eigenvalues --   -0.88371  -0.88230  -0.88061  -0.87637  -0.86198
 Alpha  occ. eigenvalues --   -0.84966  -0.84291  -0.83122  -0.82712  -0.82073
 Alpha  occ. eigenvalues --   -0.81629  -0.80778  -0.80654  -0.79491  -0.78324
 Alpha  occ. eigenvalues --   -0.77726  -0.76250  -0.76022  -0.75855  -0.75645
 Alpha  occ. eigenvalues --   -0.75017  -0.74346  -0.74188  -0.73523  -0.71989
 Alpha  occ. eigenvalues --   -0.71197  -0.70520  -0.69411  -0.68878  -0.67766
 Alpha  occ. eigenvalues --   -0.67014  -0.66741  -0.66198  -0.65277  -0.64499
 Alpha  occ. eigenvalues --   -0.63888  -0.63688  -0.62478  -0.61725  -0.61676
 Alpha  occ. eigenvalues --   -0.61246  -0.60497  -0.59877  -0.59597  -0.59108
 Alpha  occ. eigenvalues --   -0.58141  -0.58015  -0.57615  -0.57309  -0.56654
 Alpha  occ. eigenvalues --   -0.56476  -0.55755  -0.55371  -0.54738  -0.54670
 Alpha  occ. eigenvalues --   -0.54455  -0.54184  -0.53847  -0.53666  -0.53005
 Alpha  occ. eigenvalues --   -0.52926  -0.52440  -0.52414  -0.51880  -0.51830
 Alpha  occ. eigenvalues --   -0.51667  -0.51422  -0.51054  -0.50801  -0.50676
 Alpha  occ. eigenvalues --   -0.50453  -0.50282  -0.50106  -0.49677  -0.49577
 Alpha  occ. eigenvalues --   -0.49538  -0.49411  -0.48802  -0.48590  -0.48123
 Alpha  occ. eigenvalues --   -0.48089  -0.47928  -0.47451  -0.47363  -0.47007
 Alpha  occ. eigenvalues --   -0.46903  -0.46704  -0.46579  -0.46361  -0.46158
 Alpha  occ. eigenvalues --   -0.46105  -0.45863  -0.45795  -0.45468  -0.45216
 Alpha  occ. eigenvalues --   -0.44983  -0.44601  -0.44539  -0.44384  -0.44316
 Alpha  occ. eigenvalues --   -0.44153  -0.43865  -0.43742  -0.43439  -0.43379
 Alpha  occ. eigenvalues --   -0.43282  -0.43019  -0.42863  -0.42703  -0.42424
 Alpha  occ. eigenvalues --   -0.42134  -0.41988  -0.41792  -0.41731  -0.41188
 Alpha  occ. eigenvalues --   -0.40894  -0.40725  -0.40682  -0.40397  -0.40221
 Alpha  occ. eigenvalues --   -0.39893  -0.39554  -0.39388  -0.39246  -0.38960
 Alpha  occ. eigenvalues --   -0.38864  -0.38823  -0.38749  -0.38126  -0.37951
 Alpha  occ. eigenvalues --   -0.37240  -0.36938  -0.36916  -0.36587  -0.36324
 Alpha  occ. eigenvalues --   -0.36216  -0.36050  -0.35975  -0.35399  -0.35372
 Alpha  occ. eigenvalues --   -0.35096  -0.34934  -0.34558  -0.34294  -0.34179
 Alpha  occ. eigenvalues --   -0.33137  -0.32942  -0.32361  -0.30570  -0.30444
 Alpha  occ. eigenvalues --   -0.29735  -0.29057  -0.28332  -0.27520  -0.23092
 Alpha  occ. eigenvalues --   -0.20471
 Alpha virt. eigenvalues --   -0.06048  -0.03011   0.01462   0.04124   0.05974
 Alpha virt. eigenvalues --    0.06334   0.06604   0.06954   0.07721   0.08351
 Alpha virt. eigenvalues --    0.08775   0.10653   0.10702   0.10852   0.11628

 Mulliken charges:
               1
     1  Mg   0.812201
     2  C    0.049008
     3  C   -0.237226
     4  C   -0.206500
     5  C   -0.173589
     6  N   -0.573275
     7  C    0.276311
     8  C   -0.162728
     9  C   -0.093897
    10  C    0.292161
    11  C   -0.287897
    12  C   -0.181879
    13  C   -0.266809
    14  C    0.617953
    15  O   -0.464397
    16  O   -0.515986
    17  N   -0.741201
    18  C    0.352435
    19  C   -0.008815
    20  C    0.061124
    21  C    0.334635
    22  C   -0.366787
    23  C   -0.108005
    24  C   -0.240267
    25  N   -0.691660
    26  C    0.308721
    27  C    0.028696
    28  C   -0.001929
    29  C    0.285061
    30  C   -0.356022
    31  C   -0.233369
    32  C   -0.296232
    33  N   -0.720675
    34  C    0.252335
    35  C    0.072225
    36  C    0.013730
    37  C    0.255674
    38  C   -0.416412
    39  C    0.363826
    40  O   -0.458145
    41  C   -0.334576
    42  C    0.606254
    43  O   -0.399944
    44  O   -0.457944
    45  C   -0.084185
    46  C    0.029672
    47  C   -0.152399
    48  C    0.131217
    49  C   -0.355899
    50  C   -0.229709
    51  C   -0.194290
    52  C   -0.158485
    53  C   -0.025597
    54  C   -0.307267
    55  C   -0.156991
    56  C   -0.181491
    57  C   -0.155642
    58  C   -0.064212
    59  C   -0.314654
    60  C   -0.171942
    61  C   -0.177654
    62  C   -0.166239
    63  C   -0.078962
    64  C   -0.290801
    65  C   -0.306224
    66  H    0.081880
    67  H    0.085443
    68  H    0.102120
    69  H    0.117101
    70  H    0.111502
    71  H    0.100961
    72  H    0.096037
    73  H    0.113428
    74  H    0.123643
    75  H    0.109730
    76  H    0.151432
    77  H    0.151094
    78  H    0.117036
    79  H    0.120735
    80  H    0.119701
    81  H    0.083028
    82  H    0.112276
    83  H    0.099357
    84  H    0.126072
    85  H    0.119182
    86  H    0.096482
    87  H    0.096030
    88  H    0.100635
    89  H    0.087996
    90  H    0.108167
    91  H    0.120631
    92  H    0.117334
    93  H    0.154850
    94  H    0.129463
    95  H    0.159140
    96  H    0.094071
    97  H    0.138944
    98  H    0.134441
    99  H    0.126174
   100  H    0.116764
   101  H    0.087838
   102  H    0.108462
   103  H    0.101599
   104  H    0.126474
   105  H    0.122522
   106  H    0.090279
   107  H    0.106511
   108  H    0.090410
   109  H    0.071535
   110  H    0.100691
   111  H    0.070739
   112  H    0.082918
   113  H    0.107841
   114  H    0.079208
   115  H    0.039269
   116  H    0.099692
   117  H    0.106318
   118  H    0.080438
   119  H    0.073693
   120  H    0.098451
   121  H    0.088835
   122  H    0.095366
   123  H    0.105655
   124  H    0.105805
   125  H    0.077173
   126  H    0.080841
   127  H    0.072638
   128  H    0.079186
   129  H    0.094907
   130  H    0.088741
   131  H    0.054324
   132  H    0.091140
   133  H    0.082906
   134  H    0.119577
   135  H    0.104312
   136  H    0.106061
   137  H    0.110335
 Sum of Mulliken charges =   0.00000

 Dipole moment (field-independent basis, Debye):
    X=              2.5452    Y=              3.5624    Z=              1.1087  Tot=              4.5164
 Quadrupole moment (field-independent basis, Debye-Ang):
   XX=           -360.7309   YY=           -395.1481   ZZ=           -397.9862
   XY=            -23.5672   XZ=              5.1659   YZ=             -3.7895

 Normal termination of Gaussian 09 at Thu Jun 27 08:51:17 2019.
