 Gaussian 09, Revision D.01,
 Gaussian 09:  ES64L-G09RevD.01 24-Apr-2013

 -------------------------------------
 # td=(NStates=1) CAM-B3LYP/6-31G(d,p)
 -------------------------------------

 --
 TD
 --
 Symbolic Z-matrix:
 Charge =  0 Multiplicity = 1

                         Standard orientation:
 ---------------------------------------------------------------------
 Center     Atomic      Atomic             Coordinates (Angstroms)
 Number     Number       Type             X           Y           Z
 ---------------------------------------------------------------------
      1         12           0       -7.165135    0.492235    0.129221
      2          6           0       -4.756432   -1.955422    0.592847
      3          6           0       -4.836136    2.836422    1.196601
      4          6           0       -9.502677    3.088844   -0.283340
      5          6           0       -9.640107   -1.865111   -0.640867
      6          7           0       -5.124225    0.459400    0.718633
      7          6           0       -4.411455   -0.739380    0.940351
      8          6           0       -2.865072   -0.387770    1.213850
      9          6           0       -2.951426    1.046789    1.645199
     10          6           0       -4.343468    1.504277    1.046477
     11          6           0       -2.977320    1.212502    3.185088
     12          6           0       -2.004219   -0.551913    0.022061
     13          6           0       -0.462128   -0.411968    0.397675
     14          6           0        0.488675   -0.666413   -0.724550
     15          8           0        0.200715   -0.994467   -1.812092
     16          8           0        1.733449   -0.361296   -0.385463
     17          7           0       -7.149310    2.622432    0.322622
     18          6           0       -6.047296    3.342584    0.841341
     19          6           0       -6.456585    4.833446    0.875699
     20          6           0       -7.764051    4.842992    0.439589
     21          6           0       -8.133728    3.436363    0.108030
     22          6           0       -5.654089    6.049063    1.316090
     23          6           0       -8.627316    6.010579    0.316384
     24          6           0       -8.296688    7.266776    0.164389
     25          7           0       -9.171093    0.645717   -0.479622
     26          6           0       -9.880245    1.752953   -0.687495
     27          6           0      -11.283974    1.412102   -1.022827
     28          6           0      -11.290684    0.039499   -1.178586
     29          6           0       -9.971771   -0.416024   -0.785791
     30          6           0      -12.389557    2.405224   -1.329567
     31          6           0      -12.441017   -0.971433   -1.635906
     32          6           0      -12.294062   -1.144983   -3.148271
     33          7           0       -7.248638   -1.447356   -0.157966
     34          6           0       -8.282421   -2.245788   -0.528233
     35          6           0       -7.805719   -3.659556   -0.515321
     36          6           0       -6.397839   -3.523577   -0.139164
     37          6           0       -6.121422   -2.184396    0.071117
     38          6           0       -8.504234   -4.897755   -0.843930
     39          6           0       -5.295277   -4.362969    0.254321
     40          8           0       -5.118080   -5.574540    0.283731
     41          6           0       -4.177501   -3.279942    0.495083
     42          6           0       -3.430285   -3.646459    1.763035
     43          8           0       -3.531775   -3.036325    2.868422
     44          8           0       -2.661890   -4.719340    1.805430
     45          6           0       -1.949985   -5.039584    2.947903
     46          6           0        2.739481   -0.443996   -1.387543
     47          6           0        4.124031   -0.301318   -0.757261
     48          6           0        5.158791    0.476256   -1.134214
     49          6           0        5.129783    1.279279   -2.346700
     50          6           0        6.441506    0.518042   -0.205110
     51          6           0        7.584817   -0.017118   -1.029278
     52          6           0        8.859517   -0.152292   -0.167016
     53          6           0       10.204212   -0.529756   -0.832776
     54          6           0       10.162430   -2.089399   -1.223702
     55          6           0       11.422850   -0.276712    0.070055
     56          6           0       12.720120   -0.509470   -0.628860
     57          6           0       14.001798   -0.166618    0.172557
     58          6           0       15.377263   -0.255244   -0.486810
     59          6           0       15.691632   -1.728885   -0.862219
     60          6           0       16.428312    0.209225    0.571609
     61          6           0       17.832417    0.410273   -0.006540
     62          6           0       18.774500    1.210333    0.858491
     63          6           0       20.230328    1.373765    0.268192
     64          6           0       20.145345    2.242892   -1.125060
     65          6           0       21.199824    2.029566    1.278164
     66          1           0       -3.967659    3.492902    1.679688
     67          1           0      -10.113852    3.895001   -0.368174
     68          1           0      -10.076653   -2.701305   -0.935895
     69          1           0       -2.556662   -1.119702    1.980857
     70          1           0       -2.181441    1.730054    1.254836
     71          1           0       -1.860941    1.005125    3.532835
     72          1           0       -3.114784    2.378945    3.430947
     73          1           0       -3.748185    0.545418    3.611045
     74          1           0       -2.150332   -1.547057   -0.424532
     75          1           0       -2.361119    0.093715   -0.780021
     76          1           0       -0.171156    0.680963    0.843016
     77          1           0       -0.136623   -0.976173    1.133536
     78          1           0       -5.337314    6.550239    0.441905
     79          1           0       -6.033891    6.705190    2.050907
     80          1           0       -4.584328    5.532378    1.755249
     81          1           0       -9.577884    5.748142    0.277448
     82          1           0       -9.058411    8.038228   -0.105115
     83          1           0       -7.138563    7.703270    0.232879
     84          1           0      -12.064195    3.252635   -2.125358
     85          1           0      -13.268990    1.648424   -1.927525
     86          1           0      -12.837455    2.809592   -0.294727
     87          1           0      -12.309764   -1.895617   -1.044057
     88          1           0      -13.534404   -0.376388   -1.572263
     89          1           0      -12.870435   -2.128188   -3.364058
     90          1           0      -12.544964   -0.365986   -3.908020
     91          1           0      -11.175439   -1.533168   -3.421218
     92          1           0       -8.760838   -5.087062   -2.054368
     93          1           0       -7.966055   -5.864007   -0.548894
     94          1           0       -9.533201   -4.902107   -0.411440
     95          1           0       -3.565240   -3.246445   -0.288305
     96          1           0       -1.364465   -4.203068    3.432077
     97          1           0       -2.732739   -5.240384    3.848763
     98          1           0       -1.481855   -6.024754    2.756294
     99          1           0        2.628144   -1.420531   -1.960979
    100          1           0        2.438086    0.304316   -2.259037
    101          1           0        4.292302   -0.940819    0.179086
    102          1           0        4.022351    1.690826   -2.698546
    103          1           0        5.843271    2.225258   -2.451903
    104          1           0        5.570423    0.608954   -3.223075
    105          1           0        6.830911    1.546123    0.030544
    106          1           0        6.355619   -0.035128    0.843271
    107          1           0        7.464979   -1.119972   -1.352239
    108          1           0        7.753872    0.690793   -1.971411
    109          1           0        9.047579    0.834279    0.243742
    110          1           0        8.623875   -0.756545    0.650905
    111          1           0       10.284444   -0.015701   -1.728140
    112          1           0        9.276853   -2.215582   -1.920448
    113          1           0       11.051102   -2.401831   -1.893689
    114          1           0       10.077038   -2.705522   -0.282601
    115          1           0       11.488081    0.727505    0.405372
    116          1           0       11.428158   -0.772202    1.030425
    117          1           0       12.920764   -1.723517   -0.797531
    118          1           0       12.767778   -0.161284   -1.669784
    119          1           0       14.069087    0.959143    0.532685
    120          1           0       13.805277   -0.606086    1.254103
    121          1           0       15.479487    0.292925   -1.428311
    122          1           0       15.581176   -2.418910    0.168896
    123          1           0       14.677070   -2.232260   -1.604913
    124          1           0       16.596623   -2.006555   -1.386391
    125          1           0       16.121790    1.030621    1.205696
    126          1           0       16.354283   -0.534183    1.424116
    127          1           0       18.142428   -0.522459   -0.166339
    128          1           0       17.705047    0.952136   -0.905844
    129          1           0       18.528667    2.286149    1.059309
    130          1           0       18.704724    0.725281    1.633713
    131          1           0       20.621781    0.343461   -0.180757
    132          1           0       19.670679    3.166732   -1.031435
    133          1           0       21.269644    2.299151   -1.689981
    134          1           0       19.293151    1.656001   -1.870244
    135          1           0       21.156668    1.638905    2.258446
    136          1           0       22.267271    2.015788    0.760977
    137          1           0       20.995834    3.162736    1.275894
 ---------------------------------------------------------------------

 SCF Done:  E(RCAM-B3LYP) =  -2932.60633907     A.U. after   18 cycles

 Excitation energies and oscillator strengths:

 Excited State   1:      Singlet-A      1.9277 eV  643.17 nm  f=0.2798  <S**2>=0.000
     240 -> 243        0.20088
     241 -> 242        0.67438
 This state for optimization and/or second-order correction.
 Total Energy, E(TD-HF/TD-KS) =  -2932.53549697
 Copying the excited state density for this state as the 1-particle RhoCI density.

 The electronic state is 1-A.
 Alpha  occ. eigenvalues --  -46.85267 -19.26529 -19.25881 -19.20606 -19.20432
 Alpha  occ. eigenvalues --  -19.19475 -14.42923 -14.40248 -14.39726 -14.39650
 Alpha  occ. eigenvalues --  -10.39409 -10.38352 -10.35273 -10.33115 -10.32464
 Alpha  occ. eigenvalues --  -10.32129 -10.31851 -10.30435 -10.30287 -10.29904
 Alpha  occ. eigenvalues --  -10.29809 -10.29770 -10.29136 -10.29035 -10.29032
 Alpha  occ. eigenvalues --  -10.28796 -10.28385 -10.28353 -10.28272 -10.28195
 Alpha  occ. eigenvalues --  -10.28112 -10.27947 -10.27911 -10.27906 -10.27844
 Alpha  occ. eigenvalues --  -10.27843 -10.27712 -10.27699 -10.27681 -10.27674
 Alpha  occ. eigenvalues --  -10.27640 -10.27445 -10.27314 -10.27062 -10.27018
 Alpha  occ. eigenvalues --  -10.27010 -10.26972 -10.26856 -10.26760 -10.26734
 Alpha  occ. eigenvalues --  -10.26712 -10.26508 -10.26454 -10.26207 -10.26155
 Alpha  occ. eigenvalues --  -10.26079 -10.25964 -10.25817 -10.25686 -10.24958
 Alpha  occ. eigenvalues --  -10.24790 -10.24513 -10.24404 -10.23428 -10.23313
 Alpha  occ. eigenvalues --   -3.14215  -1.88930  -1.88449  -1.88388  -1.19984
 Alpha  occ. eigenvalues --   -1.19412  -1.10652  -1.10574  -1.06262  -1.04648
 Alpha  occ. eigenvalues --   -1.03820  -1.03718  -1.02745  -0.94504  -0.91103
 Alpha  occ. eigenvalues --   -0.90658  -0.90438  -0.89832  -0.89342  -0.88505
 Alpha  occ. eigenvalues --   -0.87514  -0.87378  -0.86718  -0.86504  -0.86160
 Alpha  occ. eigenvalues --   -0.85022  -0.84448  -0.83558  -0.82779  -0.82420
 Alpha  occ. eigenvalues --   -0.81677  -0.81387  -0.80882  -0.79853  -0.78091
 Alpha  occ. eigenvalues --   -0.77943  -0.77432  -0.76002  -0.74905  -0.74589
 Alpha  occ. eigenvalues --   -0.74054  -0.73933  -0.73785  -0.73040  -0.72013
 Alpha  occ. eigenvalues --   -0.71120  -0.70381  -0.69257  -0.68223  -0.67829
 Alpha  occ. eigenvalues --   -0.67227  -0.66370  -0.65280  -0.65046  -0.64513
 Alpha  occ. eigenvalues --   -0.64435  -0.63998  -0.63090  -0.62725  -0.62455
 Alpha  occ. eigenvalues --   -0.62047  -0.60517  -0.60294  -0.59717  -0.59447
 Alpha  occ. eigenvalues --   -0.59133  -0.58710  -0.58541  -0.57978  -0.57226
 Alpha  occ. eigenvalues --   -0.56200  -0.55433  -0.55151  -0.55114  -0.54871
 Alpha  occ. eigenvalues --   -0.54495  -0.53902  -0.53584  -0.53301  -0.53098
 Alpha  occ. eigenvalues --   -0.52653  -0.52150  -0.51912  -0.51654  -0.51456
 Alpha  occ. eigenvalues --   -0.51254  -0.51078  -0.50878  -0.50563  -0.50464
 Alpha  occ. eigenvalues --   -0.50378  -0.49872  -0.49808  -0.49642  -0.49310
 Alpha  occ. eigenvalues --   -0.49173  -0.48906  -0.48687  -0.48354  -0.48019
 Alpha  occ. eigenvalues --   -0.47830  -0.47750  -0.47565  -0.47141  -0.46990
 Alpha  occ. eigenvalues --   -0.46783  -0.46501  -0.46392  -0.46092  -0.45959
 Alpha  occ. eigenvalues --   -0.45614  -0.45485  -0.45388  -0.45148  -0.44848
 Alpha  occ. eigenvalues --   -0.44668  -0.44499  -0.44283  -0.44142  -0.43875
 Alpha  occ. eigenvalues --   -0.43730  -0.43567  -0.43306  -0.43176  -0.42838
 Alpha  occ. eigenvalues --   -0.42790  -0.42477  -0.42354  -0.42041  -0.41988
 Alpha  occ. eigenvalues --   -0.41778  -0.41647  -0.41475  -0.41360  -0.41217
 Alpha  occ. eigenvalues --   -0.41025  -0.40673  -0.40429  -0.40314  -0.40284
 Alpha  occ. eigenvalues --   -0.39986  -0.39833  -0.39297  -0.39226  -0.39168
 Alpha  occ. eigenvalues --   -0.39042  -0.38876  -0.38345  -0.38306  -0.37510
 Alpha  occ. eigenvalues --   -0.37481  -0.37057  -0.36774  -0.36644  -0.36576
 Alpha  occ. eigenvalues --   -0.36547  -0.36129  -0.35761  -0.35681  -0.35441
 Alpha  occ. eigenvalues --   -0.35355  -0.34379  -0.34170  -0.33781  -0.33140
 Alpha  occ. eigenvalues --   -0.33104  -0.32808  -0.32476  -0.31435  -0.30304
 Alpha  occ. eigenvalues --   -0.29399  -0.28774  -0.28323  -0.28056  -0.24202
 Alpha  occ. eigenvalues --   -0.20590
 Alpha virt. eigenvalues --   -0.06767  -0.03475   0.01030   0.03705   0.05616
 Alpha virt. eigenvalues --    0.05834   0.05845   0.06254   0.07076   0.07609
 Alpha virt. eigenvalues --    0.08366   0.09433   0.10115   0.10858   0.11092

 Mulliken charges:
               1
     1  Mg   0.837645
     2  C    0.155772
     3  C   -0.218963
     4  C   -0.155028
     5  C   -0.104105
     6  N   -0.614947
     7  C    0.246712
     8  C   -0.152889
     9  C   -0.135305
    10  C    0.322049
    11  C   -0.286469
    12  C   -0.167600
    13  C   -0.262670
    14  C    0.593613
    15  O   -0.456143
    16  O   -0.463587
    17  N   -0.694072
    18  C    0.302542
    19  C    0.011023
    20  C   -0.009822
    21  C    0.331599
    22  C   -0.364722
    23  C   -0.018318
    24  C   -0.259470
    25  N   -0.649766
    26  C    0.283560
    27  C    0.002598
    28  C    0.026749
    29  C    0.261491
    30  C   -0.346850
    31  C   -0.217356
    32  C   -0.296001
    33  N   -0.755783
    34  C    0.238155
    35  C    0.035363
    36  C   -0.013464
    37  C    0.271104
    38  C   -0.396789
    39  C    0.378248
    40  O   -0.469103
    41  C   -0.338819
    42  C    0.606319
    43  O   -0.514159
    44  O   -0.410482
    45  C   -0.080461
    46  C    0.013484
    47  C   -0.144759
    48  C    0.162015
    49  C   -0.375458
    50  C   -0.217724
    51  C   -0.174079
    52  C   -0.179900
    53  C   -0.059916
    54  C   -0.313395
    55  C   -0.168123
    56  C   -0.169524
    57  C   -0.169356
    58  C   -0.047981
    59  C   -0.275998
    60  C   -0.198894
    61  C   -0.177252
    62  C   -0.148592
    63  C   -0.057536
    64  C   -0.299557
    65  C   -0.301626
    66  H    0.089384
    67  H    0.074533
    68  H    0.087110
    69  H    0.129248
    70  H    0.102075
    71  H    0.098419
    72  H    0.088425
    73  H    0.140174
    74  H    0.109440
    75  H    0.118168
    76  H    0.114400
    77  H    0.145452
    78  H    0.144218
    79  H    0.144830
    80  H    0.071011
    81  H    0.082789
    82  H    0.105908
    83  H    0.085960
    84  H    0.114627
    85  H    0.073827
    86  H    0.116562
    87  H    0.121821
    88  H    0.088577
    89  H    0.091395
    90  H    0.123210
    91  H    0.088205
    92  H    0.098786
    93  H    0.151115
    94  H    0.117025
    95  H    0.179584
    96  H    0.126801
    97  H    0.105642
    98  H    0.127988
    99  H    0.127667
   100  H    0.103796
   101  H    0.090707
   102  H    0.105328
   103  H    0.103523
   104  H    0.119266
   105  H    0.106442
   106  H    0.092907
   107  H    0.093315
   108  H    0.081384
   109  H    0.080734
   110  H    0.096536
   111  H    0.092360
   112  H    0.092419
   113  H    0.096943
   114  H    0.100951
   115  H    0.096279
   116  H    0.093019
   117  H    0.069082
   118  H    0.091777
   119  H    0.065923
   120  H    0.079044
   121  H    0.099198
   122  H    0.074863
   123  H    0.042869
   124  H    0.113271
   125  H    0.089298
   126  H    0.079811
   127  H    0.110694
   128  H    0.095164
   129  H    0.082088
   130  H    0.095768
   131  H    0.072332
   132  H    0.116844
   133  H    0.078847
   134  H    0.066016
   135  H    0.114993
   136  H    0.089756
   137  H    0.094846
 Sum of Mulliken charges =   0.00000

 Dipole moment (field-independent basis, Debye):
    X=              1.9637    Y=              5.4249    Z=              0.3262  Tot=              5.7786
 Quadrupole moment (field-independent basis, Debye-Ang):
   XX=           -358.7003   YY=           -396.0742   ZZ=           -400.5116
   XY=            -16.6221   XZ=             16.4188   YZ=             -0.7195

 Normal termination of Gaussian 09 at Wed Jun 26 21:38:39 2019.
