 Gaussian 09, Revision D.01,
 Gaussian 09:  ES64L-G09RevD.01 24-Apr-2013

 -------------------------------------
 # td=(NStates=1) CAM-B3LYP/6-31G(d,p)
 -------------------------------------

 --
 TD
 --
 Symbolic Z-matrix:
 Charge =  0 Multiplicity = 1

                         Standard orientation:
 ---------------------------------------------------------------------
 Center     Atomic      Atomic             Coordinates (Angstroms)
 Number     Number       Type             X           Y           Z
 ---------------------------------------------------------------------
      1         12           0       -7.132896    0.661366    0.121267
      2          6           0       -4.800709   -1.966091    0.331416
      3          6           0       -4.853328    2.767440    1.163260
      4          6           0       -9.359906    3.041361   -0.296422
      5          6           0       -9.501664   -1.706359   -0.937745
      6          7           0       -5.119139    0.321145    0.742400
      7          6           0       -4.269629   -0.734922    0.760378
      8          6           0       -2.881832   -0.363986    1.193170
      9          6           0       -2.969803    1.071151    1.613069
     10          6           0       -4.407912    1.445656    1.224197
     11          6           0       -2.918511    1.121131    3.215256
     12          6           0       -1.937973   -0.607853    0.035303
     13          6           0       -0.472096   -0.377268    0.552160
     14          6           0        0.495337   -0.639144   -0.596408
     15          8           0        0.284211   -0.918146   -1.777719
     16          8           0        1.760077   -0.479864   -0.112551
     17          7           0       -7.190819    2.632005    0.382923
     18          6           0       -6.090349    3.366498    0.869586
     19          6           0       -6.524893    4.702061    0.917388
     20          6           0       -7.760352    4.760025    0.560363
     21          6           0       -8.200982    3.393094    0.198036
     22          6           0       -5.606537    5.833328    1.314340
     23          6           0       -8.665623    5.855123    0.483953
     24          6           0       -8.465219    7.088478    0.169973
     25          7           0       -9.121246    0.701122   -0.741142
     26          6           0       -9.932493    1.770521   -0.654339
     27          6           0      -11.223072    1.370908   -1.084867
     28          6           0      -11.316304    0.042469   -1.208290
     29          6           0       -9.906828   -0.386673   -0.920193
     30          6           0      -12.399553    2.505174   -1.286729
     31          6           0      -12.441984   -0.774740   -1.791751
     32          6           0      -12.425980   -0.845500   -3.342323
     33          7           0       -7.175322   -1.312707   -0.142984
     34          6           0       -8.234420   -2.263640   -0.602286
     35          6           0       -7.830851   -3.599011   -0.484469
     36          6           0       -6.450061   -3.469900   -0.173918
     37          6           0       -6.155569   -2.187760   -0.037693
     38          6           0       -8.549289   -4.872973   -0.887753
     39          6           0       -5.311288   -4.382922    0.130950
     40          8           0       -5.227245   -5.604207    0.148786
     41          6           0       -4.204452   -3.301418    0.465349
     42          6           0       -3.552957   -3.715316    1.813666
     43          8           0       -3.755215   -3.152262    2.881149
     44          8           0       -2.733350   -4.718033    1.650241
     45          6           0       -2.220508   -5.224240    2.938766
     46          6           0        2.829997   -0.664684   -1.034851
     47          6           0        4.075190   -0.305634   -0.283067
     48          6           0        5.033653    0.524887   -0.773153
     49          6           0        5.074920    1.364189   -2.046731
     50          6           0        6.445180    0.519018   -0.036010
     51          6           0        7.558224   -0.050830   -0.962752
     52          6           0        8.958561   -0.005825   -0.127914
     53          6           0       10.224038   -0.556281   -0.801566
     54          6           0       10.103630   -2.017994   -1.191562
     55          6           0       11.504440   -0.240431    0.017259
     56          6           0       12.832384   -0.566902   -0.754330
     57          6           0       13.889337   -0.023723    0.123529
     58          6           0       15.317528   -0.113886   -0.386810
     59          6           0       15.699888   -1.534111   -0.835389
     60          6           0       16.456122    0.437905    0.464057
     61          6           0       17.758891    0.626200   -0.176006
     62          6           0       18.833934    1.265151    0.607833
     63          6           0       20.340868    1.149343    0.106578
     64          6           0       20.468806    2.019530   -1.190711
     65          6           0       21.385278    1.721204    1.140055
     66          1           0       -4.071100    3.484986    1.404541
     67          1           0      -10.135102    3.921801   -0.514619
     68          1           0      -10.135857   -2.714446   -1.187278
     69          1           0       -2.708768   -0.975677    2.071564
     70          1           0       -2.183158    1.677288    0.995059
     71          1           0       -1.962562    0.442237    3.539567
     72          1           0       -2.961982    2.051436    3.620412
     73          1           0       -3.798807    0.447027    3.518144
     74          1           0       -2.018846   -1.669528   -0.241438
     75          1           0       -2.144184    0.080092   -0.692306
     76          1           0       -0.186056    0.516515    0.858040
     77          1           0       -0.329053   -0.974495    1.410773
     78          1           0       -5.205822    6.319420    0.365591
     79          1           0       -6.234892    6.675068    1.935655
     80          1           0       -4.663536    5.446861    1.869775
     81          1           0       -9.709966    5.604943    0.478010
     82          1           0       -9.509106    7.745859    0.102447
     83          1           0       -7.499322    7.738015    0.008024
     84          1           0      -11.949032    3.311484   -1.989664
     85          1           0      -13.349122    2.130717   -1.679105
     86          1           0      -12.401074    3.045406   -0.432817
     87          1           0      -12.359481   -1.903761   -1.304487
     88          1           0      -13.338144   -0.397022   -1.377906
     89          1           0      -13.117557   -1.560670   -3.607932
     90          1           0      -12.502236    0.065533   -3.868064
     91          1           0      -11.513002   -1.327445   -3.761859
     92          1           0       -8.844110   -4.812706   -1.941221
     93          1           0       -8.044831   -5.662749   -0.725795
     94          1           0       -9.569027   -5.194816   -0.430081
     95          1           0       -3.421611   -3.531795   -0.293768
     96          1           0       -1.852913   -4.517122    3.629279
     97          1           0       -2.936650   -5.774862    3.635305
     98          1           0       -1.397389   -6.058484    2.555479
     99          1           0        2.689845   -1.755828   -1.392586
    100          1           0        2.388436   -0.161733   -1.949911
    101          1           0        4.399557   -0.772031    0.662612
    102          1           0        4.091078    1.231038   -2.642031
    103          1           0        5.391398    2.519273   -1.933587
    104          1           0        5.795770    0.829536   -2.891929
    105          1           0        6.573491    1.705345    0.165074
    106          1           0        6.490963   -0.057376    1.045246
    107          1           0        7.091406   -0.990870   -1.110899
    108          1           0        7.848141    0.337000   -1.980530
    109          1           0        9.280167    1.041363    0.039676
    110          1           0        8.803618   -0.452273    0.882881
    111          1           0       10.385991   -0.185562   -1.765129
    112          1           0        9.232954   -2.307291   -1.741772
    113          1           0       11.072841   -2.313220   -1.843369
    114          1           0       10.060757   -2.667593   -0.345223
    115          1           0       11.454636    0.766550    0.481741
    116          1           0       11.506401   -0.841146    1.067978
    117          1           0       12.851728   -1.644272   -0.840912
    118          1           0       12.968985   -0.010799   -1.726493
    119          1           0       13.684326    1.071665    0.292187
    120          1           0       13.768302   -0.702893    1.151169
    121          1           0       15.336342    0.492673   -1.312856
    122          1           0       15.601768   -2.199092   -0.090749
    123          1           0       14.894067   -1.780237   -1.616907
    124          1           0       16.815109   -1.595305   -1.196040
    125          1           0       16.222183    1.415062    0.798210
    126          1           0       16.738947   -0.016106    1.343583
    127          1           0       18.166795   -0.293469   -0.805255
    128          1           0       17.635477    1.273568   -1.255360
    129          1           0       18.602145    2.374195    0.834684
    130          1           0       19.051543    0.791632    1.764206
    131          1           0       20.734316    0.084110    0.007814
    132          1           0       20.493793    3.073743   -0.672218
    133          1           0       21.552772    1.829032   -1.633183
    134          1           0       19.807667    1.706310   -1.991138
    135          1           0       21.673705    1.071210    1.911317
    136          1           0       22.457657    1.966837    0.445029
    137          1           0       20.992149    2.619613    1.409415
 ---------------------------------------------------------------------

 SCF Done:  E(RCAM-B3LYP) =  -2932.64840931     A.U. after   18 cycles

 Excitation energies and oscillator strengths:

 Excited State   1:      Singlet-A      2.1290 eV  582.37 nm  f=0.1995  <S**2>=0.000
     240 -> 242       -0.29177
     240 -> 243        0.22219
     241 -> 242        0.57053
     241 -> 243        0.17829
 This state for optimization and/or second-order correction.
 Total Energy, E(TD-HF/TD-KS) =  -2932.57017135
 Copying the excited state density for this state as the 1-particle RhoCI density.

 The electronic state is 1-A.
 Alpha  occ. eigenvalues --  -46.84257 -19.27632 -19.25283 -19.21402 -19.20341
 Alpha  occ. eigenvalues --  -19.20159 -14.41726 -14.39276 -14.39120 -14.38269
 Alpha  occ. eigenvalues --  -10.39308 -10.38958 -10.34897 -10.32824 -10.32287
 Alpha  occ. eigenvalues --  -10.31829 -10.30757 -10.30103 -10.29208 -10.29058
 Alpha  occ. eigenvalues --  -10.28928 -10.28895 -10.28692 -10.28677 -10.28626
 Alpha  occ. eigenvalues --  -10.28605 -10.28537 -10.28229 -10.28116 -10.27701
 Alpha  occ. eigenvalues --  -10.27664 -10.27646 -10.27564 -10.27514 -10.27186
 Alpha  occ. eigenvalues --  -10.27113 -10.26970 -10.26913 -10.26908 -10.26669
 Alpha  occ. eigenvalues --  -10.26603 -10.26570 -10.26556 -10.26458 -10.26449
 Alpha  occ. eigenvalues --  -10.26389 -10.26381 -10.26277 -10.26244 -10.26219
 Alpha  occ. eigenvalues --  -10.26165 -10.26040 -10.25984 -10.25875 -10.25749
 Alpha  occ. eigenvalues --  -10.25720 -10.25700 -10.25269 -10.25238 -10.25024
 Alpha  occ. eigenvalues --  -10.24516 -10.24430 -10.24175 -10.23750 -10.23554
 Alpha  occ. eigenvalues --   -3.13291  -1.87995  -1.87542  -1.87463  -1.19332
 Alpha  occ. eigenvalues --   -1.17698  -1.10145  -1.08556  -1.08403  -1.06275
 Alpha  occ. eigenvalues --   -1.03963  -1.03627  -1.01703  -0.92002  -0.91403
 Alpha  occ. eigenvalues --   -0.91218  -0.90998  -0.90061  -0.89660  -0.89283
 Alpha  occ. eigenvalues --   -0.87845  -0.87798  -0.87233  -0.86580  -0.86074
 Alpha  occ. eigenvalues --   -0.85356  -0.84946  -0.83356  -0.82934  -0.82486
 Alpha  occ. eigenvalues --   -0.81524  -0.81000  -0.80734  -0.79595  -0.78233
 Alpha  occ. eigenvalues --   -0.77796  -0.77248  -0.75985  -0.75594  -0.75256
 Alpha  occ. eigenvalues --   -0.75064  -0.74362  -0.74193  -0.73213  -0.72847
 Alpha  occ. eigenvalues --   -0.72137  -0.71131  -0.70573  -0.68768  -0.67971
 Alpha  occ. eigenvalues --   -0.66416  -0.66235  -0.65919  -0.64951  -0.64709
 Alpha  occ. eigenvalues --   -0.64164  -0.63742  -0.63084  -0.62411  -0.61623
 Alpha  occ. eigenvalues --   -0.61241  -0.61152  -0.60480  -0.59604  -0.59154
 Alpha  occ. eigenvalues --   -0.58616  -0.57921  -0.57369  -0.57113  -0.56979
 Alpha  occ. eigenvalues --   -0.56147  -0.55816  -0.55197  -0.54992  -0.54395
 Alpha  occ. eigenvalues --   -0.54139  -0.53838  -0.53696  -0.53473  -0.53186
 Alpha  occ. eigenvalues --   -0.52648  -0.52410  -0.52187  -0.51849  -0.51650
 Alpha  occ. eigenvalues --   -0.51381  -0.51015  -0.50679  -0.50419  -0.50316
 Alpha  occ. eigenvalues --   -0.50217  -0.50007  -0.49847  -0.49736  -0.49688
 Alpha  occ. eigenvalues --   -0.49397  -0.49045  -0.48693  -0.48208  -0.48124
 Alpha  occ. eigenvalues --   -0.47942  -0.47620  -0.47531  -0.46987  -0.46865
 Alpha  occ. eigenvalues --   -0.46471  -0.46282  -0.46122  -0.45983  -0.45836
 Alpha  occ. eigenvalues --   -0.45495  -0.45458  -0.45402  -0.45143  -0.45068
 Alpha  occ. eigenvalues --   -0.44738  -0.44520  -0.44160  -0.44020  -0.43841
 Alpha  occ. eigenvalues --   -0.43604  -0.43548  -0.43342  -0.43159  -0.43072
 Alpha  occ. eigenvalues --   -0.42895  -0.42735  -0.42489  -0.42391  -0.42241
 Alpha  occ. eigenvalues --   -0.42090  -0.41947  -0.41754  -0.41472  -0.41261
 Alpha  occ. eigenvalues --   -0.41157  -0.41031  -0.40826  -0.40617  -0.40346
 Alpha  occ. eigenvalues --   -0.40089  -0.39987  -0.39562  -0.39399  -0.39226
 Alpha  occ. eigenvalues --   -0.39006  -0.38732  -0.38322  -0.38131  -0.38041
 Alpha  occ. eigenvalues --   -0.37786  -0.37316  -0.37169  -0.37051  -0.36715
 Alpha  occ. eigenvalues --   -0.36670  -0.36358  -0.36283  -0.35948  -0.35675
 Alpha  occ. eigenvalues --   -0.35283  -0.35061  -0.34165  -0.34002  -0.33604
 Alpha  occ. eigenvalues --   -0.33456  -0.33288  -0.32814  -0.30640  -0.29989
 Alpha  occ. eigenvalues --   -0.29504  -0.28997  -0.28795  -0.28074  -0.22867
 Alpha  occ. eigenvalues --   -0.21467
 Alpha virt. eigenvalues --   -0.06444  -0.02936   0.02350   0.04778   0.05136
 Alpha virt. eigenvalues --    0.05957   0.06341   0.06639   0.07246   0.08394
 Alpha virt. eigenvalues --    0.08647   0.10770   0.11185   0.11504   0.11599

 Mulliken charges:
               1
     1  Mg   0.810295
     2  C    0.033309
     3  C   -0.222932
     4  C   -0.226577
     5  C   -0.170151
     6  N   -0.618211
     7  C    0.307513
     8  C   -0.151839
     9  C   -0.150811
    10  C    0.321506
    11  C   -0.304050
    12  C   -0.163995
    13  C   -0.265805
    14  C    0.600827
    15  O   -0.492945
    16  O   -0.479718
    17  N   -0.767734
    18  C    0.310000
    19  C    0.039692
    20  C    0.042210
    21  C    0.414556
    22  C   -0.368512
    23  C   -0.077935
    24  C   -0.239234
    25  N   -0.639401
    26  C    0.301577
    27  C    0.007972
    28  C    0.019197
    29  C    0.264527
    30  C   -0.362448
    31  C   -0.228576
    32  C   -0.310161
    33  N   -0.716782
    34  C    0.183976
    35  C    0.055780
    36  C   -0.038174
    37  C    0.360255
    38  C   -0.368561
    39  C    0.382154
    40  O   -0.467927
    41  C   -0.352642
    42  C    0.621937
    43  O   -0.502734
    44  O   -0.417612
    45  C   -0.098250
    46  C   -0.001780
    47  C   -0.120998
    48  C    0.111112
    49  C   -0.350288
    50  C   -0.212542
    51  C   -0.174486
    52  C   -0.178432
    53  C   -0.059160
    54  C   -0.311553
    55  C   -0.179376
    56  C   -0.175259
    57  C   -0.155643
    58  C   -0.064631
    59  C   -0.307873
    60  C   -0.157720
    61  C   -0.162434
    62  C   -0.150084
    63  C   -0.072116
    64  C   -0.285327
    65  C   -0.299906
    66  H    0.075322
    67  H    0.076701
    68  H    0.094353
    69  H    0.134525
    70  H    0.101737
    71  H    0.090524
    72  H    0.122833
    73  H    0.133681
    74  H    0.126654
    75  H    0.126975
    76  H    0.145018
    77  H    0.142804
    78  H    0.125812
    79  H    0.110939
    80  H    0.107280
    81  H    0.097576
    82  H    0.076527
    83  H    0.105663
    84  H    0.103393
    85  H    0.116540
    86  H    0.133822
    87  H    0.079719
    88  H    0.115093
    89  H    0.115590
    90  H    0.121080
    91  H    0.109221
    92  H    0.127925
    93  H    0.150058
    94  H    0.101823
    95  H    0.155165
    96  H    0.150118
    97  H    0.133920
    98  H    0.108793
    99  H    0.115828
   100  H    0.135820
   101  H    0.102999
   102  H    0.110026
   103  H    0.115415
   104  H    0.104389
   105  H    0.074688
   106  H    0.086055
   107  H    0.110874
   108  H    0.101069
   109  H    0.093950
   110  H    0.086190
   111  H    0.095143
   112  H    0.105872
   113  H    0.073553
   114  H    0.099446
   115  H    0.091217
   116  H    0.067144
   117  H    0.120024
   118  H    0.090758
   119  H    0.089753
   120  H    0.059027
   121  H    0.079957
   122  H    0.114842
   123  H    0.087763
   124  H    0.089776
   125  H    0.091756
   126  H    0.102592
   127  H    0.081295
   128  H    0.049522
   129  H    0.085658
   130  H    0.049638
   131  H    0.084109
   132  H    0.093516
   133  H    0.079058
   134  H    0.112218
   135  H    0.114239
   136  H    0.057492
   137  H    0.115077
 Sum of Mulliken charges =   0.00000

 Dipole moment (field-independent basis, Debye):
    X=              1.0842    Y=              4.8364    Z=              0.9181  Tot=              5.0407
 Quadrupole moment (field-independent basis, Debye-Ang):
   XX=           -364.2071   YY=           -393.1474   ZZ=           -397.4028
   XY=            -25.2248   XZ=             12.3553   YZ=             -2.5330

 Normal termination of Gaussian 09 at Sun Jun 30 23:55:30 2019.
