 Gaussian 09, Revision D.01,
 Gaussian 09:  ES64L-G09RevD.01 24-Apr-2013

 -------------------------------------
 # td=(NStates=1) CAM-B3LYP/6-31G(d,p)
 -------------------------------------

 --
 TD
 --
 Symbolic Z-matrix:
 Charge =  0 Multiplicity = 1

                         Standard orientation:
 ---------------------------------------------------------------------
 Center     Atomic      Atomic             Coordinates (Angstroms)
 Number     Number       Type             X           Y           Z
 ---------------------------------------------------------------------
      1         12           0       -7.132605    0.572761    0.154929
      2          6           0       -4.852608   -1.946459    0.385097
      3          6           0       -4.737387    2.838536    1.245111
      4          6           0       -9.378582    3.075634   -0.370448
      5          6           0       -9.498137   -1.659806   -0.862431
      6          7           0       -5.164082    0.422672    0.807633
      7          6           0       -4.382453   -0.689395    0.773942
      8          6           0       -2.929680   -0.384118    1.279952
      9          6           0       -3.002664    1.051984    1.758120
     10          6           0       -4.388271    1.461800    1.269632
     11          6           0       -2.822958    1.221233    3.189079
     12          6           0       -1.867434   -0.623692    0.046604
     13          6           0       -0.454280   -0.384364    0.601644
     14          6           0        0.512708   -0.620865   -0.506138
     15          8           0        0.130470   -0.977091   -1.642330
     16          8           0        1.748673   -0.455375   -0.099306
     17          7           0       -7.093710    2.527717    0.304593
     18          6           0       -6.029519    3.368573    0.834289
     19          6           0       -6.393311    4.640491    0.818149
     20          6           0       -7.684964    4.770708    0.281441
     21          6           0       -8.156132    3.403317    0.157839
     22          6           0       -5.459658    5.775288    1.329794
     23          6           0       -8.473822    5.945573    0.285371
     24          6           0       -8.146815    7.246252   -0.049241
     25          7           0       -9.210985    0.637527   -0.417186
     26          6           0       -9.915205    1.850048   -0.583071
     27          6           0      -11.223459    1.441040   -1.102880
     28          6           0      -11.300460    0.169698   -1.267412
     29          6           0       -9.948810   -0.303684   -0.842327
     30          6           0      -12.223501    2.607732   -1.373372
     31          6           0      -12.397494   -0.770394   -1.669278
     32          6           0      -12.287829   -1.088040   -3.190041
     33          7           0       -7.241498   -1.347238   -0.207198
     34          6           0       -8.291798   -2.168269   -0.531740
     35          6           0       -7.825488   -3.620152   -0.593203
     36          6           0       -6.483815   -3.505841   -0.243019
     37          6           0       -6.128005   -2.157854    0.068401
     38          6           0       -8.556055   -4.809654   -0.887868
     39          6           0       -5.269772   -4.402982    0.168524
     40          8           0       -5.210012   -5.617029    0.169842
     41          6           0       -4.195621   -3.291142    0.509966
     42          6           0       -3.488385   -3.617015    1.836031
     43          8           0       -3.642529   -3.092659    2.963950
     44          8           0       -2.640618   -4.655098    1.683912
     45          6           0       -1.973946   -5.238971    2.807092
     46          6           0        2.691663   -0.601521   -1.128206
     47          6           0        4.077031   -0.474944   -0.452182
     48          6           0        5.105645    0.399032   -0.844904
     49          6           0        5.026175    1.210463   -2.105681
     50          6           0        6.448045    0.369370   -0.145797
     51          6           0        7.613925   -0.091720   -0.914292
     52          6           0        8.907890   -0.105200   -0.050407
     53          6           0       10.146566   -0.614928   -0.855950
     54          6           0        9.963126   -2.138513   -1.334727
     55          6           0       11.419798   -0.495264   -0.009600
     56          6           0       12.754169   -0.601492   -0.776102
     57          6           0       13.785121   -0.243598    0.184344
     58          6           0       15.219509   -0.203841   -0.541733
     59          6           0       15.679670   -1.603074   -1.073837
     60          6           0       16.324861    0.347106    0.448121
     61          6           0       17.736134    0.595229   -0.208279
     62          6           0       18.815930    1.225629    0.723850
     63          6           0       20.224382    1.354693    0.264762
     64          6           0       20.156825    2.212968   -1.020579
     65          6           0       21.185753    2.154521    1.196868
     66          1           0       -4.164391    3.624416    1.565514
     67          1           0      -10.188343    3.960761   -0.268624
     68          1           0      -10.259138   -2.350706   -1.220132
     69          1           0       -2.697259   -1.216633    2.098265
     70          1           0       -2.242170    1.793880    1.329510
     71          1           0       -1.723894    1.106567    3.227028
     72          1           0       -3.062839    2.282922    3.701809
     73          1           0       -3.290018    0.481213    3.673824
     74          1           0       -2.024871   -1.644090   -0.466096
     75          1           0       -2.092707    0.217564   -0.767625
     76          1           0       -0.116726    0.706876    0.969691
     77          1           0       -0.273773   -1.078460    1.336380
     78          1           0       -4.734372    6.394022    0.761453
     79          1           0       -6.230070    6.332445    1.735678
     80          1           0       -4.863497    5.387384    2.053867
     81          1           0       -9.571550    5.882494    0.276335
     82          1           0       -8.952420    7.928625    0.110735
     83          1           0       -7.249904    7.654221   -0.397981
     84          1           0      -11.737414    3.259180   -2.111047
     85          1           0      -13.041289    2.065108   -1.905004
     86          1           0      -12.571016    3.136357   -0.441604
     87          1           0      -12.424195   -1.862363   -1.215241
     88          1           0      -13.398612   -0.368744   -1.461743
     89          1           0      -13.274891   -1.601940   -3.471308
     90          1           0      -12.245603   -0.156188   -3.594952
     91          1           0      -11.374067   -1.654863   -3.271648
     92          1           0       -8.751685   -4.767422   -1.857688
     93          1           0       -7.973902   -5.815740   -0.699224
     94          1           0       -9.560190   -4.714676   -0.242583
     95          1           0       -3.532522   -3.379830   -0.490552
     96          1           0       -0.975654   -4.607223    3.050020
     97          1           0       -2.588985   -5.494230    3.647299
     98          1           0       -1.539140   -6.323238    2.402416
     99          1           0        2.577569   -1.709076   -1.414578
    100          1           0        2.501039    0.007107   -2.056777
    101          1           0        4.281421   -1.189257    0.448141
    102          1           0        4.046044    1.466463   -2.572036
    103          1           0        5.649336    2.139339   -1.742237
    104          1           0        5.839822    0.717381   -2.813948
    105          1           0        6.767045    1.474258    0.092129
    106          1           0        6.444653   -0.126126    0.852666
    107          1           0        7.489631   -1.203301   -1.236245
    108          1           0        7.724490    0.566861   -1.711694
    109          1           0        8.935946    1.078912    0.256559
    110          1           0        8.999943   -0.650010    0.747225
    111          1           0       10.109152    0.160045   -1.945897
    112          1           0        9.182474   -2.226470   -2.040482
    113          1           0       10.944820   -2.437194   -1.812816
    114          1           0        9.819597   -2.955800   -0.605644
    115          1           0       11.485382    0.545900    0.302762
    116          1           0       11.432850   -1.063578    0.829035
    117          1           0       12.747721   -1.673251   -1.168152
    118          1           0       12.840372    0.250315   -1.735554
    119          1           0       13.697717    0.668551    0.851120
    120          1           0       13.780587   -1.100421    0.766475
    121          1           0       15.192745    0.505207   -1.318540
    122          1           0       15.585786   -2.425597   -0.338116
    123          1           0       15.120427   -2.078609   -2.025785
    124          1           0       16.673274   -1.412503   -1.457489
    125          1           0       16.014731    1.428854    0.885136
    126          1           0       16.424452   -0.443890    1.235048
    127          1           0       18.171308   -0.409990   -0.604763
    128          1           0       17.616464    1.197084   -1.084694
    129          1           0       18.296884    2.288356    0.784405
    130          1           0       18.834918    0.703397    1.775711
    131          1           0       20.555829    0.215194    0.194225
    132          1           0       19.795925    3.407959   -0.716113
    133          1           0       21.165108    2.341284   -1.325981
    134          1           0       19.389636    1.996144   -1.914849
    135          1           0       21.461491    1.493953    2.039258
    136          1           0       22.104143    2.390048    0.661510
    137          1           0       20.742044    3.024169    1.405969
 ---------------------------------------------------------------------

 SCF Done:  E(RCAM-B3LYP) =  -2932.65691543     A.U. after   18 cycles

 Excitation energies and oscillator strengths:

 Excited State   1:      Singlet-A      2.0135 eV  615.77 nm  f=0.2846  <S**2>=0.000
     240 -> 243       -0.21202
     241 -> 242        0.65832
 This state for optimization and/or second-order correction.
 Total Energy, E(TD-HF/TD-KS) =  -2932.58292182
 Copying the excited state density for this state as the 1-particle RhoCI density.

 The electronic state is 1-A.
 Alpha  occ. eigenvalues --  -46.82702 -19.27733 -19.27403 -19.22789 -19.21759
 Alpha  occ. eigenvalues --  -19.20505 -14.42048 -14.39086 -14.38827 -14.37988
 Alpha  occ. eigenvalues --  -10.41256 -10.39018 -10.37595 -10.34137 -10.33054
 Alpha  occ. eigenvalues --  -10.31838 -10.31483 -10.30063 -10.30005 -10.29499
 Alpha  occ. eigenvalues --  -10.29177 -10.28839 -10.28761 -10.28741 -10.28619
 Alpha  occ. eigenvalues --  -10.28501 -10.28124 -10.27815 -10.27581 -10.27496
 Alpha  occ. eigenvalues --  -10.27432 -10.27227 -10.27156 -10.27143 -10.27103
 Alpha  occ. eigenvalues --  -10.27097 -10.27007 -10.26817 -10.26786 -10.26724
 Alpha  occ. eigenvalues --  -10.26701 -10.26673 -10.26384 -10.26326 -10.26312
 Alpha  occ. eigenvalues --  -10.26196 -10.26096 -10.26088 -10.25769 -10.25768
 Alpha  occ. eigenvalues --  -10.25725 -10.25549 -10.25500 -10.25334 -10.25279
 Alpha  occ. eigenvalues --  -10.25262 -10.25198 -10.24784 -10.24734 -10.24644
 Alpha  occ. eigenvalues --  -10.24626 -10.24560 -10.24255 -10.24068 -10.23613
 Alpha  occ. eigenvalues --   -3.12034  -1.86716  -1.86307  -1.86211  -1.20596
 Alpha  occ. eigenvalues --   -1.18469  -1.12741  -1.08408  -1.08286  -1.04722
 Alpha  occ. eigenvalues --   -1.04009  -1.02513  -1.00591  -0.93919  -0.91490
 Alpha  occ. eigenvalues --   -0.90424  -0.90037  -0.89439  -0.89017  -0.88602
 Alpha  occ. eigenvalues --   -0.88386  -0.88048  -0.87431  -0.87287  -0.86277
 Alpha  occ. eigenvalues --   -0.85323  -0.84310  -0.83709  -0.82959  -0.82311
 Alpha  occ. eigenvalues --   -0.81632  -0.81226  -0.80153  -0.80026  -0.78135
 Alpha  occ. eigenvalues --   -0.77390  -0.76970  -0.76629  -0.75906  -0.75308
 Alpha  occ. eigenvalues --   -0.75178  -0.74954  -0.73598  -0.73343  -0.72201
 Alpha  occ. eigenvalues --   -0.71660  -0.69919  -0.68986  -0.68685  -0.67988
 Alpha  occ. eigenvalues --   -0.66923  -0.66556  -0.64850  -0.64629  -0.64102
 Alpha  occ. eigenvalues --   -0.63994  -0.63417  -0.63189  -0.62162  -0.61930
 Alpha  occ. eigenvalues --   -0.60858  -0.60055  -0.59875  -0.59349  -0.58980
 Alpha  occ. eigenvalues --   -0.58618  -0.58280  -0.58075  -0.57700  -0.56996
 Alpha  occ. eigenvalues --   -0.56460  -0.55534  -0.55446  -0.55360  -0.55044
 Alpha  occ. eigenvalues --   -0.54775  -0.54338  -0.53903  -0.53570  -0.53534
 Alpha  occ. eigenvalues --   -0.52937  -0.52359  -0.52056  -0.51945  -0.51823
 Alpha  occ. eigenvalues --   -0.51741  -0.51270  -0.51062  -0.50539  -0.50518
 Alpha  occ. eigenvalues --   -0.50454  -0.50297  -0.50222  -0.50048  -0.49495
 Alpha  occ. eigenvalues --   -0.49201  -0.49079  -0.48836  -0.48585  -0.48330
 Alpha  occ. eigenvalues --   -0.48119  -0.47636  -0.47397  -0.47273  -0.47009
 Alpha  occ. eigenvalues --   -0.46968  -0.46337  -0.46294  -0.46079  -0.45793
 Alpha  occ. eigenvalues --   -0.45750  -0.45736  -0.45504  -0.45384  -0.45306
 Alpha  occ. eigenvalues --   -0.45108  -0.44811  -0.44680  -0.44513  -0.44245
 Alpha  occ. eigenvalues --   -0.44110  -0.43970  -0.43596  -0.43280  -0.42973
 Alpha  occ. eigenvalues --   -0.42824  -0.42701  -0.42595  -0.42324  -0.42092
 Alpha  occ. eigenvalues --   -0.41904  -0.41632  -0.41540  -0.41264  -0.41057
 Alpha  occ. eigenvalues --   -0.40798  -0.40731  -0.40523  -0.40217  -0.39987
 Alpha  occ. eigenvalues --   -0.39775  -0.39663  -0.39539  -0.39431  -0.39373
 Alpha  occ. eigenvalues --   -0.39135  -0.39083  -0.38406  -0.38189  -0.37775
 Alpha  occ. eigenvalues --   -0.37471  -0.37049  -0.36891  -0.36651  -0.36608
 Alpha  occ. eigenvalues --   -0.36372  -0.35960  -0.35924  -0.35904  -0.35558
 Alpha  occ. eigenvalues --   -0.35429  -0.34482  -0.34414  -0.34326  -0.33460
 Alpha  occ. eigenvalues --   -0.33133  -0.32989  -0.32826  -0.31173  -0.30794
 Alpha  occ. eigenvalues --   -0.29719  -0.29118  -0.28753  -0.25756  -0.23137
 Alpha  occ. eigenvalues --   -0.20280
 Alpha virt. eigenvalues --   -0.06073  -0.02714   0.01107   0.03608   0.04794
 Alpha virt. eigenvalues --    0.05219   0.06010   0.06839   0.07116   0.07613
 Alpha virt. eigenvalues --    0.08460   0.10639   0.10807   0.10945   0.11665

 Mulliken charges:
               1
     1  Mg   0.816408
     2  C    0.036858
     3  C   -0.171555
     4  C   -0.175303
     5  C   -0.208581
     6  N   -0.635396
     7  C    0.326777
     8  C   -0.187222
     9  C   -0.128214
    10  C    0.318296
    11  C   -0.282365
    12  C   -0.167545
    13  C   -0.253749
    14  C    0.608613
    15  O   -0.505249
    16  O   -0.431345
    17  N   -0.710310
    18  C    0.295333
    19  C   -0.026361
    20  C    0.036883
    21  C    0.266659
    22  C   -0.356745
    23  C   -0.120823
    24  C   -0.244762
    25  N   -0.650211
    26  C    0.275511
    27  C   -0.017153
    28  C    0.077609
    29  C    0.303345
    30  C   -0.361411
    31  C   -0.269609
    32  C   -0.295556
    33  N   -0.751971
    34  C    0.324135
    35  C    0.043669
    36  C   -0.064432
    37  C    0.336107
    38  C   -0.384154
    39  C    0.413855
    40  O   -0.436389
    41  C   -0.315497
    42  C    0.613040
    43  O   -0.493532
    44  O   -0.430965
    45  C   -0.072242
    46  C    0.002390
    47  C   -0.150009
    48  C    0.135107
    49  C   -0.363086
    50  C   -0.230987
    51  C   -0.161581
    52  C   -0.142729
    53  C   -0.046451
    54  C   -0.333357
    55  C   -0.179873
    56  C   -0.161259
    57  C   -0.163953
    58  C   -0.063410
    59  C   -0.316687
    60  C   -0.169117
    61  C   -0.185234
    62  C   -0.141401
    63  C   -0.053585
    64  C   -0.293694
    65  C   -0.301489
    66  H    0.064228
    67  H    0.086611
    68  H    0.072461
    69  H    0.126825
    70  H    0.103514
    71  H    0.097004
    72  H    0.092834
    73  H    0.133111
    74  H    0.121604
    75  H    0.110939
    76  H    0.125566
    77  H    0.145169
    78  H    0.111860
    79  H    0.129531
    80  H    0.110903
    81  H    0.086368
    82  H    0.093601
    83  H    0.106616
    84  H    0.131997
    85  H    0.101876
    86  H    0.123841
    87  H    0.095632
    88  H    0.106031
    89  H    0.094077
    90  H    0.121203
    91  H    0.112851
    92  H    0.149618
    93  H    0.146305
    94  H    0.115398
    95  H    0.171623
    96  H    0.110335
    97  H    0.151712
    98  H    0.109602
    99  H    0.119888
   100  H    0.127756
   101  H    0.087711
   102  H    0.123925
   103  H    0.100172
   104  H    0.121603
   105  H    0.078503
   106  H    0.103196
   107  H    0.087456
   108  H    0.104196
   109  H    0.057592
   110  H    0.100854
   111  H    0.033122
   112  H    0.115867
   113  H    0.098618
   114  H    0.100842
   115  H    0.098476
   116  H    0.103029
   117  H    0.095850
   118  H    0.051398
   119  H    0.092806
   120  H    0.098743
   121  H    0.090945
   122  H    0.102695
   123  H    0.080058
   124  H    0.113384
   125  H    0.069193
   126  H    0.091106
   127  H    0.074889
   128  H    0.098950
   129  H    0.064401
   130  H    0.067321
   131  H    0.075835
   132  H    0.059566
   133  H    0.107788
   134  H    0.094749
   135  H    0.099554
   136  H    0.102859
   137  H    0.120210
 Sum of Mulliken charges =   0.00000

 Dipole moment (field-independent basis, Debye):
    X=              3.5123    Y=              0.2426    Z=              0.4433  Tot=              3.5484
 Quadrupole moment (field-independent basis, Debye-Ang):
   XX=           -341.8468   YY=           -393.4859   ZZ=           -403.6367
   XY=             -1.6066   XZ=             14.7172   YZ=             -3.9864

 Normal termination of Gaussian 09 at Sun Jun 30 07:41:44 2019.
