 Gaussian 09, Revision D.01,
 Gaussian 09:  ES64L-G09RevD.01 24-Apr-2013

 -------------------------------------
 # td=(NStates=1) CAM-B3LYP/6-31G(d,p)
 -------------------------------------

 --
 TD
 --
 Symbolic Z-matrix:
 Charge =  0 Multiplicity = 1

                         Standard orientation:
 ---------------------------------------------------------------------
 Center     Atomic      Atomic             Coordinates (Angstroms)
 Number     Number       Type             X           Y           Z
 ---------------------------------------------------------------------
      1         12           0       -7.143968    0.645176    0.067465
      2          6           0       -4.859537   -1.957454    0.434840
      3          6           0       -4.785586    2.877461    1.185680
      4          6           0       -9.394746    3.006448   -0.376460
      5          6           0       -9.550016   -1.759133   -0.885657
      6          7           0       -5.095856    0.386193    0.667019
      7          6           0       -4.348756   -0.739677    0.730025
      8          6           0       -2.852285   -0.379648    1.161196
      9          6           0       -3.007446    1.048228    1.660176
     10          6           0       -4.378648    1.454823    1.069336
     11          6           0       -2.918908    1.269842    3.180806
     12          6           0       -1.874319   -0.534460   -0.091063
     13          6           0       -0.396388   -0.482577    0.563098
     14          6           0        0.623117   -0.714415   -0.521509
     15          8           0        0.203670   -0.966800   -1.716848
     16          8           0        1.857540   -0.509338   -0.157111
     17          7           0       -7.027533    2.541582    0.276031
     18          6           0       -6.029327    3.342467    0.810780
     19          6           0       -6.468057    4.841551    0.948213
     20          6           0       -7.793507    4.763305    0.558779
     21          6           0       -8.135094    3.431427    0.094344
     22          6           0       -5.689042    5.906673    1.552182
     23          6           0       -8.572913    5.970674    0.315757
     24          6           0       -8.244752    7.172146    0.060129
     25          7           0       -9.101026    0.652065   -0.627344
     26          6           0       -9.841843    1.770168   -0.707511
     27          6           0      -11.183752    1.522211   -1.136915
     28          6           0      -11.195328    0.121832   -1.196918
     29          6           0       -9.931387   -0.363873   -0.891079
     30          6           0      -12.230037    2.439272   -1.310079
     31          6           0      -12.406438   -0.639051   -1.639445
     32          6           0      -12.464610   -0.945371   -3.132915
     33          7           0       -7.299875   -1.404202   -0.136761
     34          6           0       -8.329149   -2.262630   -0.615963
     35          6           0       -7.879319   -3.558949   -0.565359
     36          6           0       -6.558878   -3.539970   -0.231307
     37          6           0       -6.262308   -2.139592    0.013585
     38          6           0       -8.825812   -4.797270   -0.668891
     39          6           0       -5.344611   -4.353295    0.047739
     40          8           0       -5.198871   -5.545106   -0.039611
     41          6           0       -4.111408   -3.286314    0.402705
     42          6           0       -3.651024   -3.665799    1.848082
     43          8           0       -3.960306   -3.255854    2.936423
     44          8           0       -2.809749   -4.720114    1.684490
     45          6           0       -2.327584   -5.275197    2.894223
     46          6           0        2.873319   -0.709025   -1.133369
     47          6           0        4.222015   -0.392268   -0.545312
     48          6           0        5.242543    0.375559   -1.002843
     49          6           0        5.192011    0.986084   -2.386597
     50          6           0        6.374481    0.490886   -0.111139
     51          6           0        7.513296   -0.073353   -0.825176
     52          6           0        8.922691   -0.009487   -0.101675
     53          6           0       10.265024   -0.546370   -0.821671
     54          6           0       10.014426   -2.088368   -1.126910
     55          6           0       11.419192   -0.227140    0.009379
     56          6           0       12.801349   -0.293412   -0.684464
     57          6           0       13.964587   -0.198105    0.296905
     58          6           0       15.395351   -0.210424   -0.363122
     59          6           0       15.778047   -1.686923   -0.588293
     60          6           0       16.515822    0.435525    0.436871
     61          6           0       17.958609    0.436530   -0.172043
     62          6           0       18.885748    1.186028    0.665864
     63          6           0       20.329476    1.339011   -0.031064
     64          6           0       20.375716    2.242783   -1.175282
     65          6           0       21.232440    1.792200    1.119453
     66          1           0       -4.009224    3.551300    1.460123
     67          1           0      -10.204415    3.783345   -0.326184
     68          1           0      -10.359469   -2.439708   -0.951899
     69          1           0       -2.561498   -1.005826    1.972079
     70          1           0       -2.172349    1.875762    1.278528
     71          1           0       -1.968159    0.829989    3.260991
     72          1           0       -3.237703    2.353104    3.483969
     73          1           0       -3.651610    0.539939    3.647987
     74          1           0       -2.252516   -1.458612   -0.498029
     75          1           0       -1.947697    0.440422   -0.698799
     76          1           0       -0.218193    0.487729    1.217310
     77          1           0       -0.382845   -1.333596    1.113673
     78          1           0       -4.846198    6.534184    1.111006
     79          1           0       -6.411102    6.798859    1.819202
     80          1           0       -5.097427    5.721339    2.511069
     81          1           0       -9.573169    5.570996    0.386047
     82          1           0       -8.906280    8.070839   -0.117370
     83          1           0       -7.045978    7.524424    0.216076
     84          1           0      -12.342118    2.901930   -2.319478
     85          1           0      -13.313912    1.857903   -1.333667
     86          1           0      -12.356665    3.148477   -0.489319
     87          1           0      -12.285399   -1.469936   -0.979180
     88          1           0      -13.325097   -0.111395   -1.070965
     89          1           0      -13.248870   -1.394139   -3.368994
     90          1           0      -12.327727   -0.018704   -3.666920
     91          1           0      -11.553697   -1.339287   -3.338151
     92          1           0       -9.204909   -4.817936   -1.676831
     93          1           0       -8.309408   -5.817970   -0.434127
     94          1           0       -9.811227   -4.658454   -0.160442
     95          1           0       -3.403729   -3.656602   -0.129204
     96          1           0       -2.145727   -4.303803    3.569245
     97          1           0       -3.127485   -5.930762    3.565177
     98          1           0       -1.520611   -5.872084    2.567350
     99          1           0        2.870746   -1.637616   -1.549310
    100          1           0        2.687799   -0.035847   -2.003490
    101          1           0        4.327002   -0.822834    0.438118
    102          1           0        4.259648    0.911849   -2.871790
    103          1           0        5.238791    2.081893   -2.264744
    104          1           0        5.899377    0.526599   -3.028653
    105          1           0        6.762833    1.576358    0.161019
    106          1           0        6.396568   -0.118463    0.973882
    107          1           0        7.370590   -1.006341   -1.106055
    108          1           0        7.799276    0.331786   -1.769700
    109          1           0        8.957306    1.057635    0.087139
    110          1           0        9.002568   -0.603928    0.886912
    111          1           0       10.426171   -0.096646   -1.662066
    112          1           0        8.989658   -2.388081   -1.827734
    113          1           0       10.824832   -2.672325   -1.713613
    114          1           0        9.958832   -2.463760   -0.218443
    115          1           0       11.222289    0.921801    0.134647
    116          1           0       11.500606   -0.842701    0.966112
    117          1           0       12.874845   -1.334454   -1.006759
    118          1           0       12.770336    0.285611   -1.618565
    119          1           0       13.744604    1.018817    0.649418
    120          1           0       13.874353   -0.935784    1.157752
    121          1           0       15.246838    0.286015   -1.227159
    122          1           0       15.953809   -2.294058    0.434079
    123          1           0       15.069963   -2.232445   -1.286185
    124          1           0       16.606812   -1.767844   -1.057908
    125          1           0       16.261849    1.550858    0.699689
    126          1           0       16.745553   -0.151235    1.436773
    127          1           0       18.123487   -0.553124   -0.521777
    128          1           0       17.981246    0.797784   -1.371957
    129          1           0       18.483654    2.202987    0.747610
    130          1           0       18.864292    0.788625    1.651407
    131          1           0       20.466731    0.369394   -0.036533
    132          1           0       19.912765    3.284592   -0.760662
    133          1           0       21.484128    2.500279   -1.501235
    134          1           0       19.934152    1.685841   -2.034637
    135          1           0       21.333456    1.093160    1.850165
    136          1           0       22.346742    2.182173    0.931797
    137          1           0       20.868633    2.786305    1.770530
 ---------------------------------------------------------------------

 SCF Done:  E(RCAM-B3LYP) =  -2932.56615366     A.U. after   16 cycles

 Excitation energies and oscillator strengths:

 Excited State   1:      Singlet-A      2.1103 eV  587.52 nm  f=0.2445  <S**2>=0.000
     240 -> 243       -0.23797
     241 -> 242        0.65370
 This state for optimization and/or second-order correction.
 Total Energy, E(TD-HF/TD-KS) =  -2932.48860108
 Copying the excited state density for this state as the 1-particle RhoCI density.

 The electronic state is 1-A.
 Alpha  occ. eigenvalues --  -46.83937 -19.28379 -19.25935 -19.21380 -19.21012
 Alpha  occ. eigenvalues --  -19.19821 -14.41981 -14.39841 -14.39516 -14.38212
 Alpha  occ. eigenvalues --  -10.39626 -10.39029 -10.35844 -10.32124 -10.31987
 Alpha  occ. eigenvalues --  -10.31684 -10.30866 -10.30594 -10.30102 -10.29401
 Alpha  occ. eigenvalues --  -10.28713 -10.28214 -10.28196 -10.28126 -10.28110
 Alpha  occ. eigenvalues --  -10.28024 -10.27930 -10.27896 -10.27822 -10.27820
 Alpha  occ. eigenvalues --  -10.27797 -10.27711 -10.27631 -10.27398 -10.27381
 Alpha  occ. eigenvalues --  -10.27379 -10.27345 -10.27306 -10.26993 -10.26649
 Alpha  occ. eigenvalues --  -10.26638 -10.26574 -10.26463 -10.26262 -10.26252
 Alpha  occ. eigenvalues --  -10.25985 -10.25962 -10.25946 -10.25923 -10.25870
 Alpha  occ. eigenvalues --  -10.25823 -10.25750 -10.25705 -10.25656 -10.25312
 Alpha  occ. eigenvalues --  -10.25262 -10.25198 -10.25185 -10.25023 -10.24715
 Alpha  occ. eigenvalues --  -10.24655 -10.24566 -10.24439 -10.23663 -10.22709
 Alpha  occ. eigenvalues --   -3.13147  -1.87834  -1.87418  -1.87321  -1.20029
 Alpha  occ. eigenvalues --   -1.18582  -1.11947  -1.09586  -1.05958  -1.05562
 Alpha  occ. eigenvalues --   -1.04246  -1.03970  -1.01417  -0.92747  -0.91716
 Alpha  occ. eigenvalues --   -0.91061  -0.90380  -0.90107  -0.89707  -0.89075
 Alpha  occ. eigenvalues --   -0.88670  -0.88639  -0.87717  -0.87340  -0.86742
 Alpha  occ. eigenvalues --   -0.85221  -0.84407  -0.84208  -0.83587  -0.83189
 Alpha  occ. eigenvalues --   -0.82312  -0.81027  -0.80968  -0.80470  -0.78380
 Alpha  occ. eigenvalues --   -0.78222  -0.77524  -0.77004  -0.75892  -0.75475
 Alpha  occ. eigenvalues --   -0.75258  -0.75039  -0.74381  -0.73185  -0.72684
 Alpha  occ. eigenvalues --   -0.71482  -0.70721  -0.70315  -0.69328  -0.67901
 Alpha  occ. eigenvalues --   -0.66950  -0.66752  -0.65406  -0.64839  -0.64779
 Alpha  occ. eigenvalues --   -0.64647  -0.64145  -0.63845  -0.63639  -0.62664
 Alpha  occ. eigenvalues --   -0.61807  -0.61022  -0.60792  -0.59561  -0.59286
 Alpha  occ. eigenvalues --   -0.59039  -0.58354  -0.57823  -0.57573  -0.57360
 Alpha  occ. eigenvalues --   -0.56085  -0.55634  -0.55463  -0.55121  -0.54613
 Alpha  occ. eigenvalues --   -0.54440  -0.54283  -0.54066  -0.54017  -0.53624
 Alpha  occ. eigenvalues --   -0.53271  -0.53186  -0.52704  -0.52586  -0.51943
 Alpha  occ. eigenvalues --   -0.51800  -0.51725  -0.51576  -0.51166  -0.50902
 Alpha  occ. eigenvalues --   -0.50764  -0.50564  -0.50440  -0.50063  -0.49791
 Alpha  occ. eigenvalues --   -0.49475  -0.49037  -0.48657  -0.48602  -0.48462
 Alpha  occ. eigenvalues --   -0.48087  -0.47848  -0.47504  -0.47102  -0.46938
 Alpha  occ. eigenvalues --   -0.46807  -0.46521  -0.46461  -0.46335  -0.46271
 Alpha  occ. eigenvalues --   -0.45898  -0.45706  -0.45427  -0.45333  -0.45112
 Alpha  occ. eigenvalues --   -0.45035  -0.44789  -0.44728  -0.44530  -0.44468
 Alpha  occ. eigenvalues --   -0.44202  -0.44128  -0.44058  -0.43999  -0.43707
 Alpha  occ. eigenvalues --   -0.43477  -0.43249  -0.43056  -0.42657  -0.42262
 Alpha  occ. eigenvalues --   -0.42149  -0.42073  -0.41724  -0.41493  -0.41252
 Alpha  occ. eigenvalues --   -0.41115  -0.40798  -0.40566  -0.40471  -0.40286
 Alpha  occ. eigenvalues --   -0.39972  -0.39746  -0.39259  -0.39115  -0.39043
 Alpha  occ. eigenvalues --   -0.38626  -0.38460  -0.38258  -0.38164  -0.37866
 Alpha  occ. eigenvalues --   -0.37687  -0.37472  -0.37329  -0.37134  -0.36516
 Alpha  occ. eigenvalues --   -0.36397  -0.35832  -0.35726  -0.35632  -0.35410
 Alpha  occ. eigenvalues --   -0.35105  -0.34866  -0.33854  -0.33608  -0.33360
 Alpha  occ. eigenvalues --   -0.33121  -0.32477  -0.32343  -0.30932  -0.29977
 Alpha  occ. eigenvalues --   -0.29829  -0.29801  -0.28430  -0.27347  -0.23971
 Alpha  occ. eigenvalues --   -0.20761
 Alpha virt. eigenvalues --   -0.05810  -0.03003   0.01725   0.04273   0.05196
 Alpha virt. eigenvalues --    0.06017   0.06107   0.06507   0.06778   0.07275
 Alpha virt. eigenvalues --    0.09006   0.10485   0.11317   0.11489   0.12134

 Mulliken charges:
               1
     1  Mg   0.825679
     2  C    0.037930
     3  C   -0.226917
     4  C   -0.208007
     5  C   -0.177491
     6  N   -0.630468
     7  C    0.303746
     8  C   -0.162364
     9  C   -0.152757
    10  C    0.347341
    11  C   -0.289801
    12  C   -0.140054
    13  C   -0.273460
    14  C    0.603270
    15  O   -0.516349
    16  O   -0.436304
    17  N   -0.742608
    18  C    0.312714
    19  C    0.086834
    20  C   -0.035428
    21  C    0.326495
    22  C   -0.422685
    23  C    0.017739
    24  C   -0.278347
    25  N   -0.705258
    26  C    0.309421
    27  C    0.113094
    28  C   -0.044668
    29  C    0.301496
    30  C   -0.413742
    31  C   -0.240645
    32  C   -0.284904
    33  N   -0.717677
    34  C    0.268058
    35  C    0.024201
    36  C   -0.018300
    37  C    0.356454
    38  C   -0.371805
    39  C    0.357142
    40  O   -0.437341
    41  C   -0.292245
    42  C    0.609447
    43  O   -0.471298
    44  O   -0.448000
    45  C   -0.076711
    46  C    0.017591
    47  C   -0.159495
    48  C    0.139878
    49  C   -0.368750
    50  C   -0.219680
    51  C   -0.185259
    52  C   -0.183758
    53  C   -0.059710
    54  C   -0.300095
    55  C   -0.157276
    56  C   -0.188047
    57  C   -0.154936
    58  C   -0.042670
    59  C   -0.310272
    60  C   -0.160622
    61  C   -0.177319
    62  C   -0.179711
    63  C   -0.038826
    64  C   -0.285837
    65  C   -0.305271
    66  H    0.082659
    67  H    0.082226
    68  H    0.095035
    69  H    0.113842
    70  H    0.075299
    71  H    0.117276
    72  H    0.113895
    73  H    0.118536
    74  H    0.132483
    75  H    0.119702
    76  H    0.126915
    77  H    0.147353
    78  H    0.124362
    79  H    0.115620
    80  H    0.117170
    81  H    0.080891
    82  H    0.112554
    83  H    0.077914
    84  H    0.126239
    85  H    0.085893
    86  H    0.122952
    87  H    0.097711
    88  H    0.079939
    89  H    0.113954
    90  H    0.108424
    91  H    0.118710
    92  H    0.129126
    93  H    0.141005
    94  H    0.122107
    95  H    0.144314
    96  H    0.118990
    97  H    0.104931
    98  H    0.127839
    99  H    0.142555
   100  H    0.118331
   101  H    0.090132
   102  H    0.120355
   103  H    0.119582
   104  H    0.133648
   105  H    0.084991
   106  H    0.093017
   107  H    0.108453
   108  H    0.098897
   109  H    0.086044
   110  H    0.072650
   111  H    0.088567
   112  H    0.066844
   113  H    0.090537
   114  H    0.117622
   115  H    0.082891
   116  H    0.081045
   117  H    0.092806
   118  H    0.094430
   119  H    0.039658
   120  H    0.092077
   121  H    0.097611
   122  H    0.082630
   123  H    0.091128
   124  H    0.116083
   125  H    0.077070
   126  H    0.073180
   127  H    0.100904
   128  H    0.041130
   129  H    0.096049
   130  H    0.100585
   131  H    0.108139
   132  H    0.094723
   133  H    0.094237
   134  H    0.107094
   135  H    0.111641
   136  H    0.073867
   137  H    0.057568
 Sum of Mulliken charges =   0.00000

 Dipole moment (field-independent basis, Debye):
    X=              2.8498    Y=              3.5371    Z=              0.4511  Tot=              4.5646
 Quadrupole moment (field-independent basis, Debye-Ang):
   XX=           -348.9155   YY=           -393.2381   ZZ=           -400.3830
   XY=            -28.3639   XZ=             -2.0798   YZ=              1.1330

 Normal termination of Gaussian 09 at Fri Jun 28 08:53:31 2019.
