 Gaussian 09, Revision D.01,
 Gaussian 09:  ES64L-G09RevD.01 24-Apr-2013

 -------------------------------------
 # td=(NStates=1) CAM-B3LYP/6-31G(d,p)
 -------------------------------------

 --
 TD
 --
 Symbolic Z-matrix:
 Charge =  0 Multiplicity = 1

                         Standard orientation:
 ---------------------------------------------------------------------
 Center     Atomic      Atomic             Coordinates (Angstroms)
 Number     Number       Type             X           Y           Z
 ---------------------------------------------------------------------
      1         12           0       -7.186634    0.548382    0.204595
      2          6           0       -4.804005   -1.951685    0.549726
      3          6           0       -4.843069    2.839552    1.224012
      4          6           0       -9.360507    3.186061   -0.333587
      5          6           0       -9.513841   -1.645360   -0.976233
      6          7           0       -5.090604    0.407147    0.719955
      7          6           0       -4.320667   -0.745605    0.758864
      8          6           0       -2.857755   -0.432923    1.174869
      9          6           0       -3.049383    1.080280    1.698195
     10          6           0       -4.390159    1.521433    1.293927
     11          6           0       -2.850170    1.286738    3.197939
     12          6           0       -1.818196   -0.652393    0.163820
     13          6           0       -0.319746   -0.571899    0.486373
     14          6           0        0.534680   -0.830404   -0.561913
     15          8           0        0.263154   -1.105335   -1.663995
     16          8           0        1.829767   -0.463455   -0.248693
     17          7           0       -7.051632    2.629190    0.298128
     18          6           0       -5.977943    3.352067    0.705556
     19          6           0       -6.340482    4.731861    0.969646
     20          6           0       -7.651181    4.896917    0.460941
     21          6           0       -8.164965    3.578643    0.131011
     22          6           0       -5.446541    5.849425    1.412917
     23          6           0       -8.521497    5.993868    0.313890
     24          6           0       -8.168392    7.193095   -0.051441
     25          7           0       -9.159364    0.653414   -0.524310
     26          6           0       -9.775124    1.868077   -0.656252
     27          6           0      -11.106788    1.543861   -1.065828
     28          6           0      -11.211503    0.197385   -1.379633
     29          6           0       -9.945418   -0.326551   -0.886841
     30          6           0      -12.276397    2.484679   -1.297558
     31          6           0      -12.333206   -0.755691   -1.728917
     32          6           0      -12.287566   -1.194964   -3.247905
     33          7           0       -7.165195   -1.354834   -0.218500
     34          6           0       -8.272588   -2.168637   -0.498281
     35          6           0       -7.871014   -3.582343   -0.403998
     36          6           0       -6.543438   -3.588891   -0.104789
     37          6           0       -6.189743   -2.227954    0.095141
     38          6           0       -8.641873   -4.808506   -0.800273
     39          6           0       -5.313021   -4.439491    0.250969
     40          8           0       -5.187694   -5.607807    0.207663
     41          6           0       -4.135420   -3.347721    0.581013
     42          6           0       -3.509295   -3.649260    1.879729
     43          8           0       -3.784067   -3.108248    2.950187
     44          8           0       -2.679554   -4.784414    1.741951
     45          6           0       -2.106693   -5.089862    2.989353
     46          6           0        2.759941   -0.752582   -1.296144
     47          6           0        4.180251   -0.635248   -0.670407
     48          6           0        5.035416    0.380334   -1.011743
     49          6           0        4.963214    1.310147   -2.240296
     50          6           0        6.336410    0.398365   -0.250086
     51          6           0        7.514868   -0.194326   -0.991365
     52          6           0        8.849676   -0.132318   -0.168520
     53          6           0       10.116045   -0.446161   -1.014108
     54          6           0       10.110648   -1.921340   -1.471308
     55          6           0       11.392909   -0.147248   -0.110099
     56          6           0       12.701674   -0.389742   -0.852641
     57          6           0       13.926427   -0.079831    0.043566
     58          6           0       15.296712   -0.222363   -0.503103
     59          6           0       15.589433   -1.650983   -0.956904
     60          6           0       16.374687    0.339945    0.413428
     61          6           0       17.755049    0.570854   -0.128841
     62          6           0       18.649003    1.292977    0.877574
     63          6           0       20.122973    1.374099    0.355182
     64          6           0       20.218789    2.069101   -0.989303
     65          6           0       21.066123    1.867111    1.417051
     66          1           0       -4.195038    3.620734    1.676307
     67          1           0       -9.970875    3.965990   -0.397438
     68          1           0      -10.199294   -2.641283   -1.360421
     69          1           0       -2.439962   -0.975321    2.150653
     70          1           0       -2.404633    1.619224    1.242998
     71          1           0       -1.899686    0.940191    3.422309
     72          1           0       -2.980720    2.203094    3.661584
     73          1           0       -3.453708    0.471277    3.775614
     74          1           0       -2.003269   -1.731698   -0.183555
     75          1           0       -1.909940   -0.052747   -0.790928
     76          1           0       -0.458309    0.549925    0.738274
     77          1           0       -0.185258   -1.034600    1.479318
     78          1           0       -4.766873    6.308150    0.770909
     79          1           0       -5.882365    6.699307    1.655247
     80          1           0       -4.659668    5.362422    2.166469
     81          1           0       -9.683559    5.946863    0.675831
     82          1           0       -8.851811    7.997589   -0.041220
     83          1           0       -7.056808    7.445451   -0.192106
     84          1           0      -12.003720    3.530119   -1.781494
     85          1           0      -13.229436    2.041424   -1.866558
     86          1           0      -12.637777    2.965611   -0.374440
     87          1           0      -12.164181   -1.746106   -1.113468
     88          1           0      -13.265485   -0.201829   -1.506626
     89          1           0      -13.154948   -1.793785   -3.466134
     90          1           0      -12.305649    0.023267   -3.744366
     91          1           0      -11.339285   -1.520666   -3.452312
     92          1           0       -9.312663   -4.786056   -1.866166
     93          1           0       -8.040260   -5.713779   -0.967071
     94          1           0       -9.429250   -5.283674    0.058338
     95          1           0       -3.242494   -3.509968   -0.263023
     96          1           0       -1.534968   -4.243719    3.356201
     97          1           0       -2.929883   -5.445120    3.680888
     98          1           0       -1.321846   -5.927214    2.775828
     99          1           0        2.609949   -1.816118   -1.657714
    100          1           0        2.505647   -0.152146   -2.196279
    101          1           0        4.419079   -1.358849    0.223359
    102          1           0        3.975413    1.022370   -2.737844
    103          1           0        5.273437    2.287210   -1.921198
    104          1           0        5.780224    1.029218   -3.066817
    105          1           0        6.709225    1.477866   -0.036247
    106          1           0        6.247054    0.086835    0.848736
    107          1           0        7.252636   -1.309982   -1.199151
    108          1           0        7.660154    0.170687   -1.983069
    109          1           0        8.888642    0.956278    0.077872
    110          1           0        8.887541   -0.627173    0.826721
    111          1           0       10.065795    0.257069   -1.945768
    112          1           0        9.185332   -2.016024   -2.089146
    113          1           0       10.917180   -2.080407   -2.072787
    114          1           0       10.390721   -2.810170   -0.532086
    115          1           0       11.346015    0.960606    0.062227
    116          1           0       11.370470   -0.676962    0.976137
    117          1           0       12.524501   -1.363962   -1.354010
    118          1           0       12.833040    0.254944   -1.759582
    119          1           0       13.870136    1.073732    0.437312
    120          1           0       13.828988   -0.618455    1.098753
    121          1           0       15.241182    0.281627   -1.390130
    122          1           0       15.523421   -2.286742   -0.028557
    123          1           0       14.832934   -2.306372   -1.628864
    124          1           0       16.639655   -1.601795   -1.433920
    125          1           0       15.899216    1.217906    0.777344
    126          1           0       16.385271   -0.191243    1.522598
    127          1           0       18.257821   -0.418883   -0.335173
    128          1           0       17.800085    1.086814   -0.961510
    129          1           0       18.463598    2.463919    1.057822
    130          1           0       18.722828    0.810971    1.835890
    131          1           0       20.405766    0.368162    0.392541
    132          1           0       19.914866    3.121952   -0.826204
    133          1           0       21.447315    2.121506   -1.240847
    134          1           0       19.778412    1.629679   -1.763119
    135          1           0       20.974738    1.149987    2.307902
    136          1           0       21.958704    1.753906    1.173953
    137          1           0       20.636902    2.850486    1.564197
 ---------------------------------------------------------------------

 SCF Done:  E(RCAM-B3LYP) =  -2932.60909707     A.U. after   16 cycles

 Excitation energies and oscillator strengths:

 Excited State   1:      Singlet-A      2.1152 eV  586.15 nm  f=0.2091  <S**2>=0.000
     240 -> 243        0.26700
     241 -> 242        0.64583
 This state for optimization and/or second-order correction.
 Total Energy, E(TD-HF/TD-KS) =  -2932.53136332
 Copying the excited state density for this state as the 1-particle RhoCI density.

 The electronic state is 1-A.
 Alpha  occ. eigenvalues --  -46.84318 -19.26065 -19.24812 -19.22340 -19.21872
 Alpha  occ. eigenvalues --  -19.21540 -14.41282 -14.39951 -14.39333 -14.39315
 Alpha  occ. eigenvalues --  -10.39626 -10.38573 -10.37102 -10.31696 -10.31508
 Alpha  occ. eigenvalues --  -10.31263 -10.30281 -10.30248 -10.29934 -10.29905
 Alpha  occ. eigenvalues --  -10.29652 -10.29514 -10.29452 -10.29266 -10.28944
 Alpha  occ. eigenvalues --  -10.28936 -10.28858 -10.28274 -10.28128 -10.27989
 Alpha  occ. eigenvalues --  -10.27910 -10.27687 -10.27649 -10.27495 -10.27321
 Alpha  occ. eigenvalues --  -10.27248 -10.27236 -10.27182 -10.27140 -10.26899
 Alpha  occ. eigenvalues --  -10.26644 -10.26485 -10.26436 -10.26385 -10.26319
 Alpha  occ. eigenvalues --  -10.26305 -10.26283 -10.26164 -10.26075 -10.25881
 Alpha  occ. eigenvalues --  -10.25868 -10.25841 -10.25577 -10.25576 -10.25571
 Alpha  occ. eigenvalues --  -10.25551 -10.25516 -10.25473 -10.25327 -10.25288
 Alpha  occ. eigenvalues --  -10.25211 -10.24579 -10.24532 -10.24307 -10.22803
 Alpha  occ. eigenvalues --   -3.13330  -1.88031  -1.87553  -1.87525  -1.19377
 Alpha  occ. eigenvalues --   -1.17108  -1.14609  -1.10151  -1.09176  -1.04775
 Alpha  occ. eigenvalues --   -1.03691  -1.02258  -1.01144  -0.91820  -0.91366
 Alpha  occ. eigenvalues --   -0.91162  -0.90421  -0.90253  -0.89550  -0.89289
 Alpha  occ. eigenvalues --   -0.88477  -0.88173  -0.87450  -0.87014  -0.86705
 Alpha  occ. eigenvalues --   -0.85074  -0.84641  -0.84049  -0.83194  -0.82556
 Alpha  occ. eigenvalues --   -0.81672  -0.80873  -0.80415  -0.79658  -0.78642
 Alpha  occ. eigenvalues --   -0.78097  -0.76969  -0.76438  -0.75574  -0.75516
 Alpha  occ. eigenvalues --   -0.74789  -0.74438  -0.74038  -0.73452  -0.72425
 Alpha  occ. eigenvalues --   -0.72217  -0.70736  -0.69276  -0.68758  -0.68241
 Alpha  occ. eigenvalues --   -0.67138  -0.66834  -0.65739  -0.64761  -0.64583
 Alpha  occ. eigenvalues --   -0.63971  -0.63011  -0.62464  -0.62097  -0.61745
 Alpha  occ. eigenvalues --   -0.61488  -0.61178  -0.60432  -0.59695  -0.59089
 Alpha  occ. eigenvalues --   -0.58761  -0.58437  -0.58058  -0.57309  -0.56952
 Alpha  occ. eigenvalues --   -0.56406  -0.56007  -0.55761  -0.55474  -0.55003
 Alpha  occ. eigenvalues --   -0.54551  -0.54232  -0.53854  -0.53726  -0.53484
 Alpha  occ. eigenvalues --   -0.53153  -0.52984  -0.52928  -0.52460  -0.52448
 Alpha  occ. eigenvalues --   -0.51742  -0.51605  -0.51427  -0.51031  -0.50620
 Alpha  occ. eigenvalues --   -0.50461  -0.50285  -0.50168  -0.49723  -0.49449
 Alpha  occ. eigenvalues --   -0.49422  -0.49092  -0.48777  -0.48661  -0.48602
 Alpha  occ. eigenvalues --   -0.48138  -0.47757  -0.47407  -0.47343  -0.47057
 Alpha  occ. eigenvalues --   -0.46882  -0.46731  -0.46319  -0.46271  -0.46023
 Alpha  occ. eigenvalues --   -0.45640  -0.45542  -0.45374  -0.45168  -0.44981
 Alpha  occ. eigenvalues --   -0.44801  -0.44732  -0.44600  -0.43865  -0.43749
 Alpha  occ. eigenvalues --   -0.43534  -0.43430  -0.43265  -0.43225  -0.42906
 Alpha  occ. eigenvalues --   -0.42836  -0.42640  -0.42354  -0.42330  -0.42146
 Alpha  occ. eigenvalues --   -0.41938  -0.41709  -0.41525  -0.41462  -0.41320
 Alpha  occ. eigenvalues --   -0.41189  -0.41119  -0.40765  -0.40399  -0.40281
 Alpha  occ. eigenvalues --   -0.39928  -0.39827  -0.39666  -0.39356  -0.39125
 Alpha  occ. eigenvalues --   -0.38525  -0.38309  -0.38037  -0.37807  -0.37681
 Alpha  occ. eigenvalues --   -0.37482  -0.36966  -0.36745  -0.36635  -0.36509
 Alpha  occ. eigenvalues --   -0.35839  -0.35735  -0.35664  -0.35447  -0.35312
 Alpha  occ. eigenvalues --   -0.35187  -0.35060  -0.34777  -0.34614  -0.34301
 Alpha  occ. eigenvalues --   -0.33883  -0.33397  -0.32209  -0.31384  -0.30985
 Alpha  occ. eigenvalues --   -0.30326  -0.29293  -0.28092  -0.27529  -0.23477
 Alpha  occ. eigenvalues --   -0.21901
 Alpha virt. eigenvalues --   -0.06643  -0.03515   0.01805   0.03372   0.04711
 Alpha virt. eigenvalues --    0.04971   0.05128   0.05682   0.06775   0.07501
 Alpha virt. eigenvalues --    0.08142   0.09587   0.10090   0.10789   0.11978

 Mulliken charges:
               1
     1  Mg   0.833534
     2  C    0.111006
     3  C   -0.199252
     4  C   -0.123593
     5  C   -0.156602
     6  N   -0.657727
     7  C    0.297600
     8  C   -0.153761
     9  C   -0.139594
    10  C    0.336104
    11  C   -0.326981
    12  C   -0.184605
    13  C   -0.296378
    14  C    0.646307
    15  O   -0.442605
    16  O   -0.492458
    17  N   -0.708814
    18  C    0.353413
    19  C    0.011346
    20  C    0.041790
    21  C    0.267056
    22  C   -0.364028
    23  C   -0.104651
    24  C   -0.230713
    25  N   -0.692929
    26  C    0.322107
    27  C    0.005849
    28  C    0.032399
    29  C    0.292227
    30  C   -0.388325
    31  C   -0.239580
    32  C   -0.283138
    33  N   -0.714578
    34  C    0.242169
    35  C    0.007813
    36  C    0.021154
    37  C    0.248332
    38  C   -0.384975
    39  C    0.409017
    40  O   -0.402274
    41  C   -0.342809
    42  C    0.642171
    43  O   -0.472896
    44  O   -0.465018
    45  C   -0.073344
    46  C    0.008587
    47  C   -0.127495
    48  C    0.110821
    49  C   -0.343402
    50  C   -0.229916
    51  C   -0.167983
    52  C   -0.164244
    53  C   -0.073745
    54  C   -0.287329
    55  C   -0.163106
    56  C   -0.177262
    57  C   -0.167978
    58  C   -0.047360
    59  C   -0.297672
    60  C   -0.169060
    61  C   -0.163845
    62  C   -0.166644
    63  C   -0.088986
    64  C   -0.290119
    65  C   -0.277774
    66  H    0.068909
    67  H    0.069240
    68  H    0.102993
    69  H    0.107482
    70  H    0.109597
    71  H    0.110501
    72  H    0.122082
    73  H    0.115345
    74  H    0.099797
    75  H    0.116879
    76  H    0.148015
    77  H    0.138878
    78  H    0.134199
    79  H    0.126056
    80  H    0.093548
    81  H    0.095595
    82  H    0.105683
    83  H    0.092572
    84  H    0.098266
    85  H    0.105721
    86  H    0.117449
    87  H    0.096012
    88  H    0.102903
    89  H    0.114880
    90  H    0.060627
    91  H    0.129135
    92  H    0.093654
    93  H    0.151860
    94  H    0.098249
    95  H    0.153910
    96  H    0.119520
    97  H    0.128229
    98  H    0.106697
    99  H    0.110188
   100  H    0.117732
   101  H    0.097228
   102  H    0.110446
   103  H    0.130191
   104  H    0.104436
   105  H    0.072681
   106  H    0.099005
   107  H    0.084894
   108  H    0.098017
   109  H    0.081741
   110  H    0.095283
   111  H    0.077914
   112  H    0.102588
   113  H    0.116814
   114  H    0.062257
   115  H    0.088548
   116  H    0.079292
   117  H    0.094021
   118  H    0.087893
   119  H    0.062574
   120  H    0.066908
   121  H    0.095072
   122  H    0.093510
   123  H    0.083740
   124  H    0.088969
   125  H    0.099240
   126  H    0.061440
   127  H    0.094898
   128  H    0.106955
   129  H    0.058401
   130  H    0.092949
   131  H    0.086852
   132  H    0.099860
   133  H    0.062093
   134  H    0.121753
   135  H    0.080974
   136  H    0.108618
   137  H    0.094283
 Sum of Mulliken charges =   0.00000

 Dipole moment (field-independent basis, Debye):
    X=              1.2536    Y=              4.8560    Z=              0.9211  Tot=              5.0990
 Quadrupole moment (field-independent basis, Debye-Ang):
   XX=           -356.4405   YY=           -386.9995   ZZ=           -401.1759
   XY=            -21.1564   XZ=             -6.3477   YZ=              1.2196

 Normal termination of Gaussian 09 at Sat Jun 29 07:15:43 2019.
