 Gaussian 09, Revision D.01,
 Gaussian 09:  ES64L-G09RevD.01 24-Apr-2013

 -------------------------------------
 # td=(NStates=1) CAM-B3LYP/6-31G(d,p)
 -------------------------------------

 --
 TD
 --
 Symbolic Z-matrix:
 Charge =  0 Multiplicity = 1

                         Standard orientation:
 ---------------------------------------------------------------------
 Center     Atomic      Atomic             Coordinates (Angstroms)
 Number     Number       Type             X           Y           Z
 ---------------------------------------------------------------------
      1         12           0       -7.132982    0.535138    0.147412
      2          6           0       -4.813544   -1.874549    0.484926
      3          6           0       -4.841083    2.807912    1.239600
      4          6           0       -9.446881    2.964554   -0.367295
      5          6           0       -9.500882   -1.776559   -0.827201
      6          7           0       -5.037507    0.407289    0.752738
      7          6           0       -4.333832   -0.728737    0.747856
      8          6           0       -2.843572   -0.338265    1.164582
      9          6           0       -2.993440    1.173202    1.635933
     10          6           0       -4.381557    1.506240    1.222463
     11          6           0       -2.787784    1.367851    3.175569
     12          6           0       -1.873436   -0.476012   -0.054539
     13          6           0       -0.376126   -0.465722    0.479924
     14          6           0        0.529711   -0.655471   -0.736225
     15          8           0        0.247238   -1.065300   -1.855649
     16          8           0        1.808315   -0.577169   -0.329708
     17          7           0       -7.148041    2.601006    0.317300
     18          6           0       -6.007692    3.284369    0.838301
     19          6           0       -6.548375    4.723382    0.908919
     20          6           0       -7.805558    4.744343    0.494462
     21          6           0       -8.202649    3.470166    0.047250
     22          6           0       -5.563824    5.856950    1.222203
     23          6           0       -8.729696    5.918849    0.398587
     24          6           0       -8.458760    7.202333    0.044497
     25          7           0       -9.092348    0.647132   -0.447177
     26          6           0       -9.872558    1.748584   -0.631984
     27          6           0      -11.206486    1.409068   -1.146717
     28          6           0      -11.296047    0.046039   -1.186865
     29          6           0       -9.938498   -0.429378   -0.807975
     30          6           0      -12.490694    2.359627   -1.328533
     31          6           0      -12.394701   -0.867925   -1.704695
     32          6           0      -12.131967   -1.244077   -3.109224
     33          7           0       -7.229842   -1.349481   -0.042572
     34          6           0       -8.203561   -2.233569   -0.504182
     35          6           0       -7.786788   -3.537967   -0.429520
     36          6           0       -6.424385   -3.454914   -0.040129
     37          6           0       -6.086133   -2.150726    0.154363
     38          6           0       -8.619031   -4.723461   -0.753791
     39          6           0       -5.268219   -4.282576    0.229507
     40          8           0       -5.091146   -5.498288    0.165183
     41          6           0       -4.147037   -3.273142    0.634166
     42          6           0       -3.450961   -3.619457    1.873463
     43          8           0       -3.590471   -2.964686    2.971662
     44          8           0       -2.727579   -4.718447    1.713429
     45          6           0       -2.167672   -5.242380    2.926281
     46          6           0        2.869488   -0.749920   -1.339876
     47          6           0        4.129809   -0.422020   -0.630381
     48          6           0        5.093318    0.367665   -1.117143
     49          6           0        5.123622    1.130187   -2.438275
     50          6           0        6.370390    0.379239   -0.312329
     51          6           0        7.713980   -0.086550   -1.087043
     52          6           0        8.902735   -0.051515   -0.154198
     53          6           0       10.184636   -0.594372   -0.839900
     54          6           0       10.036611   -2.024157   -1.265382
     55          6           0       11.429856   -0.147508   -0.054478
     56          6           0       12.724035   -0.575931   -0.643427
     57          6           0       13.924610   -0.042478    0.155603
     58          6           0       15.282137   -0.285565   -0.420118
     59          6           0       15.693960   -1.696999   -0.727052
     60          6           0       16.415041    0.443638    0.352932
     61          6           0       17.863903    0.645084   -0.169627
     62          6           0       18.723205    1.197847    0.728658
     63          6           0       20.163439    1.297829    0.282577
     64          6           0       20.249414    2.173420   -0.907950
     65          6           0       20.956250    1.897395    1.398072
     66          1           0       -4.056192    3.538034    1.721779
     67          1           0      -10.095650    3.927122   -0.668821
     68          1           0      -10.173748   -2.626811   -1.295675
     69          1           0       -2.397102   -0.957262    1.968089
     70          1           0       -2.435724    1.874041    1.121386
     71          1           0       -1.672618    1.429983    3.481853
     72          1           0       -3.046260    2.311965    3.684612
     73          1           0       -3.442853    0.567696    3.614807
     74          1           0       -2.036655   -1.484989   -0.636855
     75          1           0       -2.161124    0.336134   -0.821091
     76          1           0       -0.207708    0.722082    0.736037
     77          1           0       -0.027308   -1.043380    1.244412
     78          1           0       -4.882317    6.204822    0.500443
     79          1           0       -6.008920    7.069423    1.413136
     80          1           0       -4.893185    5.599446    2.156110
     81          1           0       -9.774085    5.691277    0.841490
     82          1           0       -9.327026    7.963117   -0.097681
     83          1           0       -7.359773    7.743665   -0.384400
     84          1           0      -12.419819    3.309783   -2.206598
     85          1           0      -13.534934    1.835086   -1.493920
     86          1           0      -12.555688    2.951194   -0.489748
     87          1           0      -12.524034   -1.729414   -0.906083
     88          1           0      -13.232242   -0.355408   -1.590989
     89          1           0      -12.899884   -1.686914   -3.550905
     90          1           0      -11.946967   -0.292592   -3.679467
     91          1           0      -11.240377   -2.076307   -3.289678
     92          1           0       -8.999083   -4.596248   -1.838184
     93          1           0       -7.917973   -5.574732   -0.777507
     94          1           0       -9.481084   -5.046084    0.033607
     95          1           0       -3.592394   -3.392816   -0.217431
     96          1           0       -1.632023   -4.432829    3.475000
     97          1           0       -2.936290   -5.664004    3.658561
     98          1           0       -1.571625   -6.201249    2.773016
     99          1           0        2.614703   -1.824446   -1.783144
    100          1           0        2.751494    0.058709   -2.093920
    101          1           0        4.316657   -0.770513    0.435459
    102          1           0        4.083343    1.229748   -2.866443
    103          1           0        5.078920    2.003707   -2.224760
    104          1           0        6.000101    0.690544   -3.112471
    105          1           0        6.615323    1.508346   -0.102827
    106          1           0        6.205327   -0.050604    0.722852
    107          1           0        7.446199   -1.099141   -1.342555
    108          1           0        8.158263    0.689694   -1.928599
    109          1           0        9.270891    0.833089    0.310071
    110          1           0        8.640742   -0.769277    0.734626
    111          1           0       10.113024    0.065063   -1.722161
    112          1           0        9.026342   -2.334851   -1.655142
    113          1           0       10.789059   -2.139814   -2.121547
    114          1           0       10.113911   -2.699180   -0.352620
    115          1           0       11.279314    0.902427    0.208126
    116          1           0       11.607191   -0.749647    0.850467
    117          1           0       12.741876   -1.542464   -0.879921
    118          1           0       12.625257   -0.095535   -1.647752
    119          1           0       13.809523    0.961506    0.398120
    120          1           0       13.985251   -0.380751    1.160501
    121          1           0       15.224553    0.249980   -1.376755
    122          1           0       15.959717   -2.270511    0.208694
    123          1           0       15.092946   -2.431868   -1.305339
    124          1           0       16.680058   -1.755968   -1.218040
    125          1           0       15.789244    1.518355    0.660014
    126          1           0       16.477808    0.072533    1.424502
    127          1           0       18.174646   -0.444534   -0.602491
    128          1           0       17.697558    1.264570   -1.091148
    129          1           0       18.453171    2.268031    1.150554
    130          1           0       18.572233    0.807620    1.677627
    131          1           0       20.467733    0.324351   -0.046771
    132          1           0       19.960303    3.175599   -0.788302
    133          1           0       21.301398    2.378069   -1.147919
    134          1           0       19.740006    1.661797   -1.877455
    135          1           0       20.623256    1.538433    2.398233
    136          1           0       22.081975    1.902907    1.258139
    137          1           0       20.572098    2.984829    1.432674
 ---------------------------------------------------------------------

 SCF Done:  E(RCAM-B3LYP) =  -2932.59792878     A.U. after   17 cycles

 Excitation energies and oscillator strengths:

 Excited State   1:      Singlet-A      2.0828 eV  595.29 nm  f=0.2859  <S**2>=0.000
     240 -> 243       -0.22808
     241 -> 242        0.66584
 This state for optimization and/or second-order correction.
 Total Energy, E(TD-HF/TD-KS) =  -2932.52138857
 Copying the excited state density for this state as the 1-particle RhoCI density.

 The electronic state is 1-A.
 Alpha  occ. eigenvalues --  -46.82843 -19.27764 -19.24968 -19.20187 -19.20092
 Alpha  occ. eigenvalues --  -19.19671 -14.41682 -14.39544 -14.39195 -14.38191
 Alpha  occ. eigenvalues --  -10.39660 -10.38508 -10.34527 -10.32403 -10.32227
 Alpha  occ. eigenvalues --  -10.31272 -10.30695 -10.29794 -10.29381 -10.29333
 Alpha  occ. eigenvalues --  -10.29248 -10.29173 -10.28724 -10.28720 -10.28610
 Alpha  occ. eigenvalues --  -10.28422 -10.28243 -10.28211 -10.28133 -10.27738
 Alpha  occ. eigenvalues --  -10.27691 -10.27629 -10.27549 -10.27439 -10.27393
 Alpha  occ. eigenvalues --  -10.27324 -10.27275 -10.27243 -10.26922 -10.26895
 Alpha  occ. eigenvalues --  -10.26888 -10.26887 -10.26870 -10.26859 -10.26699
 Alpha  occ. eigenvalues --  -10.26586 -10.26383 -10.25980 -10.25871 -10.25789
 Alpha  occ. eigenvalues --  -10.25729 -10.25658 -10.25640 -10.25639 -10.25515
 Alpha  occ. eigenvalues --  -10.25350 -10.25161 -10.24996 -10.24773 -10.24623
 Alpha  occ. eigenvalues --  -10.24397 -10.24190 -10.24047 -10.23937 -10.23810
 Alpha  occ. eigenvalues --   -3.12134  -1.86820  -1.86381  -1.86330  -1.18640
 Alpha  occ. eigenvalues --   -1.16967  -1.09686  -1.07541  -1.06076  -1.04682
 Alpha  occ. eigenvalues --   -1.02915  -1.02438  -1.01372  -0.93873  -0.92332
 Alpha  occ. eigenvalues --   -0.91633  -0.90819  -0.90031  -0.89361  -0.89284
 Alpha  occ. eigenvalues --   -0.88772  -0.87838  -0.87412  -0.86409  -0.85935
 Alpha  occ. eigenvalues --   -0.85301  -0.84337  -0.83779  -0.83419  -0.82526
 Alpha  occ. eigenvalues --   -0.82077  -0.81987  -0.80947  -0.80696  -0.78444
 Alpha  occ. eigenvalues --   -0.77695  -0.76910  -0.76710  -0.76264  -0.75965
 Alpha  occ. eigenvalues --   -0.75653  -0.74805  -0.74407  -0.73159  -0.72568
 Alpha  occ. eigenvalues --   -0.72473  -0.70855  -0.70187  -0.68755  -0.67879
 Alpha  occ. eigenvalues --   -0.66521  -0.66218  -0.65729  -0.65390  -0.64994
 Alpha  occ. eigenvalues --   -0.64326  -0.64286  -0.63192  -0.62167  -0.62008
 Alpha  occ. eigenvalues --   -0.61949  -0.60940  -0.59758  -0.59335  -0.58853
 Alpha  occ. eigenvalues --   -0.58666  -0.57988  -0.57346  -0.57017  -0.56347
 Alpha  occ. eigenvalues --   -0.55544  -0.55452  -0.55408  -0.55081  -0.54800
 Alpha  occ. eigenvalues --   -0.54671  -0.54394  -0.54093  -0.53507  -0.53122
 Alpha  occ. eigenvalues --   -0.52664  -0.52458  -0.52217  -0.52089  -0.51753
 Alpha  occ. eigenvalues --   -0.51503  -0.51210  -0.51025  -0.50729  -0.50599
 Alpha  occ. eigenvalues --   -0.50322  -0.50191  -0.49836  -0.49753  -0.49439
 Alpha  occ. eigenvalues --   -0.49039  -0.48777  -0.48460  -0.48351  -0.48273
 Alpha  occ. eigenvalues --   -0.48193  -0.47632  -0.47592  -0.47489  -0.47004
 Alpha  occ. eigenvalues --   -0.46873  -0.46647  -0.46542  -0.46136  -0.45744
 Alpha  occ. eigenvalues --   -0.45475  -0.45157  -0.44958  -0.44819  -0.44763
 Alpha  occ. eigenvalues --   -0.44617  -0.44076  -0.43907  -0.43722  -0.43573
 Alpha  occ. eigenvalues --   -0.43519  -0.43040  -0.42969  -0.42898  -0.42656
 Alpha  occ. eigenvalues --   -0.42423  -0.42264  -0.42040  -0.41938  -0.41878
 Alpha  occ. eigenvalues --   -0.41660  -0.41597  -0.41458  -0.41305  -0.41129
 Alpha  occ. eigenvalues --   -0.40909  -0.40881  -0.40708  -0.40423  -0.40286
 Alpha  occ. eigenvalues --   -0.39921  -0.39477  -0.39432  -0.39250  -0.39103
 Alpha  occ. eigenvalues --   -0.39049  -0.38978  -0.38863  -0.38238  -0.37868
 Alpha  occ. eigenvalues --   -0.37815  -0.37421  -0.36785  -0.36552  -0.36340
 Alpha  occ. eigenvalues --   -0.36111  -0.35618  -0.35535  -0.35446  -0.35212
 Alpha  occ. eigenvalues --   -0.35076  -0.34797  -0.34281  -0.33622  -0.33195
 Alpha  occ. eigenvalues --   -0.33030  -0.32753  -0.32552  -0.31798  -0.29536
 Alpha  occ. eigenvalues --   -0.29418  -0.29332  -0.28390  -0.28219  -0.23793
 Alpha  occ. eigenvalues --   -0.21304
 Alpha virt. eigenvalues --   -0.06730  -0.02492   0.01791   0.04252   0.05134
 Alpha virt. eigenvalues --    0.05874   0.06293   0.06798   0.06969   0.07063
 Alpha virt. eigenvalues --    0.09094   0.10240   0.11028   0.11130   0.11199

 Mulliken charges:
               1
     1  Mg   0.810050
     2  C    0.100544
     3  C   -0.199672
     4  C   -0.222975
     5  C   -0.188991
     6  N   -0.655045
     7  C    0.277053
     8  C   -0.158028
     9  C   -0.147407
    10  C    0.352877
    11  C   -0.319073
    12  C   -0.172460
    13  C   -0.253118
    14  C    0.599330
    15  O   -0.484105
    16  O   -0.491461
    17  N   -0.729198
    18  C    0.343453
    19  C    0.014354
    20  C    0.029883
    21  C    0.316690
    22  C   -0.369555
    23  C   -0.099232
    24  C   -0.224334
    25  N   -0.679775
    26  C    0.362894
    27  C    0.020945
    28  C    0.014774
    29  C    0.275417
    30  C   -0.359519
    31  C   -0.204644
    32  C   -0.293233
    33  N   -0.785709
    34  C    0.280202
    35  C    0.050412
    36  C    0.011949
    37  C    0.303901
    38  C   -0.385928
    39  C    0.322438
    40  O   -0.473621
    41  C   -0.292037
    42  C    0.641622
    43  O   -0.529389
    44  O   -0.417346
    45  C   -0.093055
    46  C    0.020094
    47  C   -0.127935
    48  C    0.101822
    49  C   -0.330546
    50  C   -0.228404
    51  C   -0.172463
    52  C   -0.168437
    53  C   -0.058989
    54  C   -0.310746
    55  C   -0.175281
    56  C   -0.181668
    57  C   -0.179541
    58  C   -0.040418
    59  C   -0.321293
    60  C   -0.187691
    61  C   -0.161141
    62  C   -0.141501
    63  C   -0.046013
    64  C   -0.300382
    65  C   -0.311194
    66  H    0.093109
    67  H    0.083906
    68  H    0.098335
    69  H    0.126946
    70  H    0.111094
    71  H    0.099781
    72  H    0.109598
    73  H    0.136483
    74  H    0.115046
    75  H    0.110795
    76  H    0.112682
    77  H    0.153795
    78  H    0.143511
    79  H    0.079894
    80  H    0.100628
    81  H    0.109683
    82  H    0.103005
    83  H    0.087294
    84  H    0.075648
    85  H    0.111821
    86  H    0.141203
    87  H    0.095751
    88  H    0.109705
    89  H    0.118895
    90  H    0.115127
    91  H    0.085097
    92  H    0.113405
    93  H    0.145702
    94  H    0.112297
    95  H    0.177777
    96  H    0.136373
    97  H    0.127437
    98  H    0.124965
    99  H    0.129120
   100  H    0.119204
   101  H    0.090102
   102  H    0.089466
   103  H    0.134738
   104  H    0.126601
   105  H    0.076780
   106  H    0.100930
   107  H    0.117852
   108  H    0.081931
   109  H    0.092330
   110  H    0.064522
   111  H    0.072938
   112  H    0.101881
   113  H    0.099615
   114  H    0.100134
   115  H    0.091083
   116  H    0.090341
   117  H    0.113932
   118  H    0.074569
   119  H    0.097220
   120  H    0.089449
   121  H    0.087722
   122  H    0.089206
   123  H    0.100184
   124  H    0.100620
   125  H    0.038957
   126  H    0.077714
   127  H    0.075217
   128  H    0.103125
   129  H    0.068239
   130  H    0.096224
   131  H    0.092412
   132  H    0.107425
   133  H    0.092211
   134  H    0.083310
   135  H    0.099469
   136  H    0.099119
   137  H    0.089173
 Sum of Mulliken charges =   0.00000

 Dipole moment (field-independent basis, Debye):
    X=              2.0513    Y=              4.9447    Z=              0.2861  Tot=              5.3609
 Quadrupole moment (field-independent basis, Debye-Ang):
   XX=           -331.1547   YY=           -391.0109   ZZ=           -400.5992
   XY=            -19.9231   XZ=             12.9877   YZ=             -3.6495

 Normal termination of Gaussian 09 at Sat Jun 29 10:33:05 2019.
