 Gaussian 09, Revision D.01,
 Gaussian 09:  ES64L-G09RevD.01 24-Apr-2013

 -------------------------------------
 # td=(NStates=1) CAM-B3LYP/6-31G(d,p)
 -------------------------------------

 --
 TD
 --
 Symbolic Z-matrix:
 Charge =  0 Multiplicity = 1

                         Standard orientation:
 ---------------------------------------------------------------------
 Center     Atomic      Atomic             Coordinates (Angstroms)
 Number     Number       Type             X           Y           Z
 ---------------------------------------------------------------------
      1         12           0       -7.150457    0.620308    0.078864
      2          6           0       -4.810684   -1.999760    0.508784
      3          6           0       -4.942182    2.716849    1.385794
      4          6           0       -9.462142    3.133218   -0.275934
      5          6           0       -9.442417   -1.632084   -0.993570
      6          7           0       -5.242648    0.376921    0.781792
      7          6           0       -4.314713   -0.757357    0.841007
      8          6           0       -2.981961   -0.463819    1.235817
      9          6           0       -3.088700    0.984451    1.673708
     10          6           0       -4.485865    1.430808    1.318673
     11          6           0       -2.914232    1.072720    3.223749
     12          6           0       -1.934519   -0.644517   -0.035002
     13          6           0       -0.512364   -0.438713    0.441307
     14          6           0        0.528903   -0.689806   -0.576323
     15          8           0        0.260673   -1.141406   -1.707160
     16          8           0        1.746592   -0.282118   -0.223469
     17          7           0       -7.143568    2.596285    0.426984
     18          6           0       -6.117257    3.275849    0.817799
     19          6           0       -6.412231    4.658743    0.919784
     20          6           0       -7.726239    4.855497    0.509675
     21          6           0       -8.253605    3.465840    0.157632
     22          6           0       -5.466610    5.741505    1.424282
     23          6           0       -8.538009    6.015740    0.432597
     24          6           0       -8.169796    7.248969    0.223331
     25          7           0       -9.133122    0.694966   -0.560623
     26          6           0       -9.868156    1.844568   -0.559524
     27          6           0      -11.261040    1.460795   -1.117447
     28          6           0      -11.289988    0.111538   -1.236374
     29          6           0       -9.913478   -0.292320   -1.025107
     30          6           0      -12.236967    2.551430   -1.303212
     31          6           0      -12.380154   -0.649477   -1.828933
     32          6           0      -12.082030   -0.985525   -3.358135
     33          7           0       -7.181633   -1.423771   -0.053048
     34          6           0       -8.232379   -2.200726   -0.663110
     35          6           0       -7.847702   -3.531385   -0.688585
     36          6           0       -6.553479   -3.602839   -0.262555
     37          6           0       -6.190436   -2.254875    0.146992
     38          6           0       -8.707914   -4.676267   -1.245568
     39          6           0       -5.415816   -4.445433    0.067891
     40          8           0       -5.202461   -5.608112    0.103328
     41          6           0       -4.226159   -3.425034    0.533756
     42          6           0       -3.588586   -3.879408    1.909036
     43          8           0       -3.820831   -3.332157    3.025565
     44          8           0       -2.748773   -4.906025    1.720580
     45          6           0       -2.260797   -5.480051    2.976961
     46          6           0        2.801644   -0.460206   -1.229768
     47          6           0        4.133874   -0.210246   -0.550721
     48          6           0        5.167422    0.581207   -0.968895
     49          6           0        5.190333    1.666372   -2.031473
     50          6           0        6.434387    0.646196   -0.062554
     51          6           0        7.618211   -0.028960   -0.808562
     52          6           0        8.927613    0.001817    0.049361
     53          6           0       10.214318   -0.433142   -0.844466
     54          6           0       10.136995   -1.824324   -1.277610
     55          6           0       11.469024   -0.176837   -0.054538
     56          6           0       12.791176   -0.527590   -0.820225
     57          6           0       14.029629   -0.221728    0.192894
     58          6           0       15.294405   -0.192502   -0.444335
     59          6           0       15.527609   -1.572921   -0.994273
     60          6           0       16.431373    0.191858    0.509739
     61          6           0       17.853651    0.440845   -0.169148
     62          6           0       18.876527    1.364084    0.693907
     63          6           0       20.298403    1.175100    0.147349
     64          6           0       20.385582    1.894230   -1.213325
     65          6           0       21.197687    1.805985    1.188240
     66          1           0       -4.078948    3.540816    1.741385
     67          1           0      -10.147236    3.780709   -0.622655
     68          1           0      -10.243551   -2.273586   -1.323397
     69          1           0       -2.679362   -1.168494    2.005979
     70          1           0       -2.265466    1.739335    1.056464
     71          1           0       -1.968779    0.808233    3.883873
     72          1           0       -3.058450    2.090892    3.478574
     73          1           0       -3.668481    0.605692    3.746592
     74          1           0       -1.951712   -1.643662   -0.376060
     75          1           0       -2.302776    0.034930   -0.816849
     76          1           0       -0.290953    0.511746    0.902865
     77          1           0       -0.014057   -1.159518    1.214097
     78          1           0       -4.791806    6.026778    0.519759
     79          1           0       -5.987852    6.654325    1.484663
     80          1           0       -4.939288    5.460046    2.248076
     81          1           0       -9.521910    5.781678    0.658435
     82          1           0       -8.980326    7.808690    0.289788
     83          1           0       -7.112071    7.602650    0.363516
     84          1           0      -11.884167    3.220492   -2.103304
     85          1           0      -13.068283    2.188606   -1.871035
     86          1           0      -12.301795    3.033889   -0.137717
     87          1           0      -12.605340   -1.641248   -1.305071
     88          1           0      -13.280158   -0.094720   -1.641310
     89          1           0      -12.919862   -1.483203   -3.919182
     90          1           0      -12.346353    0.073333   -3.832668
     91          1           0      -11.168347   -1.580210   -3.471010
     92          1           0       -9.247946   -4.335408   -2.189165
     93          1           0       -8.050308   -5.675770   -1.322120
     94          1           0       -9.376463   -4.936508   -0.315992
     95          1           0       -3.500643   -3.520274   -0.218506
     96          1           0       -1.765890   -4.783809    3.422932
     97          1           0       -3.211771   -5.973834    3.553890
     98          1           0       -1.589112   -6.446711    2.951111
     99          1           0        2.648085   -1.502159   -1.444431
    100          1           0        2.576131    0.071132   -2.089714
    101          1           0        4.194115   -0.862159    0.290428
    102          1           0        4.167529    1.755295   -2.903860
    103          1           0        5.250599    2.786026   -1.765262
    104          1           0        6.292597    1.609390   -2.676645
    105          1           0        6.681234    1.547902    0.281408
    106          1           0        6.425927   -0.055266    0.742511
    107          1           0        7.451512   -1.144742   -0.972178
    108          1           0        7.770069    0.551079   -1.804881
    109          1           0        8.999697    1.042283    0.281236
    110          1           0        8.821647   -0.582811    0.771969
    111          1           0       10.171061    0.220119   -1.845948
    112          1           0        9.101440   -1.868173   -1.687982
    113          1           0       10.790022   -2.204371   -2.108155
    114          1           0       10.024931   -2.378274   -0.362677
    115          1           0       11.443446    0.948918    0.484766
    116          1           0       11.357610   -0.780928    0.905330
    117          1           0       13.026777   -1.619329   -1.225469
    118          1           0       13.100616    0.251642   -1.523265
    119          1           0       13.811503    0.836944    0.532450
    120          1           0       13.951328   -0.732726    1.192277
    121          1           0       15.225395    0.733339   -1.142046
    122          1           0       15.590343   -2.436995   -0.297475
    123          1           0       14.696831   -1.926734   -1.726163
    124          1           0       16.558257   -1.619214   -1.472138
    125          1           0       16.038314    1.061499    1.056684
    126          1           0       16.675432   -0.567552    1.255215
    127          1           0       18.327926   -0.393348   -0.335911
    128          1           0       17.799267    0.712843   -1.128980
    129          1           0       18.651715    2.428044    0.890075
    130          1           0       18.863251    0.800597    1.791518
    131          1           0       20.529880    0.069458    0.196136
    132          1           0       20.274524    2.942128   -0.938750
    133          1           0       21.475629    1.779510   -1.417356
    134          1           0       19.867832    1.394507   -2.003654
    135          1           0       21.500398    1.177648    2.069602
    136          1           0       22.151850    1.992972    0.901984
    137          1           0       20.784447    2.889486    1.365785
 ---------------------------------------------------------------------

 SCF Done:  E(RCAM-B3LYP) =  -2932.60594196     A.U. after   17 cycles

 Excitation energies and oscillator strengths:

 Excited State   1:      Singlet-A      2.0643 eV  600.62 nm  f=0.2592  <S**2>=0.000
     240 -> 243       -0.21466
     241 -> 242        0.65935
 This state for optimization and/or second-order correction.
 Total Energy, E(TD-HF/TD-KS) =  -2932.53008108
 Copying the excited state density for this state as the 1-particle RhoCI density.

 The electronic state is 1-A.
 Alpha  occ. eigenvalues --  -46.83521 -19.26851 -19.26017 -19.20038 -19.19965
 Alpha  occ. eigenvalues --  -19.19413 -14.41041 -14.39754 -14.39584 -14.38638
 Alpha  occ. eigenvalues --  -10.39373 -10.38431 -10.34722 -10.31840 -10.31091
 Alpha  occ. eigenvalues --  -10.30816 -10.30800 -10.29966 -10.29862 -10.29763
 Alpha  occ. eigenvalues --  -10.29571 -10.29365 -10.28674 -10.28346 -10.28302
 Alpha  occ. eigenvalues --  -10.28198 -10.28035 -10.27737 -10.27698 -10.27615
 Alpha  occ. eigenvalues --  -10.27514 -10.27427 -10.27154 -10.27030 -10.26959
 Alpha  occ. eigenvalues --  -10.26953 -10.26858 -10.26849 -10.26799 -10.26721
 Alpha  occ. eigenvalues --  -10.26538 -10.26439 -10.26344 -10.26246 -10.26193
 Alpha  occ. eigenvalues --  -10.26079 -10.25984 -10.25977 -10.25901 -10.25878
 Alpha  occ. eigenvalues --  -10.25805 -10.25603 -10.25421 -10.25303 -10.25218
 Alpha  occ. eigenvalues --  -10.25206 -10.25082 -10.24690 -10.24664 -10.24569
 Alpha  occ. eigenvalues --  -10.24292 -10.24166 -10.24062 -10.23988 -10.23107
 Alpha  occ. eigenvalues --   -3.12694  -1.87396  -1.86939  -1.86875  -1.17619
 Alpha  occ. eigenvalues --   -1.17071  -1.12462  -1.06946  -1.06232  -1.04444
 Alpha  occ. eigenvalues --   -1.03568  -1.02937  -1.01250  -0.91330  -0.91113
 Alpha  occ. eigenvalues --   -0.90823  -0.90212  -0.89693  -0.89543  -0.89217
 Alpha  occ. eigenvalues --   -0.88923  -0.88894  -0.87445  -0.86675  -0.86343
 Alpha  occ. eigenvalues --   -0.84865  -0.84538  -0.83746  -0.83099  -0.82935
 Alpha  occ. eigenvalues --   -0.81306  -0.80665  -0.80424  -0.79367  -0.78071
 Alpha  occ. eigenvalues --   -0.77727  -0.77304  -0.76096  -0.75612  -0.75384
 Alpha  occ. eigenvalues --   -0.74955  -0.74777  -0.74167  -0.73822  -0.72717
 Alpha  occ. eigenvalues --   -0.71374  -0.70779  -0.70210  -0.70022  -0.69212
 Alpha  occ. eigenvalues --   -0.67645  -0.67031  -0.65583  -0.65159  -0.64277
 Alpha  occ. eigenvalues --   -0.63808  -0.62979  -0.62439  -0.62220  -0.62174
 Alpha  occ. eigenvalues --   -0.61338  -0.60863  -0.60193  -0.59537  -0.59161
 Alpha  occ. eigenvalues --   -0.58313  -0.57759  -0.57044  -0.56802  -0.56455
 Alpha  occ. eigenvalues --   -0.56037  -0.55630  -0.54819  -0.54701  -0.54343
 Alpha  occ. eigenvalues --   -0.54107  -0.53889  -0.53721  -0.53514  -0.53254
 Alpha  occ. eigenvalues --   -0.52896  -0.52726  -0.52576  -0.52055  -0.51583
 Alpha  occ. eigenvalues --   -0.51358  -0.51290  -0.51030  -0.50940  -0.50572
 Alpha  occ. eigenvalues --   -0.50412  -0.50260  -0.49910  -0.49827  -0.49624
 Alpha  occ. eigenvalues --   -0.49416  -0.49155  -0.49112  -0.49005  -0.48640
 Alpha  occ. eigenvalues --   -0.48380  -0.47840  -0.47707  -0.47603  -0.47297
 Alpha  occ. eigenvalues --   -0.46719  -0.46515  -0.46212  -0.46170  -0.45792
 Alpha  occ. eigenvalues --   -0.45458  -0.45412  -0.45247  -0.45042  -0.44804
 Alpha  occ. eigenvalues --   -0.44625  -0.44483  -0.44315  -0.44120  -0.43977
 Alpha  occ. eigenvalues --   -0.43702  -0.43638  -0.43600  -0.43470  -0.43146
 Alpha  occ. eigenvalues --   -0.42857  -0.42803  -0.42496  -0.42080  -0.41874
 Alpha  occ. eigenvalues --   -0.41804  -0.41569  -0.41497  -0.41206  -0.41166
 Alpha  occ. eigenvalues --   -0.40370  -0.40323  -0.40110  -0.39958  -0.39893
 Alpha  occ. eigenvalues --   -0.39742  -0.39647  -0.39375  -0.39301  -0.38784
 Alpha  occ. eigenvalues --   -0.38530  -0.38370  -0.38209  -0.38120  -0.37768
 Alpha  occ. eigenvalues --   -0.37680  -0.37129  -0.37091  -0.37040  -0.36575
 Alpha  occ. eigenvalues --   -0.36182  -0.36085  -0.35775  -0.35662  -0.35596
 Alpha  occ. eigenvalues --   -0.35410  -0.35311  -0.34563  -0.33332  -0.32853
 Alpha  occ. eigenvalues --   -0.32772  -0.32486  -0.32054  -0.30467  -0.29692
 Alpha  occ. eigenvalues --   -0.29437  -0.29285  -0.28385  -0.27778  -0.23146
 Alpha  occ. eigenvalues --   -0.21174
 Alpha virt. eigenvalues --   -0.06296  -0.02442   0.02588   0.04224   0.04363
 Alpha virt. eigenvalues --    0.05370   0.06097   0.06789   0.07445   0.07622
 Alpha virt. eigenvalues --    0.08539   0.10042   0.10126   0.11372   0.11470

 Mulliken charges:
               1
     1  Mg   0.809793
     2  C    0.058622
     3  C   -0.223810
     4  C   -0.141249
     5  C   -0.160537
     6  N   -0.647912
     7  C    0.287968
     8  C   -0.146496
     9  C   -0.155916
    10  C    0.372946
    11  C   -0.321821
    12  C   -0.166734
    13  C   -0.257636
    14  C    0.597084
    15  O   -0.512292
    16  O   -0.486313
    17  N   -0.720653
    18  C    0.371077
    19  C   -0.013837
    20  C    0.013868
    21  C    0.280955
    22  C   -0.354804
    23  C   -0.082869
    24  C   -0.218845
    25  N   -0.662370
    26  C    0.261804
    27  C    0.011861
    28  C    0.055533
    29  C    0.256128
    30  C   -0.371151
    31  C   -0.265605
    32  C   -0.300969
    33  N   -0.699497
    34  C    0.259003
    35  C    0.036898
    36  C   -0.000115
    37  C    0.280268
    38  C   -0.363435
    39  C    0.355503
    40  O   -0.434091
    41  C   -0.319257
    42  C    0.613060
    43  O   -0.507211
    44  O   -0.438145
    45  C   -0.069605
    46  C    0.021775
    47  C   -0.133325
    48  C    0.135595
    49  C   -0.341889
    50  C   -0.219897
    51  C   -0.200200
    52  C   -0.172844
    53  C   -0.057573
    54  C   -0.300324
    55  C   -0.149509
    56  C   -0.182269
    57  C   -0.184591
    58  C   -0.037973
    59  C   -0.313630
    60  C   -0.179613
    61  C   -0.188978
    62  C   -0.153262
    63  C   -0.075929
    64  C   -0.297045
    65  C   -0.305147
    66  H    0.067190
    67  H    0.092827
    68  H    0.081816
    69  H    0.140221
    70  H    0.084879
    71  H    0.097434
    72  H    0.109872
    73  H    0.141232
    74  H    0.133420
    75  H    0.126473
    76  H    0.140788
    77  H    0.126767
    78  H    0.111400
    79  H    0.112512
    80  H    0.130765
    81  H    0.096197
    82  H    0.098759
    83  H    0.100025
    84  H    0.127647
    85  H    0.109981
    86  H    0.114029
    87  H    0.095136
    88  H    0.107994
    89  H    0.100713
    90  H    0.096004
    91  H    0.122525
    92  H    0.122122
    93  H    0.133672
    94  H    0.125551
    95  H    0.154974
    96  H    0.142943
    97  H    0.119723
    98  H    0.114651
    99  H    0.133879
   100  H    0.129349
   101  H    0.099674
   102  H    0.074743
   103  H    0.131349
   104  H    0.089249
   105  H    0.112864
   106  H    0.106115
   107  H    0.097576
   108  H    0.079901
   109  H    0.096823
   110  H    0.099225
   111  H    0.058375
   112  H    0.094255
   113  H    0.111325
   114  H    0.097236
   115  H    0.063141
   116  H    0.081940
   117  H    0.097599
   118  H    0.104077
   119  H    0.070718
   120  H    0.082478
   121  H    0.081885
   122  H    0.108996
   123  H    0.088486
   124  H    0.085990
   125  H    0.085190
   126  H    0.091920
   127  H    0.101738
   128  H    0.093580
   129  H    0.089018
   130  H    0.055129
   131  H    0.082710
   132  H    0.107023
   133  H    0.095911
   134  H    0.116088
   135  H    0.100218
   136  H    0.101782
   137  H    0.079634
 Sum of Mulliken charges =   0.00000

 Dipole moment (field-independent basis, Debye):
    X=              1.6291    Y=              4.7913    Z=              0.2025  Tot=              5.0647
 Quadrupole moment (field-independent basis, Debye-Ang):
   XX=           -319.8095   YY=           -389.1186   ZZ=           -399.8763
   XY=            -28.8375   XZ=             17.5676   YZ=             -3.9976

 Normal termination of Gaussian 09 at Sun Jun 30 06:19:50 2019.
