 Gaussian 09, Revision D.01,
 Gaussian 09:  ES64L-G09RevD.01 24-Apr-2013

 -------------------------------------
 # td=(NStates=1) CAM-B3LYP/6-31G(d,p)
 -------------------------------------

 --
 TD
 --
 Symbolic Z-matrix:
 Charge =  0 Multiplicity = 1

                         Standard orientation:
 ---------------------------------------------------------------------
 Center     Atomic      Atomic             Coordinates (Angstroms)
 Number     Number       Type             X           Y           Z
 ---------------------------------------------------------------------
      1         12           0       -7.125389    0.563311    0.030955
      2          6           0       -4.818619   -1.917694    0.545170
      3          6           0       -4.800898    2.748872    1.134579
      4          6           0       -9.293342    3.035580   -0.359746
      5          6           0       -9.499030   -1.731678   -0.978021
      6          7           0       -5.065979    0.417515    0.698451
      7          6           0       -4.381018   -0.619279    0.762102
      8          6           0       -2.953404   -0.334194    1.232348
      9          6           0       -3.028434    1.064379    1.743036
     10          6           0       -4.311934    1.563862    1.090127
     11          6           0       -2.965677    1.305158    3.238245
     12          6           0       -1.953059   -0.649910    0.084633
     13          6           0       -0.495618   -0.372093    0.583447
     14          6           0        0.533576   -0.521741   -0.576949
     15          8           0        0.202665   -0.861695   -1.658211
     16          8           0        1.781004   -0.353571   -0.172775
     17          7           0       -7.106588    2.609910    0.416440
     18          6           0       -6.134564    3.343623    0.829486
     19          6           0       -6.498744    4.696206    0.932906
     20          6           0       -7.742100    4.825012    0.424657
     21          6           0       -8.089987    3.425358    0.073770
     22          6           0       -5.594842    5.836850    1.479534
     23          6           0       -8.609511    5.971067    0.226572
     24          6           0       -8.133243    7.243070    0.209088
     25          7           0       -9.069568    0.605030   -0.597738
     26          6           0       -9.806467    1.792350   -0.624342
     27          6           0      -11.144986    1.448840   -0.997846
     28          6           0      -11.144115    0.061561   -1.231777
     29          6           0       -9.890532   -0.416138   -0.936101
     30          6           0      -12.304373    2.451132   -1.213404
     31          6           0      -12.332484   -0.833428   -1.778853
     32          6           0      -12.336389   -1.013524   -3.252713
     33          7           0       -7.201105   -1.411104   -0.313688
     34          6           0       -8.199335   -2.255645   -0.706881
     35          6           0       -7.752224   -3.684602   -0.614157
     36          6           0       -6.499343   -3.496729   -0.286405
     37          6           0       -6.162567   -2.112365   -0.019695
     38          6           0       -8.671820   -4.899470   -0.814264
     39          6           0       -5.314654   -4.345043    0.191693
     40          8           0       -5.151481   -5.539811    0.255619
     41          6           0       -4.170762   -3.279307    0.676511
     42          6           0       -3.572289   -3.719940    1.962910
     43          8           0       -3.792147   -3.103501    3.056501
     44          8           0       -2.783352   -4.743065    1.854539
     45          6           0       -2.239647   -5.253524    2.962619
     46          6           0        2.767324   -0.486731   -1.307468
     47          6           0        4.105096   -0.186087   -0.616078
     48          6           0        5.216256    0.452258   -0.969411
     49          6           0        5.085363    1.306113   -2.254103
     50          6           0        6.440187    0.421362   -0.129618
     51          6           0        7.549494   -0.152352   -0.932457
     52          6           0        8.826168   -0.250986   -0.093912
     53          6           0       10.080623   -0.613236   -0.823734
     54          6           0       10.011677   -2.086747   -1.326317
     55          6           0       11.440151   -0.313868   -0.055827
     56          6           0       12.700789   -0.586351   -0.767812
     57          6           0       13.976449   -0.276236    0.132141
     58          6           0       15.337734   -0.223050   -0.653738
     59          6           0       15.772238   -1.703025   -0.895009
     60          6           0       16.383719    0.316784    0.307838
     61          6           0       17.824285    0.469112   -0.270302
     62          6           0       18.759280    1.150845    0.798541
     63          6           0       20.184315    1.432142    0.300709
     64          6           0       20.310004    2.295073   -0.988230
     65          6           0       21.044089    1.960979    1.373417
     66          1           0       -4.071382    3.562088    1.342440
     67          1           0       -9.995428    3.823833   -0.606565
     68          1           0      -10.314452   -2.393104   -1.331668
     69          1           0       -2.566871   -1.030970    2.036521
     70          1           0       -2.229255    1.724611    1.373374
     71          1           0       -1.971762    1.026015    3.764547
     72          1           0       -3.249919    2.488332    3.404588
     73          1           0       -3.654265    0.654311    3.738336
     74          1           0       -1.945639   -1.723460   -0.244179
     75          1           0       -2.430040    0.043347   -0.696031
     76          1           0       -0.259498    0.559444    0.942779
     77          1           0        0.019906   -1.154362    1.271176
     78          1           0       -4.975022    6.236380    0.769642
     79          1           0       -6.154449    6.630408    1.846154
     80          1           0       -4.996355    5.443248    2.232615
     81          1           0       -9.690367    5.783299    0.009104
     82          1           0       -8.844769    7.973147   -0.004615
     83          1           0       -6.984974    7.604778    0.239983
     84          1           0      -11.987982    3.156236   -1.997415
     85          1           0      -13.187157    1.865763   -1.411292
     86          1           0      -12.458500    3.064090   -0.400192
     87          1           0      -12.140397   -1.817271   -1.158163
     88          1           0      -13.227237   -0.378014   -1.440685
     89          1           0      -13.102951   -1.737520   -3.751082
     90          1           0      -12.509876   -0.034619   -3.719308
     91          1           0      -11.399126   -1.510030   -3.601876
     92          1           0       -9.018706   -4.894126   -1.861244
     93          1           0       -7.999693   -5.939846   -0.859957
     94          1           0       -9.539845   -4.955923   -0.043636
     95          1           0       -3.307600   -3.239810   -0.171220
     96          1           0       -1.679922   -4.610174    3.535741
     97          1           0       -2.985107   -5.445939    3.803861
     98          1           0       -1.591217   -6.100395    2.642209
     99          1           0        2.548075   -1.574685   -1.700279
    100          1           0        2.519964    0.323250   -2.054467
    101          1           0        4.172075   -0.745688    0.393523
    102          1           0        4.080031    1.385252   -2.685527
    103          1           0        5.455173    2.313370   -2.088426
    104          1           0        5.887541    0.939198   -3.026268
    105          1           0        6.500926    1.546378    0.132504
    106          1           0        6.316804   -0.103436    0.689588
    107          1           0        7.445167   -1.312101   -1.415184
    108          1           0        7.725293    0.132147   -2.124677
    109          1           0        9.049325    0.771747    0.479735
    110          1           0        8.769213   -0.979771    0.653240
    111          1           0       10.190440    0.060511   -1.720277
    112          1           0        9.114242   -2.281618   -1.928753
    113          1           0       10.866051   -2.184741   -2.011544
    114          1           0       10.074664   -2.715591   -0.395404
    115          1           0       11.444845    0.689714    0.182401
    116          1           0       11.646269   -0.868211    0.750027
    117          1           0       12.788789   -1.740845   -1.018468
    118          1           0       13.002054    0.113942   -1.698519
    119          1           0       13.857797    0.788929    0.701271
    120          1           0       14.000346   -1.177652    0.946356
    121          1           0       15.236565    0.271773   -1.663273
    122          1           0       16.080470   -2.089958    0.137604
    123          1           0       15.028653   -2.351379   -1.574673
    124          1           0       16.707982   -1.394559   -1.537650
    125          1           0       16.123390    1.269033    0.968180
    126          1           0       16.444500   -0.276655    1.285978
    127          1           0       18.206051   -0.582263   -0.607789
    128          1           0       17.600643    1.130579   -0.986572
    129          1           0       18.494062    2.203999    1.195204
    130          1           0       18.789521    0.517980    1.849419
    131          1           0       20.744264    0.461999    0.032893
    132          1           0       19.563801    3.300972   -0.969640
    133          1           0       21.396169    2.469573   -1.089147
    134          1           0       20.123730    1.526517   -1.817859
    135          1           0       21.201557    1.241329    2.202851
    136          1           0       21.956032    2.063541    0.835676
    137          1           0       20.834377    2.991922    1.617427
 ---------------------------------------------------------------------

 SCF Done:  E(RCAM-B3LYP) =  -2932.69817438     A.U. after   15 cycles

 Excitation energies and oscillator strengths:

 Excited State   1:      Singlet-A      2.1786 eV  569.11 nm  f=0.3224  <S**2>=0.000
     240 -> 243        0.22003
     241 -> 242        0.66120
 This state for optimization and/or second-order correction.
 Total Energy, E(TD-HF/TD-KS) =  -2932.61811411
 Copying the excited state density for this state as the 1-particle RhoCI density.

 The electronic state is 1-A.
 Alpha  occ. eigenvalues --  -46.84626 -19.27732 -19.25815 -19.21741 -19.19699
 Alpha  occ. eigenvalues --  -19.19649 -14.40375 -14.39438 -14.39255 -14.37931
 Alpha  occ. eigenvalues --  -10.39202 -10.37631 -10.36314 -10.33709 -10.30494
 Alpha  occ. eigenvalues --  -10.29711 -10.29576 -10.29389 -10.29380 -10.29272
 Alpha  occ. eigenvalues --  -10.29237 -10.28896 -10.28749 -10.28637 -10.27990
 Alpha  occ. eigenvalues --  -10.27668 -10.27617 -10.27498 -10.27289 -10.27287
 Alpha  occ. eigenvalues --  -10.27222 -10.27004 -10.26976 -10.26945 -10.26927
 Alpha  occ. eigenvalues --  -10.26892 -10.26823 -10.26738 -10.26732 -10.26731
 Alpha  occ. eigenvalues --  -10.26726 -10.26637 -10.26629 -10.26614 -10.26423
 Alpha  occ. eigenvalues --  -10.26334 -10.26151 -10.26117 -10.26106 -10.26071
 Alpha  occ. eigenvalues --  -10.25961 -10.25953 -10.25852 -10.25775 -10.25667
 Alpha  occ. eigenvalues --  -10.25612 -10.25498 -10.25483 -10.25304 -10.25292
 Alpha  occ. eigenvalues --  -10.25001 -10.24904 -10.24134 -10.23446 -10.23301
 Alpha  occ. eigenvalues --   -3.13614  -1.88333  -1.87877  -1.87753  -1.21755
 Alpha  occ. eigenvalues --   -1.18436  -1.12267  -1.09365  -1.06983  -1.06629
 Alpha  occ. eigenvalues --   -1.06097  -1.05106  -1.02204  -0.92056  -0.91288
 Alpha  occ. eigenvalues --   -0.90446  -0.89800  -0.89650  -0.89575  -0.89209
 Alpha  occ. eigenvalues --   -0.88494  -0.88165  -0.87545  -0.86907  -0.86021
 Alpha  occ. eigenvalues --   -0.85569  -0.84484  -0.83805  -0.83039  -0.82768
 Alpha  occ. eigenvalues --   -0.82254  -0.81391  -0.80342  -0.79410  -0.78398
 Alpha  occ. eigenvalues --   -0.77535  -0.77520  -0.76495  -0.76188  -0.75749
 Alpha  occ. eigenvalues --   -0.75097  -0.74305  -0.73355  -0.73206  -0.72806
 Alpha  occ. eigenvalues --   -0.71289  -0.70086  -0.68907  -0.68687  -0.68160
 Alpha  occ. eigenvalues --   -0.67714  -0.66845  -0.65986  -0.64956  -0.63992
 Alpha  occ. eigenvalues --   -0.63809  -0.63347  -0.62473  -0.62025  -0.61899
 Alpha  occ. eigenvalues --   -0.60882  -0.60556  -0.60262  -0.59675  -0.59253
 Alpha  occ. eigenvalues --   -0.58855  -0.58017  -0.57754  -0.57141  -0.56890
 Alpha  occ. eigenvalues --   -0.56519  -0.55268  -0.54897  -0.54828  -0.54658
 Alpha  occ. eigenvalues --   -0.54542  -0.54448  -0.53739  -0.53702  -0.52994
 Alpha  occ. eigenvalues --   -0.52687  -0.52246  -0.52162  -0.51932  -0.51715
 Alpha  occ. eigenvalues --   -0.51547  -0.51066  -0.50830  -0.50527  -0.50301
 Alpha  occ. eigenvalues --   -0.50047  -0.49941  -0.49796  -0.49396  -0.49160
 Alpha  occ. eigenvalues --   -0.49023  -0.48710  -0.48637  -0.48593  -0.48288
 Alpha  occ. eigenvalues --   -0.48239  -0.48099  -0.48002  -0.47767  -0.47402
 Alpha  occ. eigenvalues --   -0.47256  -0.47085  -0.46844  -0.46717  -0.46529
 Alpha  occ. eigenvalues --   -0.45929  -0.45726  -0.45599  -0.45491  -0.45276
 Alpha  occ. eigenvalues --   -0.45032  -0.44788  -0.44507  -0.44469  -0.44067
 Alpha  occ. eigenvalues --   -0.43955  -0.43915  -0.43809  -0.43380  -0.43169
 Alpha  occ. eigenvalues --   -0.42991  -0.42826  -0.42419  -0.42068  -0.41868
 Alpha  occ. eigenvalues --   -0.41750  -0.41710  -0.41685  -0.41651  -0.41526
 Alpha  occ. eigenvalues --   -0.41346  -0.41217  -0.40906  -0.40570  -0.40155
 Alpha  occ. eigenvalues --   -0.40120  -0.39856  -0.39718  -0.39414  -0.38900
 Alpha  occ. eigenvalues --   -0.38744  -0.38128  -0.38113  -0.37575  -0.37392
 Alpha  occ. eigenvalues --   -0.37305  -0.37088  -0.36888  -0.36649  -0.36309
 Alpha  occ. eigenvalues --   -0.36225  -0.36169  -0.36019  -0.35641  -0.35102
 Alpha  occ. eigenvalues --   -0.34856  -0.34512  -0.34309  -0.33146  -0.33101
 Alpha  occ. eigenvalues --   -0.32702  -0.32342  -0.32045  -0.31596  -0.30972
 Alpha  occ. eigenvalues --   -0.29862  -0.29653  -0.27844  -0.27241  -0.23230
 Alpha  occ. eigenvalues --   -0.20895
 Alpha virt. eigenvalues --   -0.05799  -0.02316   0.02888   0.03982   0.05499
 Alpha virt. eigenvalues --    0.06002   0.06547   0.06568   0.07758   0.08978
 Alpha virt. eigenvalues --    0.09483   0.11089   0.11357   0.11374   0.11791

 Mulliken charges:
               1
     1  Mg   0.812394
     2  C    0.062757
     3  C   -0.229455
     4  C   -0.167476
     5  C   -0.196701
     6  N   -0.662354
     7  C    0.397804
     8  C   -0.187631
     9  C   -0.116099
    10  C    0.331073
    11  C   -0.289410
    12  C   -0.153123
    13  C   -0.267084
    14  C    0.578351
    15  O   -0.464136
    16  O   -0.482336
    17  N   -0.674083
    18  C    0.308748
    19  C   -0.035814
    20  C    0.056386
    21  C    0.284423
    22  C   -0.364190
    23  C   -0.085068
    24  C   -0.240608
    25  N   -0.731675
    26  C    0.289499
    27  C   -0.010192
    28  C   -0.026043
    29  C    0.361887
    30  C   -0.361947
    31  C   -0.218720
    32  C   -0.292825
    33  N   -0.733219
    34  C    0.223581
    35  C    0.072194
    36  C   -0.059144
    37  C    0.352006
    38  C   -0.374596
    39  C    0.395318
    40  O   -0.436565
    41  C   -0.335253
    42  C    0.622141
    43  O   -0.521421
    44  O   -0.369155
    45  C   -0.097897
    46  C    0.011834
    47  C   -0.144143
    48  C    0.119112
    49  C   -0.362623
    50  C   -0.188061
    51  C   -0.173930
    52  C   -0.151263
    53  C   -0.079510
    54  C   -0.312896
    55  C   -0.150122
    56  C   -0.184310
    57  C   -0.156711
    58  C   -0.070470
    59  C   -0.287471
    60  C   -0.188738
    61  C   -0.170830
    62  C   -0.156842
    63  C   -0.062129
    64  C   -0.298225
    65  C   -0.299320
    66  H    0.073541
    67  H    0.078546
    68  H    0.086610
    69  H    0.116562
    70  H    0.100346
    71  H    0.100305
    72  H    0.084906
    73  H    0.132754
    74  H    0.115745
    75  H    0.110271
    76  H    0.137027
    77  H    0.127251
    78  H    0.127831
    79  H    0.124574
    80  H    0.114742
    81  H    0.100951
    82  H    0.100696
    83  H    0.105582
    84  H    0.120603
    85  H    0.113073
    86  H    0.127055
    87  H    0.086811
    88  H    0.106103
    89  H    0.089912
    90  H    0.112708
    91  H    0.107260
    92  H    0.135956
    93  H    0.126355
    94  H    0.135027
    95  H    0.141690
    96  H    0.126718
    97  H    0.118968
    98  H    0.117647
    99  H    0.141869
   100  H    0.125594
   101  H    0.074402
   102  H    0.114953
   103  H    0.116450
   104  H    0.101789
   105  H    0.107031
   106  H    0.119276
   107  H    0.072454
   108  H    0.082879
   109  H    0.067003
   110  H    0.102887
   111  H    0.076121
   112  H    0.099238
   113  H    0.109553
   114  H    0.098177
   115  H    0.098853
   116  H    0.097428
   117  H    0.083591
   118  H    0.064640
   119  H    0.064673
   120  H    0.067054
   121  H    0.090004
   122  H    0.107614
   123  H    0.092807
   124  H    0.087249
   125  H    0.073771
   126  H    0.084071
   127  H    0.099644
   128  H    0.119148
   129  H    0.081716
   130  H    0.063345
   131  H    0.069179
   132  H    0.082338
   133  H    0.103849
   134  H    0.103879
   135  H    0.100677
   136  H    0.095669
   137  H    0.097302
 Sum of Mulliken charges =   0.00000

 Dipole moment (field-independent basis, Debye):
    X=              2.7114    Y=              3.7218    Z=             -0.6372  Tot=              4.6486
 Quadrupole moment (field-independent basis, Debye-Ang):
   XX=           -339.6692   YY=           -387.3067   ZZ=           -402.2964
   XY=            -17.5896   XZ=             11.8059   YZ=             -1.4278

 Normal termination of Gaussian 09 at Sat Jun 29 07:21:51 2019.
