 Gaussian 09, Revision D.01,
 Gaussian 09:  ES64L-G09RevD.01 24-Apr-2013

 -------------------------------------
 # td=(NStates=1) CAM-B3LYP/6-31G(d,p)
 -------------------------------------

 --
 TD
 --
 Symbolic Z-matrix:
 Charge =  0 Multiplicity = 1

                         Standard orientation:
 ---------------------------------------------------------------------
 Center     Atomic      Atomic             Coordinates (Angstroms)
 Number     Number       Type             X           Y           Z
 ---------------------------------------------------------------------
      1         12           0       -7.165871    0.571297    0.140688
      2          6           0       -4.791726   -2.007983    0.503740
      3          6           0       -4.752268    2.795640    1.111073
      4          6           0       -9.411309    3.179558   -0.273863
      5          6           0       -9.608202   -1.692785   -0.705059
      6          7           0       -5.131213    0.471308    0.710559
      7          6           0       -4.380453   -0.707621    0.773379
      8          6           0       -2.930742   -0.452067    1.187731
      9          6           0       -3.001401    1.065421    1.647439
     10          6           0       -4.342226    1.519170    1.106706
     11          6           0       -2.861302    1.304846    3.129441
     12          6           0       -1.980352   -0.600817    0.116232
     13          6           0       -0.480843   -0.594049    0.520335
     14          6           0        0.429428   -0.761236   -0.629499
     15          8           0        0.266421   -0.938127   -1.758418
     16          8           0        1.765520   -0.493130   -0.257518
     17          7           0       -7.074665    2.609847    0.421462
     18          6           0       -6.070956    3.289301    0.812915
     19          6           0       -6.312407    4.792503    0.773779
     20          6           0       -7.664675    4.901936    0.373145
     21          6           0       -8.099491    3.499676    0.123592
     22          6           0       -5.454691    5.760479    1.316307
     23          6           0       -8.606196    5.966679    0.297093
     24          6           0       -8.298142    7.255428    0.024117
     25          7           0       -9.163352    0.707818   -0.380537
     26          6           0       -9.890709    1.833125   -0.594072
     27          6           0      -11.128589    1.457665   -1.008961
     28          6           0      -11.324602    0.075053   -1.136330
     29          6           0       -9.967546   -0.401210   -0.646696
     30          6           0      -12.252545    2.467338   -1.293926
     31          6           0      -12.482615   -0.737249   -1.711864
     32          6           0      -12.342860   -1.135537   -3.068166
     33          7           0       -7.283652   -1.341635   -0.083417
     34          6           0       -8.338595   -2.194103   -0.456822
     35          6           0       -7.878831   -3.558306   -0.534063
     36          6           0       -6.504539   -3.476039   -0.299065
     37          6           0       -6.176210   -2.195454    0.113735
     38          6           0       -8.588258   -4.836148   -0.811164
     39          6           0       -5.410615   -4.278569    0.132417
     40          8           0       -5.205171   -5.531983    0.140346
     41          6           0       -4.159507   -3.324195    0.587242
     42          6           0       -3.530377   -3.666095    1.814895
     43          8           0       -3.778850   -3.264855    2.914132
     44          8           0       -2.598667   -4.705507    1.710269
     45          6           0       -1.991016   -5.200861    2.925735
     46          6           0        2.797981   -0.792662   -1.341576
     47          6           0        4.130725   -0.577044   -0.620486
     48          6           0        5.090002    0.220497   -1.104705
     49          6           0        5.154344    1.160015   -2.321059
     50          6           0        6.381772    0.305407   -0.271482
     51          6           0        7.612643   -0.127166   -1.094161
     52          6           0        8.823108   -0.224825   -0.194196
     53          6           0       10.212591   -0.440257   -0.945688
     54          6           0       10.311197   -1.904588   -1.441449
     55          6           0       11.416770   -0.138327   -0.136439
     56          6           0       12.754368   -0.360128   -0.771491
     57          6           0       13.917513   -0.106271    0.153142
     58          6           0       15.385031   -0.140387   -0.491449
     59          6           0       15.718410   -1.559964   -1.014546
     60          6           0       16.347965    0.415155    0.503085
     61          6           0       17.792095    0.445893   -0.077028
     62          6           0       18.769266    1.143253    0.966993
     63          6           0       20.155168    1.266855    0.369645
     64          6           0       20.205731    2.203859   -0.854766
     65          6           0       21.151618    1.873226    1.403357
     66          1           0       -3.887516    3.566098    1.401769
     67          1           0      -10.107955    3.892065   -0.510051
     68          1           0      -10.390441   -2.429376   -1.239897
     69          1           0       -2.663189   -1.058105    1.948447
     70          1           0       -2.058952    1.721763    1.140846
     71          1           0       -2.055945    1.009775    3.512499
     72          1           0       -3.126354    2.385854    3.257380
     73          1           0       -3.890950    0.786405    3.668833
     74          1           0       -2.151727   -1.493957   -0.426445
     75          1           0       -2.204256    0.248517   -0.739071
     76          1           0       -0.301948    0.483479    0.894901
     77          1           0       -0.393933   -1.184834    1.360737
     78          1           0       -4.597983    6.151831    0.560816
     79          1           0       -6.007776    6.689355    1.472768
     80          1           0       -4.961927    5.593792    2.192518
     81          1           0       -9.667264    5.875716    0.473214
     82          1           0       -8.992772    8.102277    0.053885
     83          1           0       -7.382934    7.656215   -0.192164
     84          1           0      -11.797101    3.275248   -2.015344
     85          1           0      -13.120795    1.951169   -1.809396
     86          1           0      -12.897144    3.058663   -0.441059
     87          1           0      -12.396396   -1.570965   -0.985582
     88          1           0      -13.356087   -0.026356   -1.392013
     89          1           0      -13.163002   -1.711509   -3.210690
     90          1           0      -12.349845   -0.413842   -3.809686
     91          1           0      -11.433456   -1.694357   -3.250259
     92          1           0       -8.990009   -4.918484   -1.819189
     93          1           0       -8.018920   -5.772778   -0.769000
     94          1           0       -9.382484   -5.214646   -0.045910
     95          1           0       -3.435811   -3.508027   -0.230147
     96          1           0       -1.165619   -4.362212    2.983268
     97          1           0       -2.744477   -5.120437    3.897862
     98          1           0       -1.541796   -6.178495    2.750883
     99          1           0        2.776601   -1.836365   -1.413862
    100          1           0        2.693008   -0.250740   -2.379835
    101          1           0        4.168110   -1.162621    0.329231
    102          1           0        4.206392    1.306521   -2.755076
    103          1           0        5.533463    2.135049   -1.941864
    104          1           0        6.048418    1.032491   -3.008348
    105          1           0        6.423994    1.333970    0.120322
    106          1           0        6.365411   -0.411204    0.553052
    107          1           0        7.440109   -1.149026   -1.444567
    108          1           0        7.670088    0.572185   -1.787823
    109          1           0        8.974344    0.774408    0.481451
    110          1           0        8.576444   -0.899932    0.557823
    111          1           0       10.135860    0.217633   -2.059077
    112          1           0        9.363517   -2.303621   -2.091597
    113          1           0       11.112142   -2.052689   -2.038186
    114          1           0       10.517132   -2.582772   -0.463970
    115          1           0       11.305076    1.055870    0.181469
    116          1           0       11.527640   -0.807238    0.758149
    117          1           0       12.961988   -1.343497   -1.132898
    118          1           0       12.718198    0.129001   -1.807427
    119          1           0       13.958130    1.033074    0.490740
    120          1           0       14.075139   -0.808985    0.942206
    121          1           0       15.288280    0.543741   -1.414228
    122          1           0       15.563434   -2.218587   -0.108211
    123          1           0       15.115168   -1.884832   -1.816062
    124          1           0       16.872215   -1.451233   -1.405596
    125          1           0       16.262176    1.506273    0.885183
    126          1           0       16.432025   -0.079100    1.435454
    127          1           0       18.188061   -0.530067   -0.239176
    128          1           0       17.869256    1.019803   -1.075647
    129          1           0       18.427254    2.276558    1.398814
    130          1           0       18.587764    0.318473    1.908377
    131          1           0       20.488521    0.411478    0.057691
    132          1           0       19.787956    3.343987   -0.630292
    133          1           0       21.065322    2.198544   -1.241403
    134          1           0       19.419418    1.823984   -1.625385
    135          1           0       21.292320    1.519374    2.519269
    136          1           0       22.178137    1.961680    0.850907
    137          1           0       20.957262    2.914218    1.747263
 ---------------------------------------------------------------------

 SCF Done:  E(RCAM-B3LYP) =  -2932.61942193     A.U. after   17 cycles

 Excitation energies and oscillator strengths:

 Excited State   1:      Singlet-A      2.1635 eV  573.08 nm  f=0.2814  <S**2>=0.000
     240 -> 242       -0.18606
     240 -> 243        0.20664
     241 -> 242        0.63068
     241 -> 243        0.12274
 This state for optimization and/or second-order correction.
 Total Energy, E(TD-HF/TD-KS) =  -2932.53991567
 Copying the excited state density for this state as the 1-particle RhoCI density.

 The electronic state is 1-A.
 Alpha  occ. eigenvalues --  -46.83859 -19.23880 -19.22907 -19.20895 -19.20031
 Alpha  occ. eigenvalues --  -19.19276 -14.41673 -14.41009 -14.39608 -14.39588
 Alpha  occ. eigenvalues --  -10.38263 -10.38120 -10.35191 -10.31968 -10.31589
 Alpha  occ. eigenvalues --  -10.31143 -10.31059 -10.30911 -10.30886 -10.29287
 Alpha  occ. eigenvalues --  -10.29281 -10.29137 -10.28995 -10.28887 -10.28802
 Alpha  occ. eigenvalues --  -10.28693 -10.28586 -10.28407 -10.28087 -10.28045
 Alpha  occ. eigenvalues --  -10.28044 -10.27975 -10.27970 -10.27961 -10.27871
 Alpha  occ. eigenvalues --  -10.27744 -10.27189 -10.26940 -10.26783 -10.26718
 Alpha  occ. eigenvalues --  -10.26452 -10.26403 -10.26362 -10.26312 -10.26275
 Alpha  occ. eigenvalues --  -10.26230 -10.26221 -10.26056 -10.26011 -10.25858
 Alpha  occ. eigenvalues --  -10.25801 -10.25726 -10.25606 -10.25561 -10.25505
 Alpha  occ. eigenvalues --  -10.25460 -10.25357 -10.25279 -10.25055 -10.24988
 Alpha  occ. eigenvalues --  -10.24939 -10.24898 -10.24784 -10.23961 -10.23837
 Alpha  occ. eigenvalues --   -3.13102  -1.87792  -1.87352  -1.87290  -1.17919
 Alpha  occ. eigenvalues --   -1.16475  -1.07528  -1.07304  -1.06563  -1.06236
 Alpha  occ. eigenvalues --   -1.03472  -1.03171  -1.01961  -0.93245  -0.91244
 Alpha  occ. eigenvalues --   -0.90913  -0.90849  -0.90233  -0.90081  -0.89347
 Alpha  occ. eigenvalues --   -0.88827  -0.88224  -0.88056  -0.86885  -0.86376
 Alpha  occ. eigenvalues --   -0.85578  -0.84962  -0.84437  -0.84105  -0.82742
 Alpha  occ. eigenvalues --   -0.82171  -0.81075  -0.80307  -0.79564  -0.78906
 Alpha  occ. eigenvalues --   -0.78677  -0.76940  -0.75607  -0.75415  -0.75010
 Alpha  occ. eigenvalues --   -0.74665  -0.74599  -0.73801  -0.73266  -0.72307
 Alpha  occ. eigenvalues --   -0.71946  -0.70865  -0.70211  -0.69463  -0.68780
 Alpha  occ. eigenvalues --   -0.67979  -0.66338  -0.65595  -0.65021  -0.64970
 Alpha  occ. eigenvalues --   -0.63993  -0.63314  -0.62096  -0.61982  -0.61721
 Alpha  occ. eigenvalues --   -0.61301  -0.60907  -0.60409  -0.59700  -0.58952
 Alpha  occ. eigenvalues --   -0.58762  -0.58528  -0.57546  -0.57058  -0.56809
 Alpha  occ. eigenvalues --   -0.56110  -0.55785  -0.55484  -0.55068  -0.54333
 Alpha  occ. eigenvalues --   -0.54196  -0.54059  -0.53795  -0.53337  -0.53142
 Alpha  occ. eigenvalues --   -0.52966  -0.52647  -0.52490  -0.52438  -0.51816
 Alpha  occ. eigenvalues --   -0.51666  -0.51645  -0.51477  -0.50765  -0.50632
 Alpha  occ. eigenvalues --   -0.50435  -0.50294  -0.50180  -0.49874  -0.49665
 Alpha  occ. eigenvalues --   -0.49397  -0.49122  -0.48934  -0.48874  -0.48535
 Alpha  occ. eigenvalues --   -0.48108  -0.47945  -0.47663  -0.47542  -0.47329
 Alpha  occ. eigenvalues --   -0.47278  -0.47152  -0.46471  -0.46256  -0.46119
 Alpha  occ. eigenvalues --   -0.46004  -0.45712  -0.45547  -0.45353  -0.45106
 Alpha  occ. eigenvalues --   -0.44509  -0.44487  -0.44373  -0.44175  -0.44095
 Alpha  occ. eigenvalues --   -0.43931  -0.43831  -0.43595  -0.43301  -0.43003
 Alpha  occ. eigenvalues --   -0.42738  -0.42731  -0.42398  -0.42285  -0.42275
 Alpha  occ. eigenvalues --   -0.42223  -0.41867  -0.41751  -0.41522  -0.41386
 Alpha  occ. eigenvalues --   -0.40952  -0.40904  -0.40654  -0.39965  -0.39904
 Alpha  occ. eigenvalues --   -0.39554  -0.39534  -0.39491  -0.39058  -0.38930
 Alpha  occ. eigenvalues --   -0.38707  -0.38579  -0.38530  -0.38363  -0.37748
 Alpha  occ. eigenvalues --   -0.37419  -0.37301  -0.37053  -0.36525  -0.36454
 Alpha  occ. eigenvalues --   -0.36221  -0.36014  -0.35677  -0.35334  -0.34961
 Alpha  occ. eigenvalues --   -0.34648  -0.34583  -0.33751  -0.33648  -0.33071
 Alpha  occ. eigenvalues --   -0.32875  -0.32621  -0.32374  -0.31540  -0.29617
 Alpha  occ. eigenvalues --   -0.29243  -0.29133  -0.28344  -0.27929  -0.23928
 Alpha  occ. eigenvalues --   -0.22040
 Alpha virt. eigenvalues --   -0.07054  -0.03448   0.01431   0.03185   0.05503
 Alpha virt. eigenvalues --    0.05799   0.06283   0.06649   0.07194   0.07306
 Alpha virt. eigenvalues --    0.07916   0.10015   0.10689   0.11225   0.11991

 Mulliken charges:
               1
     1  Mg   0.818190
     2  C    0.087656
     3  C   -0.238330
     4  C   -0.138622
     5  C   -0.163822
     6  N   -0.662228
     7  C    0.291808
     8  C   -0.142032
     9  C   -0.156721
    10  C    0.396740
    11  C   -0.266785
    12  C   -0.166371
    13  C   -0.274039
    14  C    0.607833
    15  O   -0.421186
    16  O   -0.539259
    17  N   -0.669291
    18  C    0.339145
    19  C    0.042800
    20  C    0.051658
    21  C    0.273506
    22  C   -0.406572
    23  C   -0.104590
    24  C   -0.242561
    25  N   -0.702316
    26  C    0.330492
    27  C   -0.017005
    28  C    0.015020
    29  C    0.276420
    30  C   -0.372170
    31  C   -0.222704
    32  C   -0.296001
    33  N   -0.758158
    34  C    0.274163
    35  C    0.055892
    36  C   -0.008835
    37  C    0.280101
    38  C   -0.410006
    39  C    0.365213
    40  O   -0.497858
    41  C   -0.316521
    42  C    0.634347
    43  O   -0.470689
    44  O   -0.492987
    45  C   -0.067127
    46  C    0.021580
    47  C   -0.152263
    48  C    0.134628
    49  C   -0.370410
    50  C   -0.241384
    51  C   -0.159726
    52  C   -0.167649
    53  C   -0.034987
    54  C   -0.295517
    55  C   -0.144744
    56  C   -0.184676
    57  C   -0.169768
    58  C   -0.077819
    59  C   -0.298371
    60  C   -0.161451
    61  C   -0.197759
    62  C   -0.145672
    63  C   -0.038207
    64  C   -0.285829
    65  C   -0.310812
    66  H    0.086250
    67  H    0.090479
    68  H    0.105094
    69  H    0.119129
    70  H    0.075066
    71  H    0.119386
    72  H    0.105377
    73  H    0.086521
    74  H    0.120096
    75  H    0.089439
    76  H    0.138320
    77  H    0.146519
    78  H    0.101813
    79  H    0.122207
    80  H    0.139356
    81  H    0.112989
    82  H    0.101906
    83  H    0.106785
    84  H    0.101318
    85  H    0.101321
    86  H    0.095773
    87  H    0.116034
    88  H    0.102798
    89  H    0.120838
    90  H    0.122677
    91  H    0.111968
    92  H    0.124727
    93  H    0.156338
    94  H    0.115280
    95  H    0.169230
    96  H    0.099893
    97  H    0.129635
    98  H    0.134129
    99  H    0.126110
   100  H    0.115554
   101  H    0.102538
   102  H    0.119505
   103  H    0.115869
   104  H    0.124147
   105  H    0.101587
   106  H    0.090513
   107  H    0.105125
   108  H    0.097582
   109  H    0.055131
   110  H    0.101210
   111  H    0.042015
   112  H    0.078458
   113  H    0.118541
   114  H    0.074313
   115  H    0.069830
   116  H    0.092628
   117  H    0.099766
   118  H    0.079885
   119  H    0.077066
   120  H    0.093995
   121  H    0.077485
   122  H    0.092550
   123  H    0.115619
   124  H    0.083505
   125  H    0.091560
   126  H    0.094715
   127  H    0.107445
   128  H    0.084157
   129  H    0.061445
   130  H    0.057934
   131  H    0.104632
   132  H    0.078384
   133  H    0.115364
   134  H    0.084542
   135  H    0.086228
   136  H    0.078975
   137  H    0.100041
 Sum of Mulliken charges =   0.00000

 Dipole moment (field-independent basis, Debye):
    X=             -0.7041    Y=              5.7328    Z=             -0.6924  Tot=              5.8173
 Quadrupole moment (field-independent basis, Debye-Ang):
   XX=           -320.6402   YY=           -390.7804   ZZ=           -398.0658
   XY=            -34.5010   XZ=              9.6800   YZ=              2.2987

 Normal termination of Gaussian 09 at Mon Jul  1 06:00:30 2019.
