 Gaussian 09, Revision D.01,
 Gaussian 09:  ES64L-G09RevD.01 24-Apr-2013

 -------------------------------------
 # td=(NStates=1) CAM-B3LYP/6-31G(d,p)
 -------------------------------------

 --
 TD
 --
 Symbolic Z-matrix:
 Charge =  0 Multiplicity = 1

                         Standard orientation:
 ---------------------------------------------------------------------
 Center     Atomic      Atomic             Coordinates (Angstroms)
 Number     Number       Type             X           Y           Z
 ---------------------------------------------------------------------
      1         12           0       -7.119607    0.531380    0.136583
      2          6           0       -4.803378   -1.951007    0.615385
      3          6           0       -4.866378    2.828445    1.293962
      4          6           0       -9.483535    3.034695   -0.245314
      5          6           0       -9.381150   -1.740115   -1.073471
      6          7           0       -5.081154    0.430562    0.883220
      7          6           0       -4.395607   -0.697476    1.028510
      8          6           0       -2.983745   -0.404299    1.397365
      9          6           0       -3.069761    1.052112    1.834331
     10          6           0       -4.430546    1.510986    1.335062
     11          6           0       -2.921753    1.083155    3.386897
     12          6           0       -1.969320   -0.517490    0.176669
     13          6           0       -0.581394   -0.292855    0.613475
     14          6           0        0.435264   -0.538404   -0.568236
     15          8           0        0.195704   -0.815210   -1.703066
     16          8           0        1.755637   -0.295970   -0.231841
     17          7           0       -7.181756    2.612156    0.493881
     18          6           0       -6.179050    3.357460    0.883723
     19          6           0       -6.452933    4.730161    0.821128
     20          6           0       -7.832416    4.770190    0.427010
     21          6           0       -8.150404    3.482793    0.173533
     22          6           0       -5.535768    5.881736    1.277975
     23          6           0       -8.694791    5.989458    0.223050
     24          6           0       -8.322598    7.294461    0.084198
     25          7           0       -9.149945    0.599869   -0.505165
     26          6           0       -9.929844    1.787560   -0.644014
     27          6           0      -11.271465    1.437037   -1.194927
     28          6           0      -11.236038    0.058258   -1.256997
     29          6           0       -9.841750   -0.465644   -1.000914
     30          6           0      -12.356867    2.376975   -1.460290
     31          6           0      -12.376803   -0.870014   -1.774362
     32          6           0      -12.210835   -1.257469   -3.316545
     33          7           0       -7.202056   -1.452070   -0.237616
     34          6           0       -8.177238   -2.291290   -0.584362
     35          6           0       -7.763461   -3.595020   -0.569853
     36          6           0       -6.454926   -3.502526   -0.147484
     37          6           0       -6.100207   -2.161453    0.123611
     38          6           0       -8.610534   -4.805774   -0.921521
     39          6           0       -5.241775   -4.462912    0.171539
     40          8           0       -5.040910   -5.559377    0.106626
     41          6           0       -4.161034   -3.346238    0.656147
     42          6           0       -3.505937   -3.733045    1.927574
     43          8           0       -3.792604   -3.344051    3.004472
     44          8           0       -2.599435   -4.688554    1.624135
     45          6           0       -2.100961   -5.261002    2.862847
     46          6           0        2.661361   -0.535644   -1.277104
     47          6           0        4.038764   -0.162160   -0.633277
     48          6           0        5.123506    0.517493   -1.023939
     49          6           0        5.046121    1.221993   -2.376368
     50          6           0        6.319795    0.617116   -0.245931
     51          6           0        7.572297   -0.039329   -0.858034
     52          6           0        8.909694   -0.032034   -0.106956
     53          6           0       10.144975   -0.358250   -0.915605
     54          6           0       10.126053   -1.921151   -1.372838
     55          6           0       11.401865   -0.189306   -0.068185
     56          6           0       12.741266   -0.297836   -0.771596
     57          6           0       13.895838   -0.154315    0.054116
     58          6           0       15.374162   -0.138998   -0.546219
     59          6           0       15.562195   -1.616197   -1.017022
     60          6           0       16.420634    0.247735    0.400379
     61          6           0       17.873410    0.442314   -0.249544
     62          6           0       18.943578    1.099501    0.761097
     63          6           0       20.296297    1.223896    0.296161
     64          6           0       20.578765    2.029452   -0.912604
     65          6           0       21.233829    1.725520    1.390548
     66          1           0       -4.184862    3.448626    1.991911
     67          1           0      -10.106788    3.815698   -0.262963
     68          1           0      -10.222989   -2.467876   -1.377812
     69          1           0       -2.653942   -0.983977    2.191554
     70          1           0       -2.403125    1.598764    1.270413
     71          1           0       -1.934767    0.836325    3.729718
     72          1           0       -3.140799    2.219838    3.905690
     73          1           0       -3.433375    0.446341    3.869305
     74          1           0       -1.883922   -1.618464   -0.100520
     75          1           0       -2.206775    0.107906   -0.652946
     76          1           0       -0.380535    0.666601    0.925142
     77          1           0       -0.294886   -0.876533    1.515148
     78          1           0       -4.852832    6.334509    0.633372
     79          1           0       -6.256871    6.666099    1.602481
     80          1           0       -4.876082    5.552717    1.906235
     81          1           0       -9.737589    5.721458    0.168312
     82          1           0       -9.220561    8.013776   -0.035336
     83          1           0       -7.389289    7.539052    0.227569
     84          1           0      -12.040677    3.338015   -2.128513
     85          1           0      -13.043338    1.877915   -2.166248
     86          1           0      -12.721958    2.772063   -0.328878
     87          1           0      -12.171623   -1.681200   -1.294148
     88          1           0      -13.445789   -0.533134   -1.533050
     89          1           0      -12.976813   -1.990774   -3.612229
     90          1           0      -12.313865   -0.311325   -4.040813
     91          1           0      -11.174775   -1.584982   -3.487993
     92          1           0       -9.125501   -4.800101   -1.810496
     93          1           0       -8.027914   -5.567213   -0.913700
     94          1           0       -9.382447   -4.794947   -0.158112
     95          1           0       -3.225747   -3.370067   -0.171945
     96          1           0       -1.721610   -4.590688    3.839013
     97          1           0       -2.905049   -5.931057    3.279233
     98          1           0       -1.396538   -5.935924    2.511709
     99          1           0        2.419602   -1.604754   -1.527616
    100          1           0        2.400420   -0.007024   -2.199266
    101          1           0        4.304125   -0.769335    0.258932
    102          1           0        4.133522    1.145761   -2.991738
    103          1           0        5.276141    2.405332   -2.316597
    104          1           0        5.737308    0.884510   -3.193463
    105          1           0        6.425546    1.821123   -0.128945
    106          1           0        6.186792    0.147172    0.732446
    107          1           0        7.363156   -1.171472   -1.302576
    108          1           0        7.548610    0.499662   -1.832526
    109          1           0        9.056349    0.971193    0.327254
    110          1           0        9.043181   -0.808567    0.631727
    111          1           0       10.402159    0.413714   -1.748874
    112          1           0        9.231305   -2.039960   -2.088959
    113          1           0       11.095729   -1.985941   -2.015036
    114          1           0       10.137854   -2.390328   -0.464490
    115          1           0       11.195920    0.903361    0.173268
    116          1           0       11.554150   -0.828419    0.779336
    117          1           0       12.801163   -1.379263   -1.275502
    118          1           0       12.784418    0.349145   -1.683205
    119          1           0       13.965959    0.909520    0.679342
    120          1           0       13.986603   -0.804124    0.903293
    121          1           0       15.333194    0.442976   -1.351519
    122          1           0       15.651857   -2.366006   -0.098076
    123          1           0       14.784682   -2.167957   -1.845851
    124          1           0       16.376937   -1.648390   -1.699761
    125          1           0       16.225916    1.254371    0.886663
    126          1           0       16.414969   -0.346495    1.209228
    127          1           0       18.197679   -0.537085   -0.477743
    128          1           0       17.738683    0.962403   -1.345553
    129          1           0       18.510568    2.103828    1.185782
    130          1           0       19.112392    0.722293    1.965772
    131          1           0       20.778794    0.299320    0.006280
    132          1           0       20.126929    3.084123   -0.705976
    133          1           0       21.639646    1.955329   -1.240749
    134          1           0       20.192119    1.586753   -1.758806
    135          1           0       21.111464    1.031776    2.232869
    136          1           0       22.365638    1.491226    1.067672
    137          1           0       21.001870    2.700388    1.783366
 ---------------------------------------------------------------------

 SCF Done:  E(RCAM-B3LYP) =  -2932.60178186     A.U. after   16 cycles

 Excitation energies and oscillator strengths:

 Excited State   1:      Singlet-A      1.9664 eV  630.50 nm  f=0.3202  <S**2>=0.000
     240 -> 243        0.22091
     241 -> 242        0.66854
 This state for optimization and/or second-order correction.
 Total Energy, E(TD-HF/TD-KS) =  -2932.52951636
 Copying the excited state density for this state as the 1-particle RhoCI density.

 The electronic state is 1-A.
 Alpha  occ. eigenvalues --  -46.85465 -19.27099 -19.25145 -19.23273 -19.21674
 Alpha  occ. eigenvalues --  -19.21482 -14.41777 -14.39493 -14.38858 -14.38481
 Alpha  occ. eigenvalues --  -10.39486 -10.38814 -10.36754 -10.32033 -10.31867
 Alpha  occ. eigenvalues --  -10.30509 -10.29942 -10.29477 -10.29384 -10.29170
 Alpha  occ. eigenvalues --  -10.28771 -10.28768 -10.28571 -10.28431 -10.27989
 Alpha  occ. eigenvalues --  -10.27800 -10.27602 -10.27481 -10.27445 -10.27348
 Alpha  occ. eigenvalues --  -10.27224 -10.27174 -10.27144 -10.27113 -10.27113
 Alpha  occ. eigenvalues --  -10.27062 -10.26913 -10.26898 -10.26742 -10.26719
 Alpha  occ. eigenvalues --  -10.26681 -10.26604 -10.26576 -10.26564 -10.26530
 Alpha  occ. eigenvalues --  -10.26321 -10.26128 -10.25942 -10.25877 -10.25854
 Alpha  occ. eigenvalues --  -10.25743 -10.25569 -10.25563 -10.25515 -10.25343
 Alpha  occ. eigenvalues --  -10.25285 -10.25276 -10.25132 -10.24841 -10.24792
 Alpha  occ. eigenvalues --  -10.24664 -10.24594 -10.24322 -10.24176 -10.23817
 Alpha  occ. eigenvalues --   -3.14200  -1.88936  -1.88424  -1.88359  -1.19601
 Alpha  occ. eigenvalues --   -1.18785  -1.18777  -1.10982  -1.09773  -1.06054
 Alpha  occ. eigenvalues --   -1.05346  -1.04986  -1.01263  -0.92323  -0.91628
 Alpha  occ. eigenvalues --   -0.91220  -0.91003  -0.90405  -0.89209  -0.88500
 Alpha  occ. eigenvalues --   -0.88005  -0.87820  -0.87484  -0.87100  -0.86191
 Alpha  occ. eigenvalues --   -0.85242  -0.84344  -0.83487  -0.82627  -0.82397
 Alpha  occ. eigenvalues --   -0.81269  -0.80675  -0.80374  -0.79426  -0.78841
 Alpha  occ. eigenvalues --   -0.78077  -0.76592  -0.76293  -0.76173  -0.76027
 Alpha  occ. eigenvalues --   -0.75409  -0.74712  -0.74367  -0.73859  -0.73389
 Alpha  occ. eigenvalues --   -0.72028  -0.70555  -0.69801  -0.69436  -0.68314
 Alpha  occ. eigenvalues --   -0.67146  -0.67057  -0.66535  -0.65155  -0.64879
 Alpha  occ. eigenvalues --   -0.64009  -0.63883  -0.63016  -0.62315  -0.62047
 Alpha  occ. eigenvalues --   -0.61916  -0.61011  -0.60537  -0.59995  -0.59286
 Alpha  occ. eigenvalues --   -0.58777  -0.58532  -0.58308  -0.57366  -0.57004
 Alpha  occ. eigenvalues --   -0.56691  -0.56009  -0.55577  -0.55360  -0.54709
 Alpha  occ. eigenvalues --   -0.54538  -0.54331  -0.54004  -0.53933  -0.53879
 Alpha  occ. eigenvalues --   -0.53585  -0.52653  -0.52500  -0.52006  -0.51713
 Alpha  occ. eigenvalues --   -0.51678  -0.51627  -0.51465  -0.50896  -0.50682
 Alpha  occ. eigenvalues --   -0.50324  -0.50069  -0.49914  -0.49682  -0.49498
 Alpha  occ. eigenvalues --   -0.49445  -0.49256  -0.49069  -0.48413  -0.48271
 Alpha  occ. eigenvalues --   -0.48218  -0.48121  -0.47793  -0.47747  -0.47548
 Alpha  occ. eigenvalues --   -0.47406  -0.47286  -0.46704  -0.46583  -0.46381
 Alpha  occ. eigenvalues --   -0.46010  -0.45675  -0.45465  -0.45393  -0.45309
 Alpha  occ. eigenvalues --   -0.45195  -0.44957  -0.44756  -0.44654  -0.44443
 Alpha  occ. eigenvalues --   -0.44415  -0.44041  -0.43789  -0.43711  -0.43537
 Alpha  occ. eigenvalues --   -0.43395  -0.43259  -0.43026  -0.42908  -0.42794
 Alpha  occ. eigenvalues --   -0.42515  -0.42137  -0.42074  -0.42020  -0.41771
 Alpha  occ. eigenvalues --   -0.41509  -0.41398  -0.40897  -0.40744  -0.40621
 Alpha  occ. eigenvalues --   -0.40402  -0.40050  -0.39575  -0.39357  -0.39172
 Alpha  occ. eigenvalues --   -0.38859  -0.38537  -0.38283  -0.38244  -0.37964
 Alpha  occ. eigenvalues --   -0.37933  -0.37835  -0.36877  -0.36869  -0.36746
 Alpha  occ. eigenvalues --   -0.36646  -0.35819  -0.35692  -0.35484  -0.35227
 Alpha  occ. eigenvalues --   -0.35208  -0.34480  -0.34372  -0.34247  -0.33440
 Alpha  occ. eigenvalues --   -0.33128  -0.32966  -0.31659  -0.31332  -0.30430
 Alpha  occ. eigenvalues --   -0.29699  -0.29537  -0.28064  -0.26598  -0.22623
 Alpha  occ. eigenvalues --   -0.21587
 Alpha virt. eigenvalues --   -0.07565  -0.01901   0.02331   0.04653   0.05650
 Alpha virt. eigenvalues --    0.05899   0.06007   0.06656   0.06836   0.07402
 Alpha virt. eigenvalues --    0.08924   0.10519   0.11079   0.11408   0.11644

 Mulliken charges:
               1
     1  Mg   0.821414
     2  C    0.110687
     3  C   -0.206337
     4  C   -0.148511
     5  C   -0.202477
     6  N   -0.635043
     7  C    0.312420
     8  C   -0.167997
     9  C   -0.145084
    10  C    0.324039
    11  C   -0.300755
    12  C   -0.171224
    13  C   -0.267804
    14  C    0.587298
    15  O   -0.451843
    16  O   -0.480301
    17  N   -0.678519
    18  C    0.303316
    19  C   -0.023422
    20  C   -0.000952
    21  C    0.270721
    22  C   -0.351915
    23  C   -0.059940
    24  C   -0.230843
    25  N   -0.681598
    26  C    0.273418
    27  C    0.075204
    28  C   -0.039093
    29  C    0.343687
    30  C   -0.368873
    31  C   -0.219544
    32  C   -0.311131
    33  N   -0.760641
    34  C    0.296727
    35  C    0.007682
    36  C   -0.116461
    37  C    0.316044
    38  C   -0.337004
    39  C    0.414601
    40  O   -0.348185
    41  C   -0.359845
    42  C    0.634926
    43  O   -0.461634
    44  O   -0.453883
    45  C   -0.094697
    46  C    0.023788
    47  C   -0.137926
    48  C    0.162568
    49  C   -0.373186
    50  C   -0.234045
    51  C   -0.172979
    52  C   -0.144113
    53  C   -0.094346
    54  C   -0.302574
    55  C   -0.157430
    56  C   -0.169850
    57  C   -0.156997
    58  C   -0.054891
    59  C   -0.303109
    60  C   -0.169477
    61  C   -0.190422
    62  C   -0.158342
    63  C   -0.046352
    64  C   -0.285163
    65  C   -0.309336
    66  H    0.085087
    67  H    0.062536
    68  H    0.082262
    69  H    0.115687
    70  H    0.111084
    71  H    0.108744
    72  H    0.069197
    73  H    0.139172
    74  H    0.111796
    75  H    0.129753
    76  H    0.145154
    77  H    0.132993
    78  H    0.120773
    79  H    0.112703
    80  H    0.114851
    81  H    0.084052
    82  H    0.098772
    83  H    0.091361
    84  H    0.108265
    85  H    0.126737
    86  H    0.111239
    87  H    0.117341
    88  H    0.098423
    89  H    0.108171
    90  H    0.087715
    91  H    0.115239
    92  H    0.128449
    93  H    0.136643
    94  H    0.127852
    95  H    0.137002
    96  H    0.120662
    97  H    0.126798
    98  H    0.127758
    99  H    0.117291
   100  H    0.122508
   101  H    0.076987
   102  H    0.114944
   103  H    0.087208
   104  H    0.115098
   105  H    0.085903
   106  H    0.103881
   107  H    0.073484
   108  H    0.098960
   109  H    0.090626
   110  H    0.095738
   111  H    0.069996
   112  H    0.097758
   113  H    0.099343
   114  H    0.113620
   115  H    0.083527
   116  H    0.089188
   117  H    0.077839
   118  H    0.085322
   119  H    0.043724
   120  H    0.089803
   121  H    0.091679
   122  H    0.089515
   123  H    0.067587
   124  H    0.105956
   125  H    0.084216
   126  H    0.104525
   127  H    0.115113
   128  H    0.083650
   129  H    0.077831
   130  H    0.060708
   131  H    0.088718
   132  H    0.083046
   133  H    0.092735
   134  H    0.101653
   135  H    0.093828
   136  H    0.082185
   137  H    0.107588
 Sum of Mulliken charges =   0.00000

 Dipole moment (field-independent basis, Debye):
    X=              1.0369    Y=              0.9974    Z=              0.3506  Tot=              1.4809
 Quadrupole moment (field-independent basis, Debye-Ang):
   XX=           -342.5234   YY=           -396.0154   ZZ=           -396.1333
   XY=             -9.1646   XZ=              8.0046   YZ=             -3.2036

 Normal termination of Gaussian 09 at Sat Jun 29 10:27:55 2019.
