 Gaussian 09, Revision D.01,
 Gaussian 09:  ES64L-G09RevD.01 24-Apr-2013

 -------------------------------------
 # td=(NStates=1) CAM-B3LYP/6-31G(d,p)
 -------------------------------------

 --
 TD
 --
 Symbolic Z-matrix:
 Charge =  0 Multiplicity = 1

                         Standard orientation:
 ---------------------------------------------------------------------
 Center     Atomic      Atomic             Coordinates (Angstroms)
 Number     Number       Type             X           Y           Z
 ---------------------------------------------------------------------
      1         12           0       -7.124857    0.582943    0.045852
      2          6           0       -4.823404   -1.925527    0.580226
      3          6           0       -4.782680    2.731810    1.204450
      4          6           0       -9.375636    3.098677   -0.091401
      5          6           0       -9.490179   -1.718525   -0.836729
      6          7           0       -5.083452    0.395278    0.661341
      7          6           0       -4.300295   -0.678789    0.878773
      8          6           0       -2.929514   -0.447832    1.282683
      9          6           0       -3.062267    0.981212    1.826528
     10          6           0       -4.316676    1.427131    1.263961
     11          6           0       -3.022852    0.867725    3.408294
     12          6           0       -1.968534   -0.524289    0.007160
     13          6           0       -0.537703   -0.390950    0.390802
     14          6           0        0.477492   -0.541764   -0.750344
     15          8           0        0.080910   -0.720351   -1.962862
     16          8           0        1.680189   -0.509120   -0.291575
     17          7           0       -7.142010    2.568658    0.413858
     18          6           0       -6.051657    3.324454    0.834934
     19          6           0       -6.320984    4.704019    0.927875
     20          6           0       -7.665074    4.780933    0.526252
     21          6           0       -8.115372    3.485471    0.154712
     22          6           0       -5.466337    5.921618    1.237120
     23          6           0       -8.417558    6.059254    0.347737
     24          6           0       -8.008100    7.308798    0.085231
     25          7           0       -9.091034    0.686324   -0.484318
     26          6           0       -9.868977    1.758078   -0.506506
     27          6           0      -11.221125    1.488715   -0.881145
     28          6           0      -11.155207    0.090956   -1.095072
     29          6           0       -9.891507   -0.401919   -0.846708
     30          6           0      -12.277184    2.409696   -1.300484
     31          6           0      -12.318546   -0.700768   -1.633996
     32          6           0      -12.244012   -1.015744   -3.154279
     33          7           0       -7.166320   -1.355786   -0.060210
     34          6           0       -8.219891   -2.184984   -0.605978
     35          6           0       -7.698851   -3.606542   -0.750210
     36          6           0       -6.385858   -3.551232   -0.170242
     37          6           0       -6.146013   -2.177813    0.141930
     38          6           0       -8.561277   -4.810504   -0.925510
     39          6           0       -5.227831   -4.334742    0.094313
     40          8           0       -5.166741   -5.582989    0.038597
     41          6           0       -4.179602   -3.257946    0.554874
     42          6           0       -3.576708   -3.644163    1.886011
     43          8           0       -3.663286   -3.121418    2.977765
     44          8           0       -2.667574   -4.669755    1.769199
     45          6           0       -2.194557   -5.259830    2.983629
     46          6           0        2.744295   -0.598684   -1.379174
     47          6           0        4.128495   -0.366187   -0.718086
     48          6           0        5.083483    0.442633   -1.166813
     49          6           0        4.964474    1.284126   -2.494276
     50          6           0        6.378674    0.520731   -0.445064
     51          6           0        7.563837   -0.193623   -1.277621
     52          6           0        8.838235   -0.049889   -0.384493
     53          6           0       10.171528   -0.622317   -0.979314
     54          6           0       10.078472   -2.110045   -1.247051
     55          6           0       11.260451   -0.231624    0.006978
     56          6           0       12.732710   -0.598234   -0.621216
     57          6           0       13.917074   -0.089195    0.206891
     58          6           0       15.283917   -0.198958   -0.424316
     59          6           0       15.556279   -1.742245   -0.774145
     60          6           0       16.351647    0.384859    0.538312
     61          6           0       17.697780    0.514831   -0.013204
     62          6           0       18.719543    1.266517    0.896848
     63          6           0       20.114014    1.304816    0.351460
     64          6           0       20.340034    2.018262   -0.934847
     65          6           0       21.069805    1.951372    1.367536
     66          1           0       -4.005793    3.531926    1.887962
     67          1           0      -10.027717    3.848912   -0.198908
     68          1           0      -10.159307   -2.708851   -1.206457
     69          1           0       -2.604618   -1.162528    1.957692
     70          1           0       -2.159606    1.579792    1.512185
     71          1           0       -2.102097    0.272133    3.705765
     72          1           0       -2.551001    1.936878    3.821031
     73          1           0       -3.815453    0.394985    3.783004
     74          1           0       -2.035032   -1.282484   -0.709246
     75          1           0       -2.290719    0.357123   -0.634793
     76          1           0       -0.052377    0.518662    0.854031
     77          1           0       -0.076884   -1.120769    1.119029
     78          1           0       -5.134313    6.632837    0.367324
     79          1           0       -5.960697    6.670994    1.849423
     80          1           0       -4.518255    5.599023    1.812871
     81          1           0       -9.450047    5.767248    0.285194
     82          1           0       -8.766743    8.023134   -0.220693
     83          1           0       -6.968237    7.530488   -0.062150
     84          1           0      -12.223142    2.636413   -2.523874
     85          1           0      -13.197179    2.007384   -1.194129
     86          1           0      -12.103843    3.341853   -0.622063
     87          1           0      -12.286622   -1.719042   -1.084022
     88          1           0      -13.361137   -0.399062   -1.141973
     89          1           0      -13.078496   -1.783553   -3.441044
     90          1           0      -12.416429   -0.059850   -3.815839
     91          1           0      -11.309430   -1.439247   -3.401256
     92          1           0       -8.831029   -4.777835   -1.935012
     93          1           0       -8.067071   -5.939658   -0.721994
     94          1           0       -9.708990   -4.743543   -0.194826
     95          1           0       -3.206280   -3.533812   -0.104471
     96          1           0       -1.763753   -4.383138    3.546470
     97          1           0       -2.983890   -5.963239    3.439128
     98          1           0       -1.284619   -5.972597    2.731568
     99          1           0        2.728908   -1.668365   -1.629055
    100          1           0        2.404896    0.008673   -2.157872
    101          1           0        4.428192   -0.983973    0.218096
    102          1           0        3.808815    1.560970   -2.910906
    103          1           0        5.619539    2.122317   -2.364310
    104          1           0        5.546502    0.850867   -3.245653
    105          1           0        6.931522    1.700318   -0.284136
    106          1           0        6.357586    0.127197    0.569440
    107          1           0        7.332565   -1.174487   -1.360919
    108          1           0        7.740494    0.394768   -2.145012
    109          1           0        8.932124    1.077974   -0.173203
    110          1           0        8.584704   -0.567140    0.737888
    111          1           0       10.498807   -0.010599   -1.905537
    112          1           0        9.428544   -2.415399   -2.183854
    113          1           0       11.059212   -2.491061   -1.696167
    114          1           0        9.798060   -2.701395   -0.267594
    115          1           0       11.322226    0.787064    0.234195
    116          1           0       11.276841   -0.960906    0.856642
    117          1           0       12.623298   -1.652894   -0.754674
    118          1           0       12.783364   -0.211232   -1.775557
    119          1           0       13.758652    1.039997    0.551803
    120          1           0       13.859174   -0.623920    1.111332
    121          1           0       15.204261    0.558805   -1.212173
    122          1           0       15.116306   -2.455557    0.079025
    123          1           0       14.789304   -1.999941   -1.524680
    124          1           0       16.715507   -2.080843   -0.964871
    125          1           0       15.841728    1.381810    0.551883
    126          1           0       16.313477   -0.187718    1.602370
    127          1           0       17.972832   -0.315173   -0.288941
    128          1           0       17.701957    1.123877   -1.035212
    129          1           0       18.350496    2.357332    0.794057
    130          1           0       18.668681    0.881262    2.016967
    131          1           0       20.557950    0.195791    0.330444
    132          1           0       20.146326    3.175401   -0.975015
    133          1           0       21.393531    2.172255   -1.142390
    134          1           0       19.632146    1.808725   -1.897433
    135          1           0       21.431097    1.213304    2.282126
    136          1           0       22.110395    2.345483    0.869750
    137          1           0       20.599176    2.817290    1.651517
 ---------------------------------------------------------------------

 SCF Done:  E(RCAM-B3LYP) =  -2932.59081946     A.U. after   16 cycles

 Excitation energies and oscillator strengths:

 Excited State   1:      Singlet-A      2.0823 eV  595.42 nm  f=0.1927  <S**2>=0.000
     240 -> 242       -0.19814
     240 -> 243        0.25068
     241 -> 242        0.60403
     241 -> 243        0.14235
 This state for optimization and/or second-order correction.
 Total Energy, E(TD-HF/TD-KS) =  -2932.51429704
 Copying the excited state density for this state as the 1-particle RhoCI density.

 The electronic state is 1-A.
 Alpha  occ. eigenvalues --  -46.83420 -19.27715 -19.24491 -19.20333 -19.20090
 Alpha  occ. eigenvalues --  -19.19333 -14.41326 -14.39487 -14.39486 -14.38815
 Alpha  occ. eigenvalues --  -10.38928 -10.38757 -10.35052 -10.33343 -10.31874
 Alpha  occ. eigenvalues --  -10.30972 -10.30842 -10.30262 -10.30166 -10.29817
 Alpha  occ. eigenvalues --  -10.29422 -10.29378 -10.29054 -10.29030 -10.28884
 Alpha  occ. eigenvalues --  -10.28623 -10.28622 -10.28562 -10.28011 -10.27845
 Alpha  occ. eigenvalues --  -10.27821 -10.27769 -10.27661 -10.27659 -10.27570
 Alpha  occ. eigenvalues --  -10.27517 -10.27487 -10.27428 -10.27421 -10.27413
 Alpha  occ. eigenvalues --  -10.27272 -10.27265 -10.27155 -10.26919 -10.26912
 Alpha  occ. eigenvalues --  -10.26876 -10.26836 -10.26779 -10.26582 -10.26500
 Alpha  occ. eigenvalues --  -10.26478 -10.26402 -10.26384 -10.26210 -10.26178
 Alpha  occ. eigenvalues --  -10.26002 -10.25662 -10.25561 -10.25517 -10.25509
 Alpha  occ. eigenvalues --  -10.25486 -10.25428 -10.25208 -10.25058 -10.23724
 Alpha  occ. eigenvalues --   -3.12707  -1.87388  -1.86948  -1.86916  -1.18859
 Alpha  occ. eigenvalues --   -1.17086  -1.08879  -1.07667  -1.05323  -1.04895
 Alpha  occ. eigenvalues --   -1.04114  -1.03385  -1.02352  -0.92822  -0.91429
 Alpha  occ. eigenvalues --   -0.90948  -0.90211  -0.89820  -0.89128  -0.88991
 Alpha  occ. eigenvalues --   -0.88705  -0.87601  -0.87464  -0.87176  -0.86333
 Alpha  occ. eigenvalues --   -0.85167  -0.84429  -0.83553  -0.83277  -0.82547
 Alpha  occ. eigenvalues --   -0.81554  -0.80845  -0.79838  -0.79265  -0.78112
 Alpha  occ. eigenvalues --   -0.78007  -0.77038  -0.76673  -0.75400  -0.75086
 Alpha  occ. eigenvalues --   -0.74767  -0.74605  -0.74286  -0.73398  -0.72408
 Alpha  occ. eigenvalues --   -0.71714  -0.71224  -0.69764  -0.69217  -0.68698
 Alpha  occ. eigenvalues --   -0.67207  -0.67069  -0.65732  -0.64835  -0.64395
 Alpha  occ. eigenvalues --   -0.63454  -0.62852  -0.62707  -0.62335  -0.61608
 Alpha  occ. eigenvalues --   -0.61434  -0.60843  -0.60042  -0.59611  -0.59418
 Alpha  occ. eigenvalues --   -0.57968  -0.57913  -0.57584  -0.56857  -0.56273
 Alpha  occ. eigenvalues --   -0.56011  -0.55840  -0.55024  -0.54869  -0.54658
 Alpha  occ. eigenvalues --   -0.54287  -0.53895  -0.53693  -0.53464  -0.52991
 Alpha  occ. eigenvalues --   -0.52721  -0.51996  -0.51788  -0.51751  -0.51498
 Alpha  occ. eigenvalues --   -0.50912  -0.50796  -0.50528  -0.50427  -0.50119
 Alpha  occ. eigenvalues --   -0.49863  -0.49626  -0.49385  -0.49224  -0.49149
 Alpha  occ. eigenvalues --   -0.49080  -0.48560  -0.48370  -0.48130  -0.48023
 Alpha  occ. eigenvalues --   -0.47917  -0.47700  -0.47602  -0.47369  -0.47066
 Alpha  occ. eigenvalues --   -0.46880  -0.46736  -0.46499  -0.46292  -0.45758
 Alpha  occ. eigenvalues --   -0.45642  -0.45257  -0.45233  -0.44878  -0.44749
 Alpha  occ. eigenvalues --   -0.44487  -0.44427  -0.44203  -0.44067  -0.43947
 Alpha  occ. eigenvalues --   -0.43767  -0.43693  -0.43454  -0.42962  -0.42924
 Alpha  occ. eigenvalues --   -0.42615  -0.42420  -0.42349  -0.42162  -0.41977
 Alpha  occ. eigenvalues --   -0.41814  -0.41578  -0.41309  -0.40968  -0.40955
 Alpha  occ. eigenvalues --   -0.40689  -0.40575  -0.40518  -0.40396  -0.39825
 Alpha  occ. eigenvalues --   -0.39649  -0.39626  -0.39572  -0.39255  -0.39234
 Alpha  occ. eigenvalues --   -0.39099  -0.38846  -0.38565  -0.38554  -0.38230
 Alpha  occ. eigenvalues --   -0.37926  -0.37450  -0.37255  -0.37187  -0.37032
 Alpha  occ. eigenvalues --   -0.36854  -0.36327  -0.36137  -0.35971  -0.35556
 Alpha  occ. eigenvalues --   -0.34877  -0.34843  -0.34231  -0.34180  -0.33746
 Alpha  occ. eigenvalues --   -0.33076  -0.32534  -0.32017  -0.30325  -0.30199
 Alpha  occ. eigenvalues --   -0.30058  -0.29500  -0.27920  -0.27175  -0.23070
 Alpha  occ. eigenvalues --   -0.21708
 Alpha virt. eigenvalues --   -0.06652  -0.04079   0.01422   0.03903   0.04871
 Alpha virt. eigenvalues --    0.05558   0.05967   0.06733   0.07182   0.07689
 Alpha virt. eigenvalues --    0.07726   0.09702   0.10238   0.10890   0.11068

 Mulliken charges:
               1
     1  Mg   0.828103
     2  C    0.057460
     3  C   -0.237822
     4  C   -0.139584
     5  C   -0.169598
     6  N   -0.630214
     7  C    0.351759
     8  C   -0.137464
     9  C   -0.182382
    10  C    0.382915
    11  C   -0.294418
    12  C   -0.176354
    13  C   -0.264480
    14  C    0.600649
    15  O   -0.542329
    16  O   -0.459513
    17  N   -0.691931
    18  C    0.292634
    19  C    0.063323
    20  C   -0.028332
    21  C    0.322823
    22  C   -0.380120
    23  C   -0.053937
    24  C   -0.242592
    25  N   -0.691575
    26  C    0.276927
    27  C    0.022181
    28  C    0.003004
    29  C    0.309758
    30  C   -0.338574
    31  C   -0.254269
    32  C   -0.292447
    33  N   -0.739816
    34  C    0.239873
    35  C    0.022320
    36  C    0.028006
    37  C    0.316703
    38  C   -0.350438
    39  C    0.371114
    40  O   -0.480958
    41  C   -0.373012
    42  C    0.628524
    43  O   -0.478600
    44  O   -0.469312
    45  C   -0.069667
    46  C    0.013345
    47  C   -0.166320
    48  C    0.162521
    49  C   -0.366987
    50  C   -0.240775
    51  C   -0.168859
    52  C   -0.161950
    53  C   -0.045387
    54  C   -0.312978
    55  C   -0.171416
    56  C   -0.201040
    57  C   -0.165216
    58  C   -0.057720
    59  C   -0.318493
    60  C   -0.153288
    61  C   -0.145871
    62  C   -0.163667
    63  C   -0.026298
    64  C   -0.314060
    65  C   -0.297788
    66  H    0.051087
    67  H    0.068801
    68  H    0.099858
    69  H    0.129510
    70  H    0.115036
    71  H    0.110039
    72  H    0.086795
    73  H    0.144346
    74  H    0.144391
    75  H    0.115869
    76  H    0.127387
    77  H    0.129725
    78  H    0.117507
    79  H    0.136869
    80  H    0.104143
    81  H    0.081290
    82  H    0.110042
    83  H    0.102403
    84  H    0.097886
    85  H    0.129346
    86  H    0.098869
    87  H    0.089226
    88  H    0.090635
    89  H    0.092640
    90  H    0.095301
    91  H    0.122975
    92  H    0.140796
    93  H    0.141352
    94  H    0.087589
    95  H    0.165417
    96  H    0.128836
    97  H    0.127270
    98  H    0.104688
    99  H    0.143917
   100  H    0.149826
   101  H    0.094264
   102  H    0.102672
   103  H    0.119258
   104  H    0.135959
   105  H    0.056651
   106  H    0.110487
   107  H    0.118263
   108  H    0.106441
   109  H    0.080485
   110  H    0.054277
   111  H    0.081514
   112  H    0.097495
   113  H    0.102930
   114  H    0.100027
   115  H    0.104713
   116  H    0.091631
   117  H    0.104355
   118  H    0.050958
   119  H    0.066573
   120  H    0.099540
   121  H    0.093186
   122  H    0.085395
   123  H    0.113388
   124  H    0.093713
   125  H    0.079229
   126  H    0.068228
   127  H    0.099193
   128  H    0.066717
   129  H    0.083670
   130  H    0.082249
   131  H    0.074116
   132  H    0.081496
   133  H    0.114950
   134  H    0.087040
   135  H    0.081579
   136  H    0.071926
   137  H    0.117678
 Sum of Mulliken charges =   0.00000

 Dipole moment (field-independent basis, Debye):
    X=              3.5220    Y=              4.2154    Z=             -0.3754  Tot=              5.5059
 Quadrupole moment (field-independent basis, Debye-Ang):
   XX=           -355.0729   YY=           -393.1059   ZZ=           -402.1939
   XY=            -19.5742   XZ=              8.3384   YZ=             -3.9578

 Normal termination of Gaussian 09 at Wed Jun 26 23:14:19 2019.
