 Gaussian 09, Revision D.01,
 Gaussian 09:  ES64L-G09RevD.01 24-Apr-2013

 -------------------------------------
 # td=(NStates=1) CAM-B3LYP/6-31G(d,p)
 -------------------------------------

 --
 TD
 --
 Symbolic Z-matrix:
 Charge =  0 Multiplicity = 1

                         Standard orientation:
 ---------------------------------------------------------------------
 Center     Atomic      Atomic             Coordinates (Angstroms)
 Number     Number       Type             X           Y           Z
 ---------------------------------------------------------------------
      1         12           0       -7.167121    0.550580    0.101285
      2          6           0       -4.850298   -1.944487    0.396512
      3          6           0       -4.804626    2.763140    1.192220
      4          6           0       -9.414648    3.089539   -0.222591
      5          6           0       -9.500958   -1.729968   -0.852050
      6          7           0       -5.150771    0.351438    0.699749
      7          6           0       -4.379717   -0.786604    0.796655
      8          6           0       -2.937633   -0.379747    1.230362
      9          6           0       -3.063771    1.065439    1.697334
     10          6           0       -4.344670    1.407337    1.081527
     11          6           0       -2.959170    1.087689    3.213564
     12          6           0       -1.890070   -0.665049    0.114434
     13          6           0       -0.499037   -0.449906    0.636044
     14          6           0        0.571426   -0.777378   -0.568295
     15          8           0        0.259026   -1.095611   -1.623851
     16          8           0        1.752176   -0.430982   -0.132668
     17          7           0       -7.174071    2.532519    0.507109
     18          6           0       -6.133506    3.292092    0.828405
     19          6           0       -6.410657    4.639714    0.943541
     20          6           0       -7.733863    4.792099    0.484273
     21          6           0       -8.216035    3.423323    0.317868
     22          6           0       -5.577987    5.720849    1.269236
     23          6           0       -8.541626    6.033196    0.298828
     24          6           0       -8.046158    7.228801   -0.009284
     25          7           0       -9.116837    0.659109   -0.585390
     26          6           0       -9.884175    1.841394   -0.558045
     27          6           0      -11.310022    1.509211   -1.083705
     28          6           0      -11.213432    0.157925   -1.212950
     29          6           0       -9.921220   -0.337711   -0.875375
     30          6           0      -12.427309    2.493460   -1.258656
     31          6           0      -12.327417   -0.753792   -1.747902
     32          6           0      -12.219644   -0.956601   -3.215519
     33          7           0       -7.278145   -1.359927   -0.289437
     34          6           0       -8.282859   -2.174849   -0.525670
     35          6           0       -7.803259   -3.570546   -0.569008
     36          6           0       -6.458663   -3.596023   -0.213732
     37          6           0       -6.186822   -2.158960    0.055766
     38          6           0       -8.721018   -4.749077   -0.796073
     39          6           0       -5.304904   -4.369089    0.062886
     40          8           0       -5.117701   -5.554736    0.052634
     41          6           0       -4.188870   -3.278781    0.428964
     42          6           0       -3.527469   -3.651413    1.722844
     43          8           0       -3.826697   -3.093158    2.825281
     44          8           0       -2.601159   -4.708372    1.680663
     45          6           0       -2.002806   -5.101998    2.949321
     46          6           0        2.888606   -0.515241   -1.233142
     47          6           0        4.166839   -0.291757   -0.445199
     48          6           0        5.272404    0.382021   -0.956264
     49          6           0        5.169342    1.245643   -2.369111
     50          6           0        6.406796    0.469278   -0.118742
     51          6           0        7.675520   -0.016954   -0.952304
     52          6           0        8.852187   -0.159491   -0.071068
     53          6           0       10.229946   -0.602868   -0.860949
     54          6           0       10.113653   -2.054311   -1.321842
     55          6           0       11.363384   -0.327090    0.057526
     56          6           0       12.690115   -0.438861   -0.655975
     57          6           0       13.901772   -0.193736    0.207362
     58          6           0       15.297800   -0.283618   -0.407187
     59          6           0       15.626485   -1.676545   -0.836878
     60          6           0       16.406801    0.420836    0.461370
     61          6           0       17.826862    0.553328   -0.062199
     62          6           0       18.821422    1.370789    0.683560
     63          6           0       20.214752    1.328179    0.087876
     64          6           0       20.206225    2.167691   -1.145179
     65          6           0       21.166176    1.866678    1.224089
     66          1           0       -4.010153    3.425274    1.642177
     67          1           0      -10.187986    4.021829   -0.326489
     68          1           0      -10.278826   -2.438605   -0.943684
     69          1           0       -2.830908   -0.912396    2.107790
     70          1           0       -2.305078    1.734170    1.118492
     71          1           0       -2.032599    0.707556    3.620181
     72          1           0       -3.144918    2.045750    3.346843
     73          1           0       -3.883493    0.673005    3.771157
     74          1           0       -2.207200   -1.653154   -0.194668
     75          1           0       -2.328602    0.114083   -0.521333
     76          1           0       -0.211324    0.561055    0.969064
     77          1           0       -0.149025   -0.939027    1.472038
     78          1           0       -4.571309    5.941974    0.593806
     79          1           0       -6.160242    6.521440    1.595606
     80          1           0       -4.946641    5.437979    2.279709
     81          1           0       -9.657805    6.074313    0.205547
     82          1           0       -8.553211    8.092503    0.024239
     83          1           0       -7.064384    7.533451   -0.653348
     84          1           0      -12.223236    2.885736   -2.160725
     85          1           0      -13.265446    2.139154   -1.500200
     86          1           0      -12.518927    3.252018   -0.297074
     87          1           0      -12.389759   -1.815919   -1.315916
     88          1           0      -13.394200   -0.317686   -1.552130
     89          1           0      -13.086343   -1.567798   -3.672783
     90          1           0      -12.334716   -0.225408   -3.834912
     91          1           0      -11.184949   -1.351303   -3.488846
     92          1           0       -8.806927   -4.898131   -1.896236
     93          1           0       -8.311139   -5.730516   -0.367336
     94          1           0       -9.564908   -4.705147   -0.269717
     95          1           0       -3.562341   -3.514969   -0.521453
     96          1           0       -1.352837   -4.354095    3.538780
     97          1           0       -2.940313   -5.527042    3.511773
     98          1           0       -1.352609   -5.976463    2.650907
     99          1           0        2.815609   -1.636246   -1.589768
    100          1           0        2.589666    0.025345   -1.977091
    101          1           0        4.297893   -0.637402    0.598597
    102          1           0        4.194989    1.567179   -2.493018
    103          1           0        5.792198    2.086321   -2.305387
    104          1           0        5.740948    0.529894   -3.171615
    105          1           0        6.652469    1.612490    0.018636
    106          1           0        6.267403   -0.130423    0.754224
    107          1           0        7.531381   -0.999582   -1.304267
    108          1           0        7.911276    0.532842   -1.813076
    109          1           0        9.076862    0.792746    0.162212
    110          1           0        8.806087   -0.657844    0.792046
    111          1           0       10.252207    0.096557   -1.649029
    112          1           0        9.320399   -2.147837   -1.981606
    113          1           0       11.035304   -2.441182   -1.756181
    114          1           0        9.903386   -2.544601   -0.439930
    115          1           0       11.098056    0.766089    0.402457
    116          1           0       11.328773   -0.951022    0.949734
    117          1           0       12.701939   -1.444136   -1.212426
    118          1           0       12.672333    0.101071   -1.528698
    119          1           0       13.760185    0.861448    0.660469
    120          1           0       13.935091   -0.694558    1.218044
    121          1           0       15.024256    0.535962   -1.257521
    122          1           0       15.460347   -2.363098   -0.026260
    123          1           0       14.967284   -2.088683   -1.643664
    124          1           0       16.690822   -1.638784   -1.402856
    125          1           0       15.992378    1.527031    0.520619
    126          1           0       16.379077   -0.108402    1.403794
    127          1           0       18.120639   -0.432820   -0.196983
    128          1           0       17.887428    1.079810   -1.137175
    129          1           0       18.807401    2.321993    1.004231
    130          1           0       18.711010    0.925734    1.712486
    131          1           0       20.543149    0.300104   -0.239917
    132          1           0       19.993169    3.225000   -1.019986
    133          1           0       21.315761    2.241777   -1.279456
    134          1           0       19.761026    1.768581   -1.951633
    135          1           0       20.995756    1.052528    2.172728
    136          1           0       22.108822    1.910749    0.775227
    137          1           0       20.983458    2.852498    1.559829
 ---------------------------------------------------------------------

 SCF Done:  E(RCAM-B3LYP) =  -2932.58888664     A.U. after   16 cycles

 Excitation energies and oscillator strengths:

 Excited State   1:      Singlet-A      1.9985 eV  620.39 nm  f=0.2716  <S**2>=0.000
     240 -> 243       -0.21246
     241 -> 242        0.65335
 This state for optimization and/or second-order correction.
 Total Energy, E(TD-HF/TD-KS) =  -2932.51544391
 Copying the excited state density for this state as the 1-particle RhoCI density.

 The electronic state is 1-A.
 Alpha  occ. eigenvalues --  -46.83494 -19.26047 -19.25246 -19.21125 -19.20668
 Alpha  occ. eigenvalues --  -19.20120 -14.40966 -14.39609 -14.39383 -14.38922
 Alpha  occ. eigenvalues --  -10.40009 -10.37399 -10.35767 -10.32670 -10.32559
 Alpha  occ. eigenvalues --  -10.30291 -10.29804 -10.29746 -10.29577 -10.29348
 Alpha  occ. eigenvalues --  -10.28812 -10.28750 -10.28674 -10.28638 -10.28215
 Alpha  occ. eigenvalues --  -10.27871 -10.27809 -10.27627 -10.27573 -10.26979
 Alpha  occ. eigenvalues --  -10.26959 -10.26867 -10.26817 -10.26805 -10.26727
 Alpha  occ. eigenvalues --  -10.26707 -10.26624 -10.26188 -10.26176 -10.26067
 Alpha  occ. eigenvalues --  -10.25975 -10.25971 -10.25881 -10.25852 -10.25811
 Alpha  occ. eigenvalues --  -10.25665 -10.25644 -10.25544 -10.25426 -10.25412
 Alpha  occ. eigenvalues --  -10.25311 -10.25248 -10.25210 -10.25179 -10.25047
 Alpha  occ. eigenvalues --  -10.24989 -10.24888 -10.24832 -10.24814 -10.24555
 Alpha  occ. eigenvalues --  -10.23896 -10.23352 -10.23179 -10.23165 -10.22924
 Alpha  occ. eigenvalues --   -3.12741  -1.87436  -1.86984  -1.86938  -1.18673
 Alpha  occ. eigenvalues --   -1.14986  -1.12573  -1.09992  -1.06360  -1.05080
 Alpha  occ. eigenvalues --   -1.03951  -1.03116  -1.02428  -0.93817  -0.92056
 Alpha  occ. eigenvalues --   -0.90896  -0.90372  -0.89843  -0.88933  -0.88692
 Alpha  occ. eigenvalues --   -0.88534  -0.88268  -0.87853  -0.86824  -0.85943
 Alpha  occ. eigenvalues --   -0.85358  -0.84221  -0.83846  -0.83469  -0.82940
 Alpha  occ. eigenvalues --   -0.81819  -0.80785  -0.80383  -0.80016  -0.78571
 Alpha  occ. eigenvalues --   -0.78086  -0.77751  -0.77126  -0.76588  -0.76071
 Alpha  occ. eigenvalues --   -0.75876  -0.75171  -0.75100  -0.73186  -0.72620
 Alpha  occ. eigenvalues --   -0.71959  -0.70607  -0.69775  -0.69138  -0.68876
 Alpha  occ. eigenvalues --   -0.67476  -0.67182  -0.65647  -0.65451  -0.64221
 Alpha  occ. eigenvalues --   -0.64093  -0.63659  -0.63491  -0.62964  -0.61797
 Alpha  occ. eigenvalues --   -0.60964  -0.60267  -0.59861  -0.59463  -0.58808
 Alpha  occ. eigenvalues --   -0.58329  -0.57847  -0.57320  -0.56978  -0.56274
 Alpha  occ. eigenvalues --   -0.55706  -0.55398  -0.55020  -0.54641  -0.54376
 Alpha  occ. eigenvalues --   -0.54222  -0.53673  -0.53455  -0.53137  -0.53086
 Alpha  occ. eigenvalues --   -0.52781  -0.52665  -0.52265  -0.52055  -0.51898
 Alpha  occ. eigenvalues --   -0.51623  -0.51413  -0.51225  -0.51082  -0.50855
 Alpha  occ. eigenvalues --   -0.50663  -0.50469  -0.50175  -0.50096  -0.50018
 Alpha  occ. eigenvalues --   -0.49775  -0.49363  -0.49045  -0.48947  -0.48783
 Alpha  occ. eigenvalues --   -0.48469  -0.48072  -0.47986  -0.47687  -0.47560
 Alpha  occ. eigenvalues --   -0.47480  -0.47289  -0.47051  -0.46798  -0.46652
 Alpha  occ. eigenvalues --   -0.46033  -0.45760  -0.45571  -0.45468  -0.45303
 Alpha  occ. eigenvalues --   -0.45199  -0.44846  -0.44664  -0.44649  -0.44520
 Alpha  occ. eigenvalues --   -0.44350  -0.44286  -0.44032  -0.43875  -0.43303
 Alpha  occ. eigenvalues --   -0.43252  -0.43141  -0.42898  -0.42745  -0.42639
 Alpha  occ. eigenvalues --   -0.42434  -0.42222  -0.41855  -0.41730  -0.41505
 Alpha  occ. eigenvalues --   -0.41379  -0.40936  -0.40624  -0.40338  -0.40077
 Alpha  occ. eigenvalues --   -0.39704  -0.39649  -0.39359  -0.38978  -0.38779
 Alpha  occ. eigenvalues --   -0.38576  -0.38555  -0.38371  -0.38114  -0.37601
 Alpha  occ. eigenvalues --   -0.37305  -0.37197  -0.37023  -0.36592  -0.36500
 Alpha  occ. eigenvalues --   -0.36488  -0.35816  -0.35606  -0.35377  -0.34899
 Alpha  occ. eigenvalues --   -0.34487  -0.34411  -0.34018  -0.33545  -0.33123
 Alpha  occ. eigenvalues --   -0.32953  -0.32570  -0.32080  -0.30976  -0.30623
 Alpha  occ. eigenvalues --   -0.29683  -0.28504  -0.28376  -0.26271  -0.22950
 Alpha  occ. eigenvalues --   -0.20664
 Alpha virt. eigenvalues --   -0.06339  -0.02512   0.01010   0.03598   0.04332
 Alpha virt. eigenvalues --    0.05183   0.06282   0.06747   0.07184   0.09331
 Alpha virt. eigenvalues --    0.10241   0.11004   0.11480   0.11718   0.11863

 Mulliken charges:
               1
     1  Mg   0.812378
     2  C    0.043759
     3  C   -0.214121
     4  C   -0.165162
     5  C   -0.177976
     6  N   -0.631705
     7  C    0.309173
     8  C   -0.182177
     9  C   -0.155875
    10  C    0.323936
    11  C   -0.299641
    12  C   -0.128961
    13  C   -0.284857
    14  C    0.583794
    15  O   -0.434453
    16  O   -0.489732
    17  N   -0.695546
    18  C    0.325322
    19  C    0.073688
    20  C    0.014397
    21  C    0.269051
    22  C   -0.380360
    23  C   -0.106632
    24  C   -0.239603
    25  N   -0.671440
    26  C    0.223574
    27  C    0.026945
    28  C   -0.005358
    29  C    0.326032
    30  C   -0.331685
    31  C   -0.242619
    32  C   -0.291685
    33  N   -0.720174
    34  C    0.355795
    35  C   -0.033221
    36  C    0.077153
    37  C    0.258964
    38  C   -0.371680
    39  C    0.333848
    40  O   -0.437286
    41  C   -0.340646
    42  C    0.646783
    43  O   -0.499643
    44  O   -0.477740
    45  C   -0.071788
    46  C    0.008561
    47  C   -0.160096
    48  C    0.127444
    49  C   -0.350769
    50  C   -0.227375
    51  C   -0.199642
    52  C   -0.185190
    53  C   -0.093498
    54  C   -0.302245
    55  C   -0.153809
    56  C   -0.167926
    57  C   -0.179045
    58  C   -0.048270
    59  C   -0.308709
    60  C   -0.170337
    61  C   -0.169047
    62  C   -0.130902
    63  C   -0.078768
    64  C   -0.304540
    65  C   -0.308045
    66  H    0.078106
    67  H    0.086280
    68  H    0.089900
    69  H    0.130597
    70  H    0.101047
    71  H    0.118800
    72  H    0.114029
    73  H    0.119275
    74  H    0.116838
    75  H    0.111762
    76  H    0.127193
    77  H    0.131078
    78  H    0.102502
    79  H    0.129630
    80  H    0.073241
    81  H    0.104409
    82  H    0.104551
    83  H    0.096488
    84  H    0.137978
    85  H    0.115525
    86  H    0.107594
    87  H    0.098148
    88  H    0.085582
    89  H    0.078473
    90  H    0.118966
    91  H    0.097129
    92  H    0.134019
    93  H    0.131287
    94  H    0.136601
    95  H    0.169839
    96  H    0.125400
    97  H    0.129636
    98  H    0.124778
    99  H    0.129758
   100  H    0.141101
   101  H    0.101932
   102  H    0.130335
   103  H    0.124079
   104  H    0.109712
   105  H    0.095621
   106  H    0.107716
   107  H    0.103247
   108  H    0.100678
   109  H    0.093915
   110  H    0.095464
   111  H    0.081635
   112  H    0.105765
   113  H    0.099222
   114  H    0.108547
   115  H    0.072186
   116  H    0.090077
   117  H    0.076160
   118  H    0.102048
   119  H    0.077304
   120  H    0.073061
   121  H    0.059537
   122  H    0.110612
   123  H    0.103071
   124  H    0.089554
   125  H    0.076836
   126  H    0.089014
   127  H    0.104855
   128  H    0.060776
   129  H    0.094727
   130  H    0.059268
   131  H    0.081301
   132  H    0.101796
   133  H    0.085489
   134  H    0.121128
   135  H    0.082175
   136  H    0.102618
   137  H    0.110380
 Sum of Mulliken charges =   0.00000

 Dipole moment (field-independent basis, Debye):
    X=              2.4607    Y=              3.5060    Z=             -0.6586  Tot=              4.3337
 Quadrupole moment (field-independent basis, Debye-Ang):
   XX=           -331.7495   YY=           -393.2018   ZZ=           -395.7324
   XY=            -12.7985   XZ=              9.2749   YZ=             -6.7665

 Normal termination of Gaussian 09 at Sat Jun 29 22:15:42 2019.
