 Gaussian 09, Revision D.01,
 Gaussian 09:  ES64L-G09RevD.01 24-Apr-2013

 -------------------------------------
 # td=(NStates=1) CAM-B3LYP/6-31G(d,p)
 -------------------------------------

 --
 TD
 --
 Symbolic Z-matrix:
 Charge =  0 Multiplicity = 1

                         Standard orientation:
 ---------------------------------------------------------------------
 Center     Atomic      Atomic             Coordinates (Angstroms)
 Number     Number       Type             X           Y           Z
 ---------------------------------------------------------------------
      1         12           0       -7.196162    0.544917    0.028548
      2          6           0       -4.860898   -1.971779    0.573159
      3          6           0       -4.868439    2.900546    1.183887
      4          6           0       -9.432923    3.050285   -0.375890
      5          6           0       -9.390131   -1.762239   -0.911333
      6          7           0       -5.163579    0.490957    0.813804
      7          6           0       -4.419456   -0.645178    0.796530
      8          6           0       -3.073954   -0.366835    1.305680
      9          6           0       -3.054176    1.161698    1.777776
     10          6           0       -4.458797    1.567732    1.182156
     11          6           0       -2.874170    1.272090    3.214308
     12          6           0       -1.978404   -0.542186    0.133115
     13          6           0       -0.530141   -0.343108    0.604719
     14          6           0        0.473372   -0.539751   -0.571406
     15          8           0        0.144442   -0.838901   -1.690896
     16          8           0        1.788960   -0.379753   -0.214526
     17          7           0       -7.077630    2.625966    0.404890
     18          6           0       -6.075360    3.387179    0.760782
     19          6           0       -6.537655    4.776997    0.862207
     20          6           0       -7.840973    4.827632    0.404148
     21          6           0       -8.168797    3.419579    0.102519
     22          6           0       -5.639739    5.879835    1.340429
     23          6           0       -8.670747    6.004852    0.276797
     24          6           0       -8.323491    7.256033    0.144150
     25          7           0       -9.179993    0.625380   -0.477812
     26          6           0       -9.876814    1.743396   -0.657561
     27          6           0      -11.241097    1.454292   -1.229322
     28          6           0      -11.255887   -0.016313   -1.268677
     29          6           0       -9.902721   -0.375703   -0.865800
     30          6           0      -12.329886    2.399496   -1.486426
     31          6           0      -12.452101   -0.776484   -1.837910
     32          6           0      -12.307712   -1.192160   -3.302850
     33          7           0       -7.150589   -1.393675   -0.158787
     34          6           0       -8.216861   -2.243370   -0.671510
     35          6           0       -7.723309   -3.620362   -0.580220
     36          6           0       -6.532907   -3.576862   -0.131872
     37          6           0       -6.141865   -2.235478    0.097489
     38          6           0       -8.574828   -4.758947   -0.983826
     39          6           0       -5.287813   -4.368991    0.220908
     40          8           0       -5.168472   -5.558476    0.348643
     41          6           0       -4.103360   -3.343461    0.603206
     42          6           0       -3.578886   -3.664412    2.065723
     43          8           0       -3.906165   -3.173620    3.107001
     44          8           0       -2.617638   -4.627380    1.811831
     45          6           0       -2.028410   -4.995661    3.146230
     46          6           0        2.761715   -0.686939   -1.075952
     47          6           0        4.079196   -0.370024   -0.432744
     48          6           0        5.117515    0.248314   -0.958542
     49          6           0        5.070130    1.027308   -2.297985
     50          6           0        6.468375    0.386731   -0.125613
     51          6           0        7.618710   -0.230065   -1.039795
     52          6           0        8.989092   -0.300881   -0.249082
     53          6           0       10.279815   -0.628238   -0.929752
     54          6           0       10.186664   -2.073605   -1.419087
     55          6           0       11.462168   -0.338682   -0.025268
     56          6           0       12.821965   -0.508954   -0.694507
     57          6           0       14.066918   -0.213222    0.092832
     58          6           0       15.397604   -0.318388   -0.645197
     59          6           0       15.722514   -1.778990   -0.917492
     60          6           0       16.498820    0.268757    0.351339
     61          6           0       17.910172    0.524589   -0.217237
     62          6           0       18.739008    1.380733    0.731612
     63          6           0       20.275784    1.535582    0.317706
     64          6           0       20.387648    2.159619   -1.071085
     65          6           0       21.162498    2.244860    1.391880
     66          1           0       -3.921545    3.431914    1.687843
     67          1           0      -10.007253    4.095215   -0.496999
     68          1           0      -10.040563   -2.568483   -1.301581
     69          1           0       -2.719964   -1.092820    2.058214
     70          1           0       -2.397968    1.566707    1.134414
     71          1           0       -2.050157    0.935500    3.632766
     72          1           0       -3.501418    2.400425    3.275832
     73          1           0       -3.646139    0.693325    3.766556
     74          1           0       -2.071883   -1.388898   -0.482545
     75          1           0       -2.126290    0.110961   -0.750817
     76          1           0       -0.271289    0.725830    0.932437
     77          1           0       -0.209669   -0.917415    1.384559
     78          1           0       -5.204419    6.221591    0.385186
     79          1           0       -6.080827    6.586683    1.820634
     80          1           0       -4.720569    5.308633    1.780155
     81          1           0       -9.748655    5.692348    0.488839
     82          1           0       -8.963056    7.836840    0.022828
     83          1           0       -7.237890    7.888142    0.196220
     84          1           0      -12.125826    3.166256   -2.339825
     85          1           0      -13.244195    1.711411   -1.788418
     86          1           0      -12.669547    2.954232   -0.621892
     87          1           0      -12.542818   -1.732966   -1.352174
     88          1           0      -13.299357   -0.296425   -1.442901
     89          1           0      -13.285905   -1.826711   -3.709938
     90          1           0      -12.127586   -0.376629   -3.965848
     91          1           0      -11.513003   -1.799494   -3.416824
     92          1           0       -8.864436   -4.893760   -2.028071
     93          1           0       -8.129140   -5.669254   -0.739485
     94          1           0       -9.678617   -4.720615   -0.531954
     95          1           0       -3.430446   -3.528391   -0.310433
     96          1           0       -1.617601   -4.021469    3.794223
     97          1           0       -2.988318   -5.089442    4.028181
     98          1           0       -1.528570   -5.973272    2.906104
     99          1           0        2.547892   -1.720623   -1.270213
    100          1           0        2.624609   -0.319504   -2.255618
    101          1           0        4.210672   -0.908387    0.446268
    102          1           0        4.192832    0.913584   -2.835176
    103          1           0        5.412989    2.108006   -2.100765
    104          1           0        5.966640    0.899453   -3.105113
    105          1           0        6.817837    1.488086    0.145842
    106          1           0        6.435740   -0.244990    0.758479
    107          1           0        7.439566   -1.181314   -1.332848
    108          1           0        7.601287    0.571593   -1.820517
    109          1           0        9.266550    0.689860    0.241026
    110          1           0        8.678931   -0.838900    0.690536
    111          1           0       10.580716   -0.057260   -1.834692
    112          1           0        9.303931   -2.197058   -2.067429
    113          1           0       11.229266   -2.322680   -2.030497
    114          1           0        9.949790   -2.829145   -0.700156
    115          1           0       11.282101    0.675356    0.441856
    116          1           0       11.462859   -0.955399    0.729241
    117          1           0       13.045016   -1.530671   -0.902676
    118          1           0       12.896386    0.003543   -1.521234
    119          1           0       14.180331    0.963602    0.495905
    120          1           0       14.147883   -0.671017    1.034761
    121          1           0       15.296598    0.249793   -1.568444
    122          1           0       15.940351   -2.462628   -0.063268
    123          1           0       14.944970   -2.206282   -1.516622
    124          1           0       16.599242   -1.931978   -1.577847
    125          1           0       16.096904    1.319480    0.636056
    126          1           0       16.465442   -0.390592    1.271509
    127          1           0       18.516467   -0.470084   -0.483447
    128          1           0       18.051544    1.186157   -1.187527
    129          1           0       18.343190    2.359888    0.865905
    130          1           0       18.677665    0.919796    1.628910
    131          1           0       20.573173    0.415344    0.195751
    132          1           0       20.235070    3.165759   -1.001669
    133          1           0       21.391478    2.049126   -1.415586
    134          1           0       19.446635    1.783588   -1.773310
    135          1           0       21.075053    1.558139    2.386019
    136          1           0       22.253267    2.378459    0.998415
    137          1           0       20.789666    3.210390    1.825132
 ---------------------------------------------------------------------

 SCF Done:  E(RCAM-B3LYP) =  -2932.55810577     A.U. after   15 cycles

 Excitation energies and oscillator strengths:

 Excited State   1:      Singlet-A      2.2680 eV  546.66 nm  f=0.1373  <S**2>=0.000
     240 -> 242       -0.18722
     240 -> 243        0.26229
     241 -> 242        0.56542
     241 -> 243        0.25708
 This state for optimization and/or second-order correction.
 Total Energy, E(TD-HF/TD-KS) =  -2932.47475651
 Copying the excited state density for this state as the 1-particle RhoCI density.

 The electronic state is 1-A.
 Alpha  occ. eigenvalues --  -46.84487 -19.27710 -19.26309 -19.23643 -19.22061
 Alpha  occ. eigenvalues --  -19.21777 -14.41289 -14.39406 -14.39221 -14.39135
 Alpha  occ. eigenvalues --  -10.40921 -10.39971 -10.36705 -10.34831 -10.32026
 Alpha  occ. eigenvalues --  -10.31199 -10.30474 -10.30333 -10.29157 -10.29048
 Alpha  occ. eigenvalues --  -10.28994 -10.28595 -10.28493 -10.28438 -10.28405
 Alpha  occ. eigenvalues --  -10.28317 -10.28183 -10.28072 -10.27604 -10.27395
 Alpha  occ. eigenvalues --  -10.27296 -10.27030 -10.26879 -10.26876 -10.26766
 Alpha  occ. eigenvalues --  -10.26763 -10.26744 -10.26707 -10.26598 -10.26590
 Alpha  occ. eigenvalues --  -10.26548 -10.26488 -10.26279 -10.26235 -10.26221
 Alpha  occ. eigenvalues --  -10.26039 -10.25965 -10.25818 -10.25771 -10.25770
 Alpha  occ. eigenvalues --  -10.25693 -10.25667 -10.25614 -10.25402 -10.25281
 Alpha  occ. eigenvalues --  -10.25182 -10.25139 -10.25100 -10.24976 -10.24694
 Alpha  occ. eigenvalues --  -10.24221 -10.24159 -10.23753 -10.23455 -10.23389
 Alpha  occ. eigenvalues --   -3.13547  -1.88253  -1.87789  -1.87724  -1.19943
 Alpha  occ. eigenvalues --   -1.18342  -1.13167  -1.11097  -1.10809  -1.05167
 Alpha  occ. eigenvalues --   -1.04501  -1.03965  -1.03160  -0.91992  -0.91366
 Alpha  occ. eigenvalues --   -0.90286  -0.89871  -0.89578  -0.89363  -0.89233
 Alpha  occ. eigenvalues --   -0.88057  -0.87985  -0.87702  -0.87410  -0.86361
 Alpha  occ. eigenvalues --   -0.84970  -0.84358  -0.83840  -0.83182  -0.82731
 Alpha  occ. eigenvalues --   -0.81563  -0.80991  -0.80168  -0.79899  -0.78742
 Alpha  occ. eigenvalues --   -0.78149  -0.76405  -0.76048  -0.75685  -0.75410
 Alpha  occ. eigenvalues --   -0.75158  -0.74652  -0.74396  -0.73687  -0.72254
 Alpha  occ. eigenvalues --   -0.72037  -0.70812  -0.70447  -0.69606  -0.69059
 Alpha  occ. eigenvalues --   -0.67240  -0.66685  -0.65975  -0.64975  -0.64678
 Alpha  occ. eigenvalues --   -0.63956  -0.63739  -0.63599  -0.62831  -0.62195
 Alpha  occ. eigenvalues --   -0.62044  -0.61147  -0.60245  -0.59922  -0.59570
 Alpha  occ. eigenvalues --   -0.58986  -0.58693  -0.57793  -0.57527  -0.57126
 Alpha  occ. eigenvalues --   -0.56330  -0.55515  -0.55464  -0.54949  -0.54930
 Alpha  occ. eigenvalues --   -0.54592  -0.54525  -0.54388  -0.53800  -0.53555
 Alpha  occ. eigenvalues --   -0.53452  -0.53080  -0.52591  -0.52434  -0.51851
 Alpha  occ. eigenvalues --   -0.51724  -0.51551  -0.51143  -0.51004  -0.50708
 Alpha  occ. eigenvalues --   -0.50349  -0.50232  -0.49790  -0.49661  -0.49560
 Alpha  occ. eigenvalues --   -0.49428  -0.49011  -0.48827  -0.48729  -0.48437
 Alpha  occ. eigenvalues --   -0.48272  -0.47682  -0.47550  -0.47377  -0.47051
 Alpha  occ. eigenvalues --   -0.46697  -0.46292  -0.46168  -0.46135  -0.45962
 Alpha  occ. eigenvalues --   -0.45807  -0.45729  -0.45410  -0.45311  -0.45205
 Alpha  occ. eigenvalues --   -0.45156  -0.44809  -0.44719  -0.44667  -0.44598
 Alpha  occ. eigenvalues --   -0.44341  -0.44278  -0.44085  -0.43592  -0.43501
 Alpha  occ. eigenvalues --   -0.43450  -0.42961  -0.42711  -0.42626  -0.42402
 Alpha  occ. eigenvalues --   -0.42230  -0.41870  -0.41800  -0.41705  -0.41504
 Alpha  occ. eigenvalues --   -0.41098  -0.40968  -0.40959  -0.40679  -0.40444
 Alpha  occ. eigenvalues --   -0.40144  -0.39749  -0.39628  -0.39342  -0.39259
 Alpha  occ. eigenvalues --   -0.38999  -0.38534  -0.38361  -0.38348  -0.37723
 Alpha  occ. eigenvalues --   -0.37469  -0.37181  -0.36860  -0.36785  -0.36148
 Alpha  occ. eigenvalues --   -0.35985  -0.35593  -0.35470  -0.35377  -0.35354
 Alpha  occ. eigenvalues --   -0.35212  -0.34971  -0.34638  -0.34471  -0.33970
 Alpha  occ. eigenvalues --   -0.33333  -0.33024  -0.32574  -0.32182  -0.30909
 Alpha  occ. eigenvalues --   -0.30323  -0.30168  -0.27403  -0.26902  -0.23499
 Alpha  occ. eigenvalues --   -0.20746
 Alpha virt. eigenvalues --   -0.04850  -0.03570   0.01753   0.04437   0.05298
 Alpha virt. eigenvalues --    0.05513   0.05939   0.06543   0.06984   0.07438
 Alpha virt. eigenvalues --    0.08730   0.10226   0.10862   0.11502   0.11547

 Mulliken charges:
               1
     1  Mg   0.836780
     2  C    0.045280
     3  C   -0.198141
     4  C   -0.159994
     5  C   -0.203661
     6  N   -0.633613
     7  C    0.342576
     8  C   -0.200982
     9  C   -0.102437
    10  C    0.270399
    11  C   -0.283195
    12  C   -0.208760
    13  C   -0.256773
    14  C    0.585863
    15  O   -0.454874
    16  O   -0.449371
    17  N   -0.688940
    18  C    0.327719
    19  C   -0.030394
    20  C    0.025654
    21  C    0.285954
    22  C   -0.343227
    23  C   -0.106315
    24  C   -0.193148
    25  N   -0.669857
    26  C    0.260034
    27  C    0.030569
    28  C   -0.023390
    29  C    0.290966
    30  C   -0.380402
    31  C   -0.226930
    32  C   -0.293779
    33  N   -0.769801
    34  C    0.289574
    35  C    0.014325
    36  C    0.071851
    37  C    0.302815
    38  C   -0.394397
    39  C    0.365189
    40  O   -0.424838
    41  C   -0.314636
    42  C    0.664500
    43  O   -0.450078
    44  O   -0.453240
    45  C   -0.103612
    46  C    0.013731
    47  C   -0.141672
    48  C    0.148205
    49  C   -0.363517
    50  C   -0.241028
    51  C   -0.169678
    52  C   -0.189593
    53  C   -0.045792
    54  C   -0.308288
    55  C   -0.161098
    56  C   -0.180887
    57  C   -0.170105
    58  C   -0.059337
    59  C   -0.318181
    60  C   -0.169616
    61  C   -0.170242
    62  C   -0.175182
    63  C   -0.049916
    64  C   -0.303368
    65  C   -0.307223
    66  H    0.092620
    67  H    0.092113
    68  H    0.081918
    69  H    0.109251
    70  H    0.120465
    71  H    0.120700
    72  H    0.072580
    73  H    0.126510
    74  H    0.127016
    75  H    0.115805
    76  H    0.129738
    77  H    0.139183
    78  H    0.126357
    79  H    0.124134
    80  H    0.098072
    81  H    0.098428
    82  H    0.083432
    83  H    0.088687
    84  H    0.112327
    85  H    0.097101
    86  H    0.128529
    87  H    0.101482
    88  H    0.111796
    89  H    0.070383
    90  H    0.115216
    91  H    0.120755
    92  H    0.135878
    93  H    0.147118
    94  H    0.110989
    95  H    0.165246
    96  H    0.129481
    97  H    0.110455
    98  H    0.142982
    99  H    0.109470
   100  H    0.088081
   101  H    0.092006
   102  H    0.122432
   103  H    0.112916
   104  H    0.098900
   105  H    0.099614
   106  H    0.099099
   107  H    0.111787
   108  H    0.096338
   109  H    0.069381
   110  H    0.087804
   111  H    0.088127
   112  H    0.099585
   113  H    0.071599
   114  H    0.103881
   115  H    0.082346
   116  H    0.100835
   117  H    0.105283
   118  H    0.097116
   119  H    0.035361
   120  H    0.091982
   121  H    0.090102
   122  H    0.099098
   123  H    0.101411
   124  H    0.098481
   125  H    0.082935
   126  H    0.094199
   127  H    0.075706
   128  H    0.076242
   129  H    0.092346
   130  H    0.096182
   131  H    0.074447
   132  H    0.113320
   133  H    0.105402
   134  H    0.076734
   135  H    0.082975
   136  H    0.095944
   137  H    0.105310
 Sum of Mulliken charges =   0.00000

 Dipole moment (field-independent basis, Debye):
    X=              1.9047    Y=              1.8050    Z=              0.3922  Tot=              2.6532
 Quadrupole moment (field-independent basis, Debye-Ang):
   XX=           -373.8339   YY=           -390.0127   ZZ=           -398.1666
   XY=             -7.6166   XZ=             15.2232   YZ=             -1.5048

 Normal termination of Gaussian 09 at Sun Jun 30 12:23:00 2019.
