 Gaussian 09, Revision D.01,
 Gaussian 09:  ES64L-G09RevD.01 24-Apr-2013

 -------------------------------------
 # td=(NStates=1) CAM-B3LYP/6-31G(d,p)
 -------------------------------------

 --
 TD
 --
 Symbolic Z-matrix:
 Charge =  0 Multiplicity = 1

                         Standard orientation:
 ---------------------------------------------------------------------
 Center     Atomic      Atomic             Coordinates (Angstroms)
 Number     Number       Type             X           Y           Z
 ---------------------------------------------------------------------
      1         12           0       -7.146725    0.578444    0.098463
      2          6           0       -4.766280   -1.898734    0.520971
      3          6           0       -4.778337    2.967941    1.071432
      4          6           0       -9.430401    2.964205   -0.363630
      5          6           0       -9.454273   -1.747225   -0.688802
      6          7           0       -5.024001    0.509477    0.757708
      7          6           0       -4.283804   -0.671431    0.640738
      8          6           0       -2.938961   -0.373033    1.137016
      9          6           0       -2.990216    1.158606    1.647013
     10          6           0       -4.332090    1.600175    1.131253
     11          6           0       -3.024368    1.286623    3.167663
     12          6           0       -1.818521   -0.550028    0.036980
     13          6           0       -0.385809   -0.447474    0.388608
     14          6           0        0.547116   -0.638346   -0.653705
     15          8           0        0.265432   -0.996047   -1.771697
     16          8           0        1.785239   -0.499560   -0.163998
     17          7           0       -7.152013    2.625431    0.372546
     18          6           0       -6.085454    3.423852    0.732704
     19          6           0       -6.400534    4.797938    0.834502
     20          6           0       -7.792068    4.877445    0.411399
     21          6           0       -8.184053    3.424554    0.076684
     22          6           0       -5.481631    5.923919    1.275091
     23          6           0       -8.700603    5.942093    0.365689
     24          6           0       -8.416135    7.241408    0.071552
     25          7           0       -9.180387    0.660135   -0.503159
     26          6           0       -9.883777    1.774533   -0.634569
     27          6           0      -11.247237    1.434061   -1.065875
     28          6           0      -11.219511    0.038535   -1.205901
     29          6           0       -9.935669   -0.371829   -0.776759
     30          6           0      -12.242462    2.453980   -1.379976
     31          6           0      -12.299992   -0.808921   -1.775011
     32          6           0      -12.187781   -1.262958   -3.159428
     33          7           0       -7.212110   -1.404722   -0.158876
     34          6           0       -8.223510   -2.234778   -0.466024
     35          6           0       -7.717568   -3.601936   -0.515033
     36          6           0       -6.436231   -3.584086   -0.033789
     37          6           0       -6.186792   -2.250767    0.009732
     38          6           0       -8.541913   -4.867519   -0.816915
     39          6           0       -5.254311   -4.322967    0.269826
     40          8           0       -5.077629   -5.515610    0.232251
     41          6           0       -4.085671   -3.324270    0.550558
     42          6           0       -3.462864   -3.569811    1.887071
     43          8           0       -3.773760   -3.076939    2.927608
     44          8           0       -2.608322   -4.689766    1.770644
     45          6           0       -1.968513   -5.031427    3.027684
     46          6           0        2.822906   -0.776442   -1.162464
     47          6           0        4.106705   -0.490550   -0.491451
     48          6           0        5.070461    0.295121   -0.992892
     49          6           0        5.003062    1.055847   -2.310622
     50          6           0        6.444986    0.358033   -0.293115
     51          6           0        7.672271   -0.228445   -1.040498
     52          6           0        8.810449   -0.240720   -0.203387
     53          6           0       10.153939   -0.699463   -0.821631
     54          6           0       10.102471   -2.269573   -1.236551
     55          6           0       11.330810   -0.265491   -0.002624
     56          6           0       12.723634   -0.434482   -0.772487
     57          6           0       13.881147   -0.160264    0.208630
     58          6           0       15.223101   -0.164996   -0.498240
     59          6           0       15.677651   -1.540699   -0.884564
     60          6           0       16.272433    0.478992    0.410297
     61          6           0       17.724242    0.577632   -0.190096
     62          6           0       18.667068    1.378284    0.707380
     63          6           0       20.128414    1.447581    0.275550
     64          6           0       20.321337    2.246712   -1.028632
     65          6           0       21.027955    1.932287    1.382648
     66          1           0       -4.168462    3.742678    1.324975
     67          1           0      -10.359041    3.683220   -0.595490
     68          1           0      -10.437380   -2.476457   -1.185749
     69          1           0       -2.666007   -1.022716    2.106556
     70          1           0       -2.193525    1.719719    1.274011
     71          1           0       -2.028625    0.917751    3.628741
     72          1           0       -3.187735    2.231664    3.620737
     73          1           0       -3.687058    0.510432    3.377719
     74          1           0       -2.088188   -1.448411   -0.581820
     75          1           0       -2.056478    0.098160   -0.624126
     76          1           0       -0.287610    0.605135    0.866874
     77          1           0       -0.224972   -0.953319    1.418003
     78          1           0       -5.068861    6.337404    0.417733
     79          1           0       -6.248946    6.622022    1.637396
     80          1           0       -4.871962    5.588975    2.023546
     81          1           0       -9.665611    5.812931    0.490238
     82          1           0       -9.285866    7.953817    0.059566
     83          1           0       -7.492943    7.630384    0.041694
     84          1           0      -11.732391    3.290876   -2.176654
     85          1           0      -13.196885    1.981831   -1.775908
     86          1           0      -12.463279    2.870317   -0.281013
     87          1           0      -12.306106   -1.606488   -0.970364
     88          1           0      -13.418395   -0.086056   -1.691628
     89          1           0      -13.286200   -1.700336   -3.520767
     90          1           0      -11.754752   -0.485044   -3.803822
     91          1           0      -11.396486   -2.274129   -3.253028
     92          1           0       -8.806038   -4.765599   -1.875509
     93          1           0       -7.830797   -5.752277   -0.527876
     94          1           0       -9.424305   -4.946188   -0.203537
     95          1           0       -3.345545   -3.359255   -0.231445
     96          1           0       -1.347577   -4.140394    3.307674
     97          1           0       -2.853065   -5.585302    3.673330
     98          1           0       -1.512962   -5.937322    2.867733
     99          1           0        2.947839   -1.927546   -1.453143
    100          1           0        2.591158   -0.215960   -2.004293
    101          1           0        4.244472   -1.179280    0.463558
    102          1           0        3.802649    0.948362   -2.555938
    103          1           0        5.333971    1.998659   -1.991396
    104          1           0        5.602921    0.569021   -3.192751
    105          1           0        6.636181    1.338218    0.046697
    106          1           0        6.450910   -0.126984    0.757560
    107          1           0        7.294173   -1.377238   -1.203134
    108          1           0        7.678199    0.312627   -1.863329
    109          1           0        8.983096    0.857784    0.100463
    110          1           0        8.662150   -0.760415    0.798049
    111          1           0       10.397003   -0.171858   -1.695744
    112          1           0        9.256556   -2.641375   -1.753432
    113          1           0       11.002641   -2.468565   -1.851047
    114          1           0        9.912489   -2.733884   -0.215822
    115          1           0       11.353299    0.748122    0.604867
    116          1           0       11.520987   -1.009547    0.809750
    117          1           0       12.894593   -1.329959   -1.269734
    118          1           0       12.736685    0.157021   -1.725891
    119          1           0       13.552674    0.822718    0.681703
    120          1           0       13.838332   -0.726033    1.035587
    121          1           0       15.376937    0.494621   -1.377650
    122          1           0       15.703708   -2.204621   -0.117566
    123          1           0       14.883981   -1.821253   -1.846710
    124          1           0       16.741483   -1.418786   -1.354871
    125          1           0       16.039606    1.619139    0.727934
    126          1           0       16.508247   -0.048219    1.350681
    127          1           0       18.036746   -0.314069   -0.417472
    128          1           0       17.615720    1.297681   -1.048954
    129          1           0       18.334150    2.317307    0.880037
    130          1           0       18.752877    0.940353    1.712399
    131          1           0       20.538523    0.266513    0.083474
    132          1           0       20.226166    3.344372   -0.864024
    133          1           0       21.344614    2.229381   -1.558056
    134          1           0       19.490149    1.864386   -1.562913
    135          1           0       21.043528    1.331668    2.288150
    136          1           0       22.091499    1.974585    1.005875
    137          1           0       20.956804    3.024690    1.677735
 ---------------------------------------------------------------------

 SCF Done:  E(RCAM-B3LYP) =  -2932.59453928     A.U. after   17 cycles

 Excitation energies and oscillator strengths:

 Excited State   1:      Singlet-A      1.9119 eV  648.47 nm  f=0.2976  <S**2>=0.000
     240 -> 243        0.18104
     241 -> 242        0.67063
 This state for optimization and/or second-order correction.
 Total Energy, E(TD-HF/TD-KS) =  -2932.52427654
 Copying the excited state density for this state as the 1-particle RhoCI density.

 The electronic state is 1-A.
 Alpha  occ. eigenvalues --  -46.85427 -19.26347 -19.24968 -19.21815 -19.21032
 Alpha  occ. eigenvalues --  -19.20890 -14.41080 -14.39983 -14.39327 -14.38514
 Alpha  occ. eigenvalues --  -10.39208 -10.38699 -10.35762 -10.32040 -10.31472
 Alpha  occ. eigenvalues --  -10.31091 -10.29813 -10.29636 -10.29618 -10.29611
 Alpha  occ. eigenvalues --  -10.29448 -10.28993 -10.28876 -10.28786 -10.28764
 Alpha  occ. eigenvalues --  -10.28609 -10.28456 -10.28353 -10.27951 -10.27760
 Alpha  occ. eigenvalues --  -10.27687 -10.27630 -10.27534 -10.27418 -10.27170
 Alpha  occ. eigenvalues --  -10.27155 -10.27133 -10.26761 -10.26552 -10.26478
 Alpha  occ. eigenvalues --  -10.26409 -10.26170 -10.26144 -10.25967 -10.25873
 Alpha  occ. eigenvalues --  -10.25800 -10.25747 -10.25719 -10.25645 -10.25617
 Alpha  occ. eigenvalues --  -10.25595 -10.25567 -10.25414 -10.25358 -10.25327
 Alpha  occ. eigenvalues --  -10.25180 -10.25115 -10.25007 -10.24917 -10.24680
 Alpha  occ. eigenvalues --  -10.24537 -10.24474 -10.24449 -10.24078 -10.23838
 Alpha  occ. eigenvalues --   -3.14239  -1.88969  -1.88460  -1.88412  -1.18705
 Alpha  occ. eigenvalues --   -1.16973  -1.12368  -1.09680  -1.09130  -1.06501
 Alpha  occ. eigenvalues --   -1.05245  -1.03405  -1.02603  -0.92789  -0.91638
 Alpha  occ. eigenvalues --   -0.91010  -0.90398  -0.89668  -0.89464  -0.89033
 Alpha  occ. eigenvalues --   -0.88793  -0.88701  -0.88515  -0.87010  -0.86552
 Alpha  occ. eigenvalues --   -0.85829  -0.84802  -0.84497  -0.83359  -0.83204
 Alpha  occ. eigenvalues --   -0.81947  -0.81036  -0.80484  -0.80195  -0.78213
 Alpha  occ. eigenvalues --   -0.77770  -0.77073  -0.76434  -0.75658  -0.75581
 Alpha  occ. eigenvalues --   -0.75111  -0.75019  -0.74466  -0.73542  -0.72750
 Alpha  occ. eigenvalues --   -0.71263  -0.70851  -0.69833  -0.69448  -0.68526
 Alpha  occ. eigenvalues --   -0.67891  -0.67194  -0.65975  -0.65197  -0.64798
 Alpha  occ. eigenvalues --   -0.64045  -0.63720  -0.63412  -0.62812  -0.61670
 Alpha  occ. eigenvalues --   -0.61482  -0.61349  -0.60790  -0.59866  -0.59143
 Alpha  occ. eigenvalues --   -0.58705  -0.58170  -0.57917  -0.57627  -0.56615
 Alpha  occ. eigenvalues --   -0.56410  -0.55451  -0.55182  -0.54872  -0.54792
 Alpha  occ. eigenvalues --   -0.54548  -0.54446  -0.54184  -0.53898  -0.53566
 Alpha  occ. eigenvalues --   -0.53263  -0.53087  -0.52487  -0.52108  -0.51764
 Alpha  occ. eigenvalues --   -0.51666  -0.51424  -0.51281  -0.51038  -0.50914
 Alpha  occ. eigenvalues --   -0.50760  -0.50414  -0.50274  -0.50041  -0.49731
 Alpha  occ. eigenvalues --   -0.49550  -0.49350  -0.48930  -0.48723  -0.48661
 Alpha  occ. eigenvalues --   -0.48489  -0.48023  -0.47965  -0.47584  -0.47472
 Alpha  occ. eigenvalues --   -0.47377  -0.47093  -0.46949  -0.46617  -0.46236
 Alpha  occ. eigenvalues --   -0.46036  -0.45923  -0.45594  -0.45445  -0.45418
 Alpha  occ. eigenvalues --   -0.45296  -0.44903  -0.44785  -0.44619  -0.44265
 Alpha  occ. eigenvalues --   -0.44136  -0.43990  -0.43799  -0.43515  -0.43282
 Alpha  occ. eigenvalues --   -0.43197  -0.42749  -0.42613  -0.42491  -0.42193
 Alpha  occ. eigenvalues --   -0.42113  -0.41751  -0.41735  -0.41202  -0.40948
 Alpha  occ. eigenvalues --   -0.40845  -0.40574  -0.40350  -0.40308  -0.39974
 Alpha  occ. eigenvalues --   -0.39841  -0.39738  -0.39202  -0.39012  -0.38983
 Alpha  occ. eigenvalues --   -0.38790  -0.38156  -0.38063  -0.37675  -0.37531
 Alpha  occ. eigenvalues --   -0.37141  -0.37054  -0.37013  -0.36911  -0.36350
 Alpha  occ. eigenvalues --   -0.36194  -0.36094  -0.35555  -0.35250  -0.35221
 Alpha  occ. eigenvalues --   -0.35092  -0.34928  -0.34637  -0.34286  -0.34147
 Alpha  occ. eigenvalues --   -0.33423  -0.33020  -0.32798  -0.31258  -0.31094
 Alpha  occ. eigenvalues --   -0.30399  -0.29899  -0.27823  -0.26862  -0.23647
 Alpha  occ. eigenvalues --   -0.20359
 Alpha virt. eigenvalues --   -0.06784  -0.03075   0.01320   0.03850   0.05410
 Alpha virt. eigenvalues --    0.05565   0.05944   0.06219   0.06555   0.06824
 Alpha virt. eigenvalues --    0.08431   0.08875   0.10280   0.11249   0.11342

 Mulliken charges:
               1
     1  Mg   0.831887
     2  C    0.071736
     3  C   -0.187257
     4  C   -0.196845
     5  C   -0.203714
     6  N   -0.635826
     7  C    0.286426
     8  C   -0.211642
     9  C   -0.150532
    10  C    0.338633
    11  C   -0.303396
    12  C   -0.162552
    13  C   -0.295048
    14  C    0.655118
    15  O   -0.482646
    16  O   -0.482219
    17  N   -0.712124
    18  C    0.320450
    19  C   -0.011436
    20  C    0.008196
    21  C    0.308901
    22  C   -0.348571
    23  C   -0.093345
    24  C   -0.233673
    25  N   -0.700439
    26  C    0.336372
    27  C    0.042758
    28  C    0.001251
    29  C    0.317204
    30  C   -0.370936
    31  C   -0.216129
    32  C   -0.265770
    33  N   -0.702331
    34  C    0.335822
    35  C   -0.049799
    36  C    0.102528
    37  C    0.217573
    38  C   -0.365555
    39  C    0.364580
    40  O   -0.444987
    41  C   -0.302246
    42  C    0.630805
    43  O   -0.442870
    44  O   -0.488886
    45  C   -0.068597
    46  C    0.011327
    47  C   -0.115330
    48  C    0.089543
    49  C   -0.336137
    50  C   -0.246910
    51  C   -0.129207
    52  C   -0.172349
    53  C   -0.063651
    54  C   -0.320192
    55  C   -0.181298
    56  C   -0.197103
    57  C   -0.160071
    58  C   -0.056572
    59  C   -0.285497
    60  C   -0.182168
    61  C   -0.183365
    62  C   -0.171651
    63  C   -0.038165
    64  C   -0.305564
    65  C   -0.311839
    66  H    0.060831
    67  H    0.076429
    68  H    0.070528
    69  H    0.105048
    70  H    0.099410
    71  H    0.083799
    72  H    0.117997
    73  H    0.139432
    74  H    0.104702
    75  H    0.123627
    76  H    0.129295
    77  H    0.137082
    78  H    0.141900
    79  H    0.124032
    80  H    0.126524
    81  H    0.090931
    82  H    0.094132
    83  H    0.094960
    84  H    0.110124
    85  H    0.111836
    86  H    0.118247
    87  H    0.110295
    88  H    0.052514
    89  H    0.094000
    90  H    0.124512
    91  H    0.066683
    92  H    0.128292
    93  H    0.136733
    94  H    0.132775
    95  H    0.172183
    96  H    0.129208
    97  H    0.107037
    98  H    0.134788
    99  H    0.115165
   100  H    0.131201
   101  H    0.094374
   102  H    0.083854
   103  H    0.130499
   104  H    0.122816
   105  H    0.100435
   106  H    0.080008
   107  H    0.071556
   108  H    0.104143
   109  H    0.074916
   110  H    0.088234
   111  H    0.090459
   112  H    0.115636
   113  H    0.106933
   114  H    0.095748
   115  H    0.088492
   116  H    0.085515
   117  H    0.101026
   118  H    0.077807
   119  H    0.079257
   120  H    0.105294
   121  H    0.090948
   122  H    0.118615
   123  H    0.066114
   124  H    0.095840
   125  H    0.065910
   126  H    0.082096
   127  H    0.103566
   128  H    0.088411
   129  H    0.101009
   130  H    0.083323
   131  H    0.045250
   132  H    0.094658
   133  H    0.095954
   134  H    0.107106
   135  H    0.102604
   136  H    0.091764
   137  H    0.088909
 Sum of Mulliken charges =   0.00000

 Dipole moment (field-independent basis, Debye):
    X=              1.7448    Y=              3.9465    Z=              0.2880  Tot=              4.3246
 Quadrupole moment (field-independent basis, Debye-Ang):
   XX=           -357.3287   YY=           -395.5400   ZZ=           -399.2003
   XY=            -17.2360   XZ=             11.7035   YZ=             -1.5679

 Normal termination of Gaussian 09 at Sun Jun 30 12:42:19 2019.
