 Gaussian 09, Revision D.01,
 Gaussian 09:  ES64L-G09RevD.01 24-Apr-2013

 -------------------------------------
 # td=(NStates=1) CAM-B3LYP/6-31G(d,p)
 -------------------------------------

 --
 TD
 --
 Symbolic Z-matrix:
 Charge =  0 Multiplicity = 1

                         Standard orientation:
 ---------------------------------------------------------------------
 Center     Atomic      Atomic             Coordinates (Angstroms)
 Number     Number       Type             X           Y           Z
 ---------------------------------------------------------------------
      1         12           0       -7.196980    0.607462    0.200770
      2          6           0       -4.786618   -1.920904    0.534976
      3          6           0       -4.842362    2.838182    1.241313
      4          6           0       -9.491956    3.108579   -0.311589
      5          6           0       -9.567931   -1.751198   -0.821110
      6          7           0       -5.096309    0.447487    0.755280
      7          6           0       -4.319842   -0.633929    0.758128
      8          6           0       -2.807897   -0.469521    1.242475
      9          6           0       -2.978763    1.071591    1.770219
     10          6           0       -4.439358    1.488737    1.204362
     11          6           0       -2.939428    1.089141    3.231214
     12          6           0       -1.978821   -0.544343    0.064757
     13          6           0       -0.483156   -0.301642    0.451661
     14          6           0        0.563976   -0.702289   -0.619292
     15          8           0        0.209828   -1.042532   -1.707531
     16          8           0        1.741433   -0.423436   -0.221924
     17          7           0       -7.149390    2.635988    0.581910
     18          6           0       -6.058880    3.327231    0.895327
     19          6           0       -6.457674    4.806054    0.834106
     20          6           0       -7.790849    4.913123    0.413933
     21          6           0       -8.181710    3.483349    0.144302
     22          6           0       -5.497767    5.960300    1.218862
     23          6           0       -8.565317    6.107343    0.229413
     24          6           0       -8.094534    7.296207   -0.121555
     25          7           0       -9.072118    0.690127   -0.448207
     26          6           0       -9.861721    1.745832   -0.631425
     27          6           0      -11.232960    1.484702   -0.963712
     28          6           0      -11.255978    0.153789   -1.176531
     29          6           0       -9.954844   -0.380262   -0.822569
     30          6           0      -12.294732    2.515718   -1.353213
     31          6           0      -12.345340   -0.670985   -1.724949
     32          6           0      -12.265999   -0.841215   -3.228856
     33          7           0       -7.293361   -1.423660   -0.167138
     34          6           0       -8.198613   -2.336244   -0.616309
     35          6           0       -7.697816   -3.638493   -0.569219
     36          6           0       -6.465924   -3.590076   -0.183564
     37          6           0       -6.227493   -2.217473    0.139545
     38          6           0       -8.543535   -4.846944   -1.065892
     39          6           0       -5.273432   -4.347210    0.161430
     40          8           0       -5.138994   -5.525710   -0.071060
     41          6           0       -4.206895   -3.313527    0.606358
     42          6           0       -3.678965   -3.750491    1.928184
     43          8           0       -3.819765   -3.112195    2.934209
     44          8           0       -2.968573   -4.776817    1.813881
     45          6           0       -2.188151   -5.290686    3.001238
     46          6           0        2.756687   -0.582390   -1.224010
     47          6           0        4.110953   -0.502985   -0.520508
     48          6           0        5.180772    0.258213   -0.970351
     49          6           0        5.128796    1.169040   -2.217463
     50          6           0        6.461462    0.180304   -0.089646
     51          6           0        7.712013   -0.372462   -0.898165
     52          6           0        8.955661   -0.243535   -0.118659
     53          6           0       10.182930   -0.698510   -0.899751
     54          6           0       10.249223   -2.290303   -1.181778
     55          6           0       11.450682   -0.365684   -0.093556
     56          6           0       12.842322   -0.675433   -0.678797
     57          6           0       13.954193   -0.167982    0.170654
     58          6           0       15.359142   -0.187573   -0.526896
     59          6           0       15.795120   -1.565621   -1.035300
     60          6           0       16.383694    0.532729    0.280760
     61          6           0       17.787141    0.707803   -0.192299
     62          6           0       18.737853    1.507069    0.742202
     63          6           0       20.200508    1.553810    0.267142
     64          6           0       20.321733    2.204996   -1.087744
     65          6           0       21.139873    2.138073    1.393453
     66          1           0       -4.037308    3.461574    1.687953
     67          1           0      -10.245853    3.861584   -0.506029
     68          1           0      -10.456946   -2.391008   -1.094177
     69          1           0       -2.744174   -1.187264    1.905821
     70          1           0       -2.083638    1.701235    1.173254
     71          1           0       -1.879958    1.026898    3.815761
     72          1           0       -3.223492    2.191330    3.618437
     73          1           0       -3.639034    0.360153    3.661161
     74          1           0       -2.024839   -1.561904   -0.415140
     75          1           0       -2.129465    0.295691   -0.767474
     76          1           0       -0.260083    0.608842    0.838347
     77          1           0       -0.206387   -1.008743    1.389476
     78          1           0       -4.682832    6.212997    0.509028
     79          1           0       -5.908966    6.906958    1.484199
     80          1           0       -4.851350    5.546481    2.223957
     81          1           0       -9.666117    5.765250    0.182697
     82          1           0       -8.637923    8.223953   -0.083040
     83          1           0       -7.051917    7.458588   -0.473229
     84          1           0      -12.213410    2.926980   -2.399611
     85          1           0      -13.215697    2.007055   -1.532045
     86          1           0      -12.496493    3.133498   -0.572851
     87          1           0      -12.204812   -1.660176   -1.356766
     88          1           0      -13.331319   -0.225470   -1.557925
     89          1           0      -12.997610   -1.552251   -3.316100
     90          1           0      -12.774291   -0.044797   -3.803240
     91          1           0      -11.208272   -1.058971   -3.716177
     92          1           0       -8.985252   -4.806840   -2.185403
     93          1           0       -7.887877   -5.728565   -1.172674
     94          1           0       -9.458856   -5.095999   -0.452071
     95          1           0       -3.448806   -3.382222   -0.175261
     96          1           0       -1.918828   -4.394909    3.536159
     97          1           0       -2.931584   -5.816892    3.641176
     98          1           0       -1.402632   -5.793667    2.392733
     99          1           0        2.470079   -1.670968   -1.652014
    100          1           0        2.683768   -0.077685   -2.123350
    101          1           0        4.037586   -0.997806    0.517932
    102          1           0        4.034706    1.278933   -2.580891
    103          1           0        5.474909    2.078459   -1.909169
    104          1           0        5.829412    0.715112   -2.943749
    105          1           0        7.003497    1.223608   -0.075516
    106          1           0        6.190721   -0.210202    0.838351
    107          1           0        7.570834   -1.275272   -1.262672
    108          1           0        7.701631    0.265101   -1.772483
    109          1           0        9.074331    0.721913    0.387548
    110          1           0        8.791022   -0.886870    0.732318
    111          1           0       10.193740   -0.246078   -1.743067
    112          1           0        9.285966   -2.505508   -1.901008
    113          1           0       11.144166   -2.646873   -1.687080
    114          1           0        9.874697   -2.962183   -0.175686
    115          1           0       11.389623    0.866626    0.086468
    116          1           0       11.254987   -0.654060    0.980422
    117          1           0       12.761244   -1.853355   -0.621178
    118          1           0       12.845843   -0.341770   -1.797194
    119          1           0       13.811526    0.790606    0.398074
    120          1           0       14.095715   -0.701702    1.013161
    121          1           0       15.246216    0.457872   -1.393417
    122          1           0       15.779850   -2.279911   -0.098661
    123          1           0       15.063199   -2.097470   -1.412619
    124          1           0       16.547230   -1.742018   -1.602352
    125          1           0       15.997190    1.446472    0.696465
    126          1           0       16.484181   -0.249650    1.176992
    127          1           0       18.230987   -0.293127   -0.314780
    128          1           0       17.741677    1.106854   -1.284274
    129          1           0       18.369556    2.515149    0.996276
    130          1           0       18.451961    0.870966    1.750077
    131          1           0       20.564237    0.239070    0.084281
    132          1           0       20.273568    3.358221   -1.184296
    133          1           0       21.360442    1.970061   -1.453909
    134          1           0       19.415207    1.797114   -1.798612
    135          1           0       20.821735    1.617433    2.412336
    136          1           0       22.243735    1.872971    1.271315
    137          1           0       20.748779    3.174924    1.634415
 ---------------------------------------------------------------------

 SCF Done:  E(RCAM-B3LYP) =  -2932.62177899     A.U. after   17 cycles

 Excitation energies and oscillator strengths:

 Excited State   1:      Singlet-A      2.1903 eV  566.05 nm  f=0.2284  <S**2>=0.000
     240 -> 242       -0.22407
     240 -> 243        0.21183
     241 -> 242        0.60875
     241 -> 243        0.16069
 This state for optimization and/or second-order correction.
 Total Energy, E(TD-HF/TD-KS) =  -2932.54128608
 Copying the excited state density for this state as the 1-particle RhoCI density.

 The electronic state is 1-A.
 Alpha  occ. eigenvalues --  -46.84900 -19.27417 -19.26130 -19.19936 -19.19585
 Alpha  occ. eigenvalues --  -19.19032 -14.41929 -14.39795 -14.39428 -14.38851
 Alpha  occ. eigenvalues --  -10.38189 -10.37674 -10.34133 -10.32856 -10.32281
 Alpha  occ. eigenvalues --  -10.31580 -10.30892 -10.30538 -10.29422 -10.29406
 Alpha  occ. eigenvalues --  -10.29121 -10.29087 -10.28855 -10.28798 -10.28742
 Alpha  occ. eigenvalues --  -10.28211 -10.27880 -10.27864 -10.27863 -10.27783
 Alpha  occ. eigenvalues --  -10.27503 -10.27426 -10.27230 -10.27212 -10.27171
 Alpha  occ. eigenvalues --  -10.26926 -10.26907 -10.26905 -10.26851 -10.26819
 Alpha  occ. eigenvalues --  -10.26720 -10.26701 -10.26580 -10.26550 -10.26528
 Alpha  occ. eigenvalues --  -10.26527 -10.26406 -10.26015 -10.26012 -10.25941
 Alpha  occ. eigenvalues --  -10.25736 -10.25697 -10.25680 -10.25585 -10.25561
 Alpha  occ. eigenvalues --  -10.25522 -10.25468 -10.25456 -10.25156 -10.24920
 Alpha  occ. eigenvalues --  -10.24881 -10.24569 -10.23411 -10.22894 -10.22564
 Alpha  occ. eigenvalues --   -3.13851  -1.88558  -1.88109  -1.88011  -1.21385
 Alpha  occ. eigenvalues --   -1.20351  -1.10797  -1.10278  -1.08894  -1.05252
 Alpha  occ. eigenvalues --   -1.03640  -1.03201  -1.02387  -0.91688  -0.91624
 Alpha  occ. eigenvalues --   -0.90917  -0.89984  -0.89877  -0.89389  -0.89201
 Alpha  occ. eigenvalues --   -0.88138  -0.87577  -0.86858  -0.86040  -0.85812
 Alpha  occ. eigenvalues --   -0.84797  -0.84117  -0.83642  -0.83072  -0.82411
 Alpha  occ. eigenvalues --   -0.82056  -0.81050  -0.80645  -0.79961  -0.78387
 Alpha  occ. eigenvalues --   -0.77338  -0.76947  -0.76651  -0.76441  -0.75925
 Alpha  occ. eigenvalues --   -0.74808  -0.73977  -0.73924  -0.73099  -0.71882
 Alpha  occ. eigenvalues --   -0.70920  -0.70020  -0.69089  -0.68492  -0.68096
 Alpha  occ. eigenvalues --   -0.67407  -0.67218  -0.65918  -0.65700  -0.64619
 Alpha  occ. eigenvalues --   -0.64191  -0.63728  -0.62996  -0.62695  -0.62055
 Alpha  occ. eigenvalues --   -0.60336  -0.60285  -0.60003  -0.59633  -0.58905
 Alpha  occ. eigenvalues --   -0.58257  -0.58212  -0.57643  -0.57091  -0.56979
 Alpha  occ. eigenvalues --   -0.56275  -0.56261  -0.56125  -0.55785  -0.54897
 Alpha  occ. eigenvalues --   -0.54217  -0.54089  -0.53388  -0.53165  -0.52916
 Alpha  occ. eigenvalues --   -0.52830  -0.52792  -0.52512  -0.52001  -0.51745
 Alpha  occ. eigenvalues --   -0.51340  -0.51123  -0.50949  -0.50744  -0.50498
 Alpha  occ. eigenvalues --   -0.50323  -0.50258  -0.49930  -0.49655  -0.49254
 Alpha  occ. eigenvalues --   -0.49228  -0.49137  -0.48753  -0.48673  -0.48273
 Alpha  occ. eigenvalues --   -0.48154  -0.47869  -0.47652  -0.47433  -0.47117
 Alpha  occ. eigenvalues --   -0.46672  -0.46559  -0.46145  -0.45973  -0.45876
 Alpha  occ. eigenvalues --   -0.45736  -0.45326  -0.45012  -0.44988  -0.44870
 Alpha  occ. eigenvalues --   -0.44740  -0.44543  -0.44386  -0.44295  -0.44148
 Alpha  occ. eigenvalues --   -0.44041  -0.43721  -0.43649  -0.43457  -0.43249
 Alpha  occ. eigenvalues --   -0.43038  -0.42778  -0.42573  -0.42407  -0.42361
 Alpha  occ. eigenvalues --   -0.41858  -0.41709  -0.41478  -0.41463  -0.41323
 Alpha  occ. eigenvalues --   -0.40861  -0.40697  -0.40441  -0.40333  -0.40092
 Alpha  occ. eigenvalues --   -0.39939  -0.39723  -0.39626  -0.39375  -0.39036
 Alpha  occ. eigenvalues --   -0.38830  -0.38599  -0.38492  -0.38096  -0.37717
 Alpha  occ. eigenvalues --   -0.37582  -0.37047  -0.37026  -0.36650  -0.36567
 Alpha  occ. eigenvalues --   -0.36441  -0.35985  -0.35854  -0.35163  -0.35069
 Alpha  occ. eigenvalues --   -0.34928  -0.34522  -0.34515  -0.33716  -0.33320
 Alpha  occ. eigenvalues --   -0.32952  -0.32334  -0.31394  -0.30442  -0.29750
 Alpha  occ. eigenvalues --   -0.29202  -0.28807  -0.28740  -0.27264  -0.22548
 Alpha  occ. eigenvalues --   -0.20892
 Alpha virt. eigenvalues --   -0.05685  -0.02254   0.02144   0.03848   0.05263
 Alpha virt. eigenvalues --    0.06249   0.06558   0.06969   0.08136   0.08594
 Alpha virt. eigenvalues --    0.09145   0.10423   0.10925   0.11797   0.11911

 Mulliken charges:
               1
     1  Mg   0.831483
     2  C    0.075945
     3  C   -0.212828
     4  C   -0.190722
     5  C   -0.181964
     6  N   -0.607253
     7  C    0.234791
     8  C   -0.087926
     9  C   -0.143494
    10  C    0.333059
    11  C   -0.292537
    12  C   -0.162015
    13  C   -0.273042
    14  C    0.594374
    15  O   -0.477416
    16  O   -0.422663
    17  N   -0.713497
    18  C    0.381983
    19  C   -0.011870
    20  C    0.024971
    21  C    0.279948
    22  C   -0.367102
    23  C   -0.050895
    24  C   -0.260621
    25  N   -0.685357
    26  C    0.308833
    27  C   -0.000331
    28  C    0.059178
    29  C    0.258304
    30  C   -0.364668
    31  C   -0.254644
    32  C   -0.307955
    33  N   -0.673269
    34  C    0.236156
    35  C   -0.011439
    36  C    0.061849
    37  C    0.225177
    38  C   -0.375686
    39  C    0.363930
    40  O   -0.451045
    41  C   -0.337935
    42  C    0.602856
    43  O   -0.500672
    44  O   -0.422311
    45  C   -0.101671
    46  C   -0.004952
    47  C   -0.140616
    48  C    0.089435
    49  C   -0.354883
    50  C   -0.215970
    51  C   -0.183778
    52  C   -0.178772
    53  C   -0.028773
    54  C   -0.313316
    55  C   -0.172680
    56  C   -0.176556
    57  C   -0.153068
    58  C   -0.078522
    59  C   -0.304572
    60  C   -0.160225
    61  C   -0.175189
    62  C   -0.159475
    63  C   -0.011504
    64  C   -0.290871
    65  C   -0.311971
    66  H    0.090041
    67  H    0.091356
    68  H    0.086555
    69  H    0.120919
    70  H    0.081063
    71  H    0.096264
    72  H    0.081445
    73  H    0.141027
    74  H    0.117105
    75  H    0.105528
    76  H    0.134163
    77  H    0.089288
    78  H    0.124306
    79  H    0.129729
    80  H    0.076596
    81  H    0.089134
    82  H    0.109929
    83  H    0.111689
    84  H    0.126809
    85  H    0.110022
    86  H    0.129031
    87  H    0.111911
    88  H    0.110102
    89  H    0.116606
    90  H    0.099015
    91  H    0.111711
    92  H    0.094873
    93  H    0.138996
    94  H    0.113813
    95  H    0.171393
    96  H    0.152701
    97  H    0.153546
    98  H    0.150733
    99  H    0.108853
   100  H    0.131980
   101  H    0.094614
   102  H    0.108728
   103  H    0.135580
   104  H    0.127598
   105  H    0.084754
   106  H    0.105044
   107  H    0.110788
   108  H    0.087458
   109  H    0.093617
   110  H    0.097536
   111  H    0.097082
   112  H    0.073775
   113  H    0.122953
   114  H    0.078109
   115  H    0.034191
   116  H    0.090197
   117  H    0.085232
   118  H    0.088015
   119  H    0.102452
   120  H    0.104944
   121  H    0.076438
   122  H    0.064484
   123  H    0.113014
   124  H    0.113700
   125  H    0.088824
   126  H    0.056113
   127  H    0.104643
   128  H    0.068350
   129  H    0.091587
   130  H    0.071636
   131  H    0.020814
   132  H    0.092949
   133  H    0.104705
   134  H    0.091715
   135  H    0.091125
   136  H    0.110259
   137  H    0.104990
 Sum of Mulliken charges =   0.00000

 Dipole moment (field-independent basis, Debye):
    X=              2.2000    Y=              4.6047    Z=              0.3319  Tot=              5.1141
 Quadrupole moment (field-independent basis, Debye-Ang):
   XX=           -345.9184   YY=           -390.5502   ZZ=           -397.0771
   XY=            -24.0140   XZ=             10.4676   YZ=            -10.8076

 Normal termination of Gaussian 09 at Sat Jun 29 15:19:53 2019.
