 Gaussian 09, Revision D.01,
 Gaussian 09:  ES64L-G09RevD.01 24-Apr-2013

 -------------------------------------
 # td=(NStates=1) CAM-B3LYP/6-31G(d,p)
 -------------------------------------

 --
 TD
 --
 Symbolic Z-matrix:
 Charge =  0 Multiplicity = 1

                         Standard orientation:
 ---------------------------------------------------------------------
 Center     Atomic      Atomic             Coordinates (Angstroms)
 Number     Number       Type             X           Y           Z
 ---------------------------------------------------------------------
      1         12           0       -7.101689    0.605405    0.040935
      2          6           0       -4.895978   -1.945723    0.428541
      3          6           0       -4.732018    2.784939    1.057306
      4          6           0       -9.351563    3.153191   -0.254808
      5          6           0       -9.520402   -1.706665   -0.775099
      6          7           0       -5.100008    0.388404    0.815924
      7          6           0       -4.335668   -0.752315    0.875315
      8          6           0       -2.862366   -0.396030    1.261850
      9          6           0       -2.965548    1.101826    1.642520
     10          6           0       -4.348160    1.458797    1.148623
     11          6           0       -3.035168    1.248994    3.199243
     12          6           0       -1.950911   -0.621491    0.180008
     13          6           0       -0.417299   -0.591810    0.568326
     14          6           0        0.527278   -0.716108   -0.542291
     15          8           0        0.134340   -0.987938   -1.669939
     16          8           0        1.770342   -0.452620   -0.145127
     17          7           0       -7.014391    2.594473    0.338685
     18          6           0       -6.003376    3.341414    0.799615
     19          6           0       -6.314762    4.803454    0.840005
     20          6           0       -7.681362    4.817951    0.538589
     21          6           0       -8.100576    3.405771    0.117272
     22          6           0       -5.502651    5.999979    1.286247
     23          6           0       -8.555653    5.993368    0.341124
     24          6           0       -8.145996    7.257825    0.184489
     25          7           0       -9.127068    0.758530   -0.484442
     26          6           0       -9.892864    1.909914   -0.548890
     27          6           0      -11.209811    1.528461   -1.019412
     28          6           0      -11.190429    0.081798   -1.284417
     29          6           0       -9.922659   -0.373045   -0.815760
     30          6           0      -12.316001    2.473146   -1.340297
     31          6           0      -12.261561   -0.714328   -1.814317
     32          6           0      -12.002811   -1.000757   -3.277680
     33          7           0       -7.223175   -1.343626   -0.197740
     34          6           0       -8.314040   -2.233282   -0.462326
     35          6           0       -7.874702   -3.526989   -0.416512
     36          6           0       -6.542415   -3.600522   -0.019622
     37          6           0       -6.244891   -2.164900    0.168680
     38          6           0       -8.681783   -4.836035   -0.981592
     39          6           0       -5.370755   -4.480448    0.195693
     40          8           0       -5.178424   -5.618362    0.141720
     41          6           0       -4.185782   -3.297930    0.523710
     42          6           0       -3.580470   -3.728587    1.856522
     43          8           0       -3.826080   -3.220580    2.949491
     44          8           0       -2.694671   -4.739587    1.610666
     45          6           0       -2.142936   -5.331483    2.818900
     46          6           0        2.798543   -0.591754   -1.167096
     47          6           0        4.165878   -0.436889   -0.592958
     48          6           0        5.223276    0.447223   -1.036111
     49          6           0        4.986352    1.306110   -2.201652
     50          6           0        6.497706    0.414878   -0.275307
     51          6           0        7.640378   -0.333241   -1.020831
     52          6           0        8.859508   -0.116795   -0.105508
     53          6           0       10.122257   -0.615304   -0.880209
     54          6           0       10.062397   -2.137393   -1.345105
     55          6           0       11.384725   -0.336991   -0.086107
     56          6           0       12.722271   -0.423726   -0.772238
     57          6           0       13.888163   -0.156398    0.301571
     58          6           0       15.278418   -0.173801   -0.346250
     59          6           0       15.481785   -1.529928   -1.025943
     60          6           0       16.409489    0.229791    0.543844
     61          6           0       17.743670    0.647978   -0.229465
     62          6           0       18.768931    1.335171    0.779037
     63          6           0       20.227301    1.398744    0.208650
     64          6           0       20.295893    2.342056   -1.038676
     65          6           0       21.217650    1.785514    1.301318
     66          1           0       -3.881953    3.574206    1.328863
     67          1           0      -10.142838    4.004135   -0.416549
     68          1           0      -10.297818   -2.365850   -1.069253
     69          1           0       -2.582680   -0.860819    2.149834
     70          1           0       -1.964834    1.683251    1.457479
     71          1           0       -2.061205    0.845336    3.598896
     72          1           0       -3.330443    2.348800    3.488273
     73          1           0       -4.015548    0.664322    3.752599
     74          1           0       -2.189407   -1.679781   -0.320281
     75          1           0       -2.023343   -0.070889   -0.586702
     76          1           0       -0.080796    0.313922    1.192581
     77          1           0       -0.257201   -1.462651    1.306951
     78          1           0       -4.964737    6.359315    0.258932
     79          1           0       -6.169828    6.796824    1.621134
     80          1           0       -4.672568    5.552567    1.994322
     81          1           0       -9.580603    5.985314    0.556043
     82          1           0       -8.881926    7.977973    0.243213
     83          1           0       -7.154892    7.521730    0.003172
     84          1           0      -11.638449    3.276673   -2.006424
     85          1           0      -13.105386    1.986625   -1.966751
     86          1           0      -12.644679    2.926090   -0.240375
     87          1           0      -12.305419   -1.786269   -1.443251
     88          1           0      -13.334752   -0.116114   -1.902036
     89          1           0      -12.665144   -1.989693   -3.829602
     90          1           0      -12.382003   -0.068305   -4.012967
     91          1           0      -11.186633   -1.273386   -3.587439
     92          1           0       -9.143002   -4.495961   -2.060191
     93          1           0       -7.911097   -5.737223   -1.077357
     94          1           0       -9.431130   -4.934916   -0.200025
     95          1           0       -3.541338   -3.546612   -0.331016
     96          1           0       -1.484937   -4.559275    3.211196
     97          1           0       -3.054493   -5.511329    3.459203
     98          1           0       -1.359791   -6.109648    2.601543
     99          1           0        2.720531   -1.674701   -1.527857
    100          1           0        2.459373    0.206271   -1.949876
    101          1           0        4.336636   -0.868332    0.275443
    102          1           0        3.902864    1.634396   -2.505846
    103          1           0        5.355189    2.323420   -1.978315
    104          1           0        5.370910    0.890150   -3.020810
    105          1           0        6.759983    1.577519   -0.031354
    106          1           0        6.153817   -0.168532    0.738595
    107          1           0        7.389819   -1.422231   -1.189257
    108          1           0        7.747418    0.176417   -2.078948
    109          1           0        8.937874    0.985332   -0.011294
    110          1           0        8.619459   -0.608072    0.808845
    111          1           0       10.236119    0.104714   -1.882009
    112          1           0        9.246607   -2.498048   -1.915609
    113          1           0       11.065462   -2.547042   -1.781148
    114          1           0        9.852924   -2.736635   -0.381836
    115          1           0       11.287621    0.694381    0.504486
    116          1           0       11.552056   -1.046117    0.965727
    117          1           0       12.773274   -1.369629   -1.247306
    118          1           0       12.656557    0.162068   -1.669043
    119          1           0       13.825743    0.997634    0.565050
    120          1           0       13.677455   -0.903851    1.227754
    121          1           0       15.264795    0.666442   -1.244791
    122          1           0       15.600077   -2.634603   -0.356983
    123          1           0       14.792826   -1.792635   -1.952750
    124          1           0       16.452481   -1.563969   -1.742606
    125          1           0       15.981031    1.122727    1.069154
    126          1           0       16.629276   -0.528410    1.506362
    127          1           0       18.253063   -0.252661   -0.508853
    128          1           0       17.552297    1.262240   -1.125430
    129          1           0       18.460581    2.405149    0.753614
    130          1           0       18.633765    0.757199    1.809918
    131          1           0       20.449965    0.363154    0.027152
    132          1           0       20.143729    3.275957   -0.598134
    133          1           0       21.316314    2.129650   -1.697815
    134          1           0       19.431244    1.987347   -1.793351
    135          1           0       21.222891    1.035230    2.253946
    136          1           0       22.230464    1.618421    1.029286
    137          1           0       20.836069    2.708903    1.646059
 ---------------------------------------------------------------------

 SCF Done:  E(RCAM-B3LYP) =  -2932.57655431     A.U. after   17 cycles

 Excitation energies and oscillator strengths:

 Excited State   1:      Singlet-A      2.1948 eV  564.89 nm  f=0.1609  <S**2>=0.000
     240 -> 242        0.13888
     240 -> 243       -0.28324
     241 -> 242        0.61652
 This state for optimization and/or second-order correction.
 Total Energy, E(TD-HF/TD-KS) =  -2932.49589616
 Copying the excited state density for this state as the 1-particle RhoCI density.

 The electronic state is 1-A.
 Alpha  occ. eigenvalues --  -46.83901 -19.26412 -19.25671 -19.21995 -19.20368
 Alpha  occ. eigenvalues --  -19.20163 -14.41457 -14.40029 -14.39345 -14.38483
 Alpha  occ. eigenvalues --  -10.38857 -10.38596 -10.36008 -10.32983 -10.31381
 Alpha  occ. eigenvalues --  -10.31211 -10.31179 -10.30950 -10.29586 -10.29143
 Alpha  occ. eigenvalues --  -10.28795 -10.28772 -10.28611 -10.28527 -10.28470
 Alpha  occ. eigenvalues --  -10.28425 -10.28370 -10.28346 -10.28294 -10.28151
 Alpha  occ. eigenvalues --  -10.28146 -10.28015 -10.28009 -10.27889 -10.27875
 Alpha  occ. eigenvalues --  -10.27793 -10.27773 -10.27769 -10.27678 -10.27551
 Alpha  occ. eigenvalues --  -10.27451 -10.27293 -10.27088 -10.26922 -10.26912
 Alpha  occ. eigenvalues --  -10.26876 -10.26832 -10.26496 -10.26265 -10.26265
 Alpha  occ. eigenvalues --  -10.26180 -10.26172 -10.26150 -10.26095 -10.26036
 Alpha  occ. eigenvalues --  -10.25935 -10.25730 -10.25632 -10.25618 -10.25535
 Alpha  occ. eigenvalues --  -10.25527 -10.25230 -10.25229 -10.24634 -10.24578
 Alpha  occ. eigenvalues --   -3.13021  -1.87716  -1.87264  -1.87207  -1.18184
 Alpha  occ. eigenvalues --   -1.16552  -1.15324  -1.08758  -1.07916  -1.04635
 Alpha  occ. eigenvalues --   -1.03797  -1.03243  -1.00398  -0.91509  -0.91295
 Alpha  occ. eigenvalues --   -0.90739  -0.89966  -0.89475  -0.89343  -0.88942
 Alpha  occ. eigenvalues --   -0.87987  -0.87709  -0.87161  -0.86929  -0.85852
 Alpha  occ. eigenvalues --   -0.84808  -0.84156  -0.83529  -0.82924  -0.82239
 Alpha  occ. eigenvalues --   -0.81478  -0.80698  -0.79926  -0.79518  -0.78008
 Alpha  occ. eigenvalues --   -0.77242  -0.76350  -0.76339  -0.75220  -0.74985
 Alpha  occ. eigenvalues --   -0.74107  -0.73766  -0.73398  -0.72589  -0.72211
 Alpha  occ. eigenvalues --   -0.70922  -0.70339  -0.69247  -0.68510  -0.68031
 Alpha  occ. eigenvalues --   -0.67187  -0.66344  -0.65593  -0.64963  -0.64801
 Alpha  occ. eigenvalues --   -0.63448  -0.62489  -0.62328  -0.62244  -0.61498
 Alpha  occ. eigenvalues --   -0.60845  -0.60516  -0.60030  -0.59869  -0.59446
 Alpha  occ. eigenvalues --   -0.58372  -0.58286  -0.56764  -0.56582  -0.56342
 Alpha  occ. eigenvalues --   -0.55972  -0.55442  -0.55322  -0.54939  -0.54142
 Alpha  occ. eigenvalues --   -0.54045  -0.53804  -0.53280  -0.53117  -0.52911
 Alpha  occ. eigenvalues --   -0.52809  -0.52146  -0.52133  -0.51996  -0.51806
 Alpha  occ. eigenvalues --   -0.51567  -0.51194  -0.50718  -0.50466  -0.50449
 Alpha  occ. eigenvalues --   -0.50250  -0.50189  -0.49887  -0.49575  -0.49385
 Alpha  occ. eigenvalues --   -0.48995  -0.48949  -0.48699  -0.48468  -0.48147
 Alpha  occ. eigenvalues --   -0.48047  -0.47904  -0.47830  -0.47271  -0.47160
 Alpha  occ. eigenvalues --   -0.46704  -0.46317  -0.46218  -0.46132  -0.45974
 Alpha  occ. eigenvalues --   -0.45934  -0.45804  -0.45486  -0.45109  -0.44915
 Alpha  occ. eigenvalues --   -0.44722  -0.44632  -0.44343  -0.43948  -0.43871
 Alpha  occ. eigenvalues --   -0.43704  -0.43421  -0.43337  -0.42996  -0.42884
 Alpha  occ. eigenvalues --   -0.42471  -0.42310  -0.42057  -0.42008  -0.41506
 Alpha  occ. eigenvalues --   -0.41416  -0.41368  -0.41014  -0.40773  -0.40691
 Alpha  occ. eigenvalues --   -0.40626  -0.40496  -0.40090  -0.39936  -0.39734
 Alpha  occ. eigenvalues --   -0.39718  -0.39596  -0.39341  -0.39114  -0.39067
 Alpha  occ. eigenvalues --   -0.38957  -0.38594  -0.37720  -0.37657  -0.37652
 Alpha  occ. eigenvalues --   -0.36971  -0.36956  -0.36860  -0.36790  -0.36749
 Alpha  occ. eigenvalues --   -0.36574  -0.36087  -0.35950  -0.35746  -0.35542
 Alpha  occ. eigenvalues --   -0.35419  -0.35257  -0.34590  -0.34252  -0.33481
 Alpha  occ. eigenvalues --   -0.33349  -0.33047  -0.32323  -0.31245  -0.29885
 Alpha  occ. eigenvalues --   -0.29478  -0.28194  -0.28111  -0.25871  -0.23131
 Alpha  occ. eigenvalues --   -0.21555
 Alpha virt. eigenvalues --   -0.05782  -0.03327   0.01691   0.04124   0.04310
 Alpha virt. eigenvalues --    0.05714   0.06310   0.06536   0.07210   0.07470
 Alpha virt. eigenvalues --    0.08405   0.09785   0.10836   0.11227   0.11265

 Mulliken charges:
               1
     1  Mg   0.819384
     2  C   -0.005650
     3  C   -0.233396
     4  C   -0.185551
     5  C   -0.180345
     6  N   -0.629032
     7  C    0.294382
     8  C   -0.123423
     9  C   -0.161508
    10  C    0.382356
    11  C   -0.302760
    12  C   -0.139804
    13  C   -0.289516
    14  C    0.632037
    15  O   -0.491988
    16  O   -0.478376
    17  N   -0.715952
    18  C    0.331957
    19  C    0.027572
    20  C   -0.018591
    21  C    0.350703
    22  C   -0.359815
    23  C   -0.078464
    24  C   -0.240696
    25  N   -0.717909
    26  C    0.332090
    27  C   -0.032882
    28  C    0.085973
    29  C    0.283977
    30  C   -0.347531
    31  C   -0.279023
    32  C   -0.262505
    33  N   -0.706216
    34  C    0.313752
    35  C   -0.036383
    36  C    0.001894
    37  C    0.306385
    38  C   -0.340220
    39  C    0.353951
    40  O   -0.392997
    41  C   -0.333528
    42  C    0.630411
    43  O   -0.495675
    44  O   -0.465090
    45  C   -0.081639
    46  C    0.025741
    47  C   -0.132878
    48  C    0.112111
    49  C   -0.366544
    50  C   -0.222879
    51  C   -0.171927
    52  C   -0.161343
    53  C   -0.046024
    54  C   -0.320890
    55  C   -0.145554
    56  C   -0.177692
    57  C   -0.158417
    58  C   -0.039178
    59  C   -0.288709
    60  C   -0.162642
    61  C   -0.183189
    62  C   -0.173095
    63  C   -0.072302
    64  C   -0.292227
    65  C   -0.295040
    66  H    0.073400
    67  H    0.098026
    68  H    0.083480
    69  H    0.127431
    70  H    0.109788
    71  H    0.107212
    72  H    0.102702
    73  H    0.100022
    74  H    0.103151
    75  H    0.124013
    76  H    0.116555
    77  H    0.129885
    78  H    0.111236
    79  H    0.139320
    80  H    0.110782
    81  H    0.096855
    82  H    0.100170
    83  H    0.104476
    84  H    0.101172
    85  H    0.116020
    86  H    0.107291
    87  H    0.116855
    88  H    0.097537
    89  H    0.036893
    90  H    0.072252
    91  H    0.130758
    92  H    0.106683
    93  H    0.138123
    94  H    0.137594
    95  H    0.158436
    96  H    0.121968
    97  H    0.142620
    98  H    0.125879
    99  H    0.126216
   100  H    0.118775
   101  H    0.082593
   102  H    0.104681
   103  H    0.108945
   104  H    0.140915
   105  H    0.084611
   106  H    0.087233
   107  H    0.107300
   108  H    0.088329
   109  H    0.102866
   110  H    0.110313
   111  H    0.056917
   112  H    0.113225
   113  H    0.099737
   114  H    0.092063
   115  H    0.069738
   116  H    0.037902
   117  H    0.106043
   118  H    0.091535
   119  H    0.081359
   120  H    0.090280
   121  H    0.072887
   122  H    0.071123
   123  H    0.091300
   124  H    0.075075
   125  H    0.086670
   126  H    0.067017
   127  H    0.108105
   128  H    0.094270
   129  H    0.082502
   130  H    0.086460
   131  H    0.085617
   132  H    0.116770
   133  H    0.088425
   134  H    0.091274
   135  H    0.069634
   136  H    0.110513
   137  H    0.104517
 Sum of Mulliken charges =   0.00000

 Dipole moment (field-independent basis, Debye):
    X=              3.6452    Y=              4.4329    Z=             -0.0164  Tot=              5.7392
 Quadrupole moment (field-independent basis, Debye-Ang):
   XX=           -363.6106   YY=           -387.8633   ZZ=           -403.1663
   XY=            -23.3504   XZ=              0.5912   YZ=             -1.3107

 Normal termination of Gaussian 09 at Fri Jun 28 21:44:14 2019.
