 Gaussian 09, Revision D.01,
 Gaussian 09:  ES64L-G09RevD.01 24-Apr-2013

 -------------------------------------
 # td=(NStates=1) CAM-B3LYP/6-31G(d,p)
 -------------------------------------

 --
 TD
 --
 Symbolic Z-matrix:
 Charge =  0 Multiplicity = 1

                         Standard orientation:
 ---------------------------------------------------------------------
 Center     Atomic      Atomic             Coordinates (Angstroms)
 Number     Number       Type             X           Y           Z
 ---------------------------------------------------------------------
      1         12           0       -7.148741    0.623723   -0.010703
      2          6           0       -4.803912   -1.861804    0.510366
      3          6           0       -4.869329    2.900761    1.085853
      4          6           0       -9.411027    3.137961   -0.404850
      5          6           0       -9.428862   -1.735373   -0.839620
      6          7           0       -5.068903    0.532474    0.778180
      7          6           0       -4.298371   -0.626170    0.899706
      8          6           0       -2.934716   -0.317444    1.328544
      9          6           0       -2.923114    1.154917    1.562741
     10          6           0       -4.358790    1.533407    1.096351
     11          6           0       -2.780804    1.543551    3.151591
     12          6           0       -1.832385   -0.640038    0.182718
     13          6           0       -0.505709   -0.429741    0.596423
     14          6           0        0.516177   -0.918424   -0.491400
     15          8           0        0.223770   -1.253415   -1.620297
     16          8           0        1.763068   -0.522018   -0.069103
     17          7           0       -7.183391    2.673587    0.353151
     18          6           0       -6.131912    3.408893    0.675775
     19          6           0       -6.487569    4.844280    0.768739
     20          6           0       -7.784749    4.857283    0.357793
     21          6           0       -8.221887    3.530344    0.087540
     22          6           0       -5.467388    5.827382    1.204585
     23          6           0       -8.657911    6.008677    0.313541
     24          6           0       -8.289052    7.292581    0.051950
     25          7           0       -9.079259    0.693874   -0.520413
     26          6           0       -9.787986    1.796625   -0.606445
     27          6           0      -11.090899    1.442387   -1.135155
     28          6           0      -11.157443    0.058457   -1.315911
     29          6           0       -9.851224   -0.349199   -0.978596
     30          6           0      -12.322378    2.359489   -1.233197
     31          6           0      -12.278248   -0.789672   -1.766212
     32          6           0      -12.314931   -1.388731   -3.203646
     33          7           0       -7.199128   -1.376959   -0.223779
     34          6           0       -8.266639   -2.298842   -0.530788
     35          6           0       -7.759854   -3.685777   -0.493330
     36          6           0       -6.428150   -3.525833   -0.110799
     37          6           0       -6.134794   -2.242979    0.151182
     38          6           0       -8.627361   -4.823712   -0.843011
     39          6           0       -5.273690   -4.367981    0.215975
     40          8           0       -4.964570   -5.543248    0.129865
     41          6           0       -4.185369   -3.325781    0.604974
     42          6           0       -3.520238   -3.621038    1.920950
     43          8           0       -3.597411   -3.058630    2.996324
     44          8           0       -2.669426   -4.658293    1.753553
     45          6           0       -1.983810   -5.032811    2.931738
     46          6           0        2.757472   -0.977730   -1.081888
     47          6           0        4.074271   -0.600462   -0.431788
     48          6           0        4.937006    0.325579   -0.931944
     49          6           0        5.052904    1.032289   -2.155482
     50          6           0        6.310153    0.378274   -0.188782
     51          6           0        7.556044   -0.109870   -0.874418
     52          6           0        8.841432   -0.135252   -0.040691
     53          6           0       10.109329   -0.594060   -0.717578
     54          6           0       10.122866   -2.027632   -1.237458
     55          6           0       11.318594   -0.217455    0.003509
     56          6           0       12.666164   -0.345146   -0.693627
     57          6           0       13.936481    0.055492    0.122363
     58          6           0       15.253570   -0.112938   -0.500675
     59          6           0       15.507026   -1.594380   -0.896303
     60          6           0       16.302731    0.451080    0.272795
     61          6           0       17.734490    0.587250   -0.231722
     62          6           0       18.702049    1.274349    0.719193
     63          6           0       20.206149    1.302816    0.218243
     64          6           0       20.304256    2.118324   -1.134360
     65          6           0       21.159380    1.932960    1.180859
     66          1           0       -3.922023    3.686102    1.208908
     67          1           0      -10.167919    3.843016   -0.456931
     68          1           0      -10.264028   -2.340433   -1.095019
     69          1           0       -2.651607   -1.020650    2.134731
     70          1           0       -2.243930    1.646469    0.939344
     71          1           0       -1.877807    1.128769    3.275148
     72          1           0       -2.754070    2.689113    3.299504
     73          1           0       -3.626994    1.134032    3.823623
     74          1           0       -1.933116   -1.876322    0.184943
     75          1           0       -2.079866   -0.298514   -0.827299
     76          1           0       -0.279346    0.588951    0.743924
     77          1           0       -0.114694   -0.848993    1.484558
     78          1           0       -4.793275    5.951589    0.317689
     79          1           0       -5.801619    6.917218    1.626083
     80          1           0       -4.817592    5.397815    1.904998
     81          1           0       -9.655750    5.851626    0.507335
     82          1           0       -9.131097    8.010869    0.232756
     83          1           0       -7.221778    7.558911   -0.357331
     84          1           0      -11.856188    3.245666   -1.759026
     85          1           0      -13.161113    1.897465   -2.037517
     86          1           0      -12.673265    2.697703   -0.182834
     87          1           0      -12.250046   -1.720631   -0.966232
     88          1           0      -13.088660   -0.289067   -1.700592
     89          1           0      -13.090600   -2.177279   -3.493696
     90          1           0      -12.471693   -0.664025   -4.073889
     91          1           0      -11.454341   -1.951750   -3.521707
     92          1           0       -9.226898   -4.773731   -1.774759
     93          1           0       -7.913341   -5.646342   -0.783512
     94          1           0       -9.467405   -4.991994    0.011720
     95          1           0       -3.263781   -3.340108   -0.033438
     96          1           0       -1.054296   -4.125853    3.177757
     97          1           0       -2.794003   -5.005283    3.760180
     98          1           0       -1.574963   -6.160872    2.701902
     99          1           0        2.337121   -1.868765   -1.281036
    100          1           0        2.367907   -0.469723   -1.765381
    101          1           0        4.222413   -0.992213    0.646535
    102          1           0        4.238934    0.760922   -2.850751
    103          1           0        5.199645    2.127296   -2.038461
    104          1           0        6.018558    0.512951   -2.694362
    105          1           0        6.626985    1.445882   -0.052645
    106          1           0        6.062460   -0.077563    0.826580
    107          1           0        7.295413   -1.226881   -1.231637
    108          1           0        7.641594    0.200635   -1.880636
    109          1           0        9.107546    0.955944    0.411320
    110          1           0        8.666526   -0.846987    0.753242
    111          1           0       10.212475   -0.128739   -1.648020
    112          1           0        9.055689   -2.134126   -1.780296
    113          1           0       10.852305   -2.149026   -2.114893
    114          1           0       10.293040   -2.887129   -0.440671
    115          1           0       11.313378    0.795606    0.399250
    116          1           0       11.490739   -0.867712    0.968043
    117          1           0       12.772532   -1.417566   -0.978212
    118          1           0       12.704936    0.331267   -1.738734
    119          1           0       13.664432    1.130054    0.415410
    120          1           0       13.783788   -0.389814    1.271561
    121          1           0       15.441235    0.439600   -1.503559
    122          1           0       15.308688   -2.261386    0.062496
    123          1           0       14.738980   -2.150705   -1.462349
    124          1           0       16.542120   -1.894045   -1.367186
    125          1           0       16.020354    1.455084    0.465846
    126          1           0       16.452949    0.123094    1.234813
    127          1           0       17.996365   -0.366411   -0.460424
    128          1           0       17.883379    1.054955   -1.254220
    129          1           0       18.230707    2.157229    0.901988
    130          1           0       18.535239    0.836266    1.699949
    131          1           0       20.511953    0.170023    0.105166
    132          1           0       19.855159    3.061640   -1.259233
    133          1           0       21.500502    2.224611   -1.650644
    134          1           0       19.872354    1.549813   -1.954221
    135          1           0       20.934448    1.275182    2.008815
    136          1           0       22.169984    1.857295    0.629012
    137          1           0       21.022223    3.034520    1.353996
 ---------------------------------------------------------------------

 SCF Done:  E(RCAM-B3LYP) =  -2932.60644070     A.U. after   17 cycles

 Excitation energies and oscillator strengths:

 Excited State   1:      Singlet-A      2.1491 eV  576.92 nm  f=0.2061  <S**2>=0.000
     240 -> 243       -0.27324
     241 -> 242        0.63572
 This state for optimization and/or second-order correction.
 Total Energy, E(TD-HF/TD-KS) =  -2932.52746395
 Copying the excited state density for this state as the 1-particle RhoCI density.

 The electronic state is 1-A.
 Alpha  occ. eigenvalues --  -46.84504 -19.25964 -19.25541 -19.22229 -19.21035
 Alpha  occ. eigenvalues --  -19.20931 -14.41657 -14.39131 -14.38844 -14.38626
 Alpha  occ. eigenvalues --  -10.39526 -10.39091 -10.35691 -10.34050 -10.31203
 Alpha  occ. eigenvalues --  -10.30805 -10.30131 -10.29394 -10.29188 -10.29085
 Alpha  occ. eigenvalues --  -10.28460 -10.28449 -10.28358 -10.28246 -10.28187
 Alpha  occ. eigenvalues --  -10.28060 -10.27945 -10.27936 -10.27900 -10.27782
 Alpha  occ. eigenvalues --  -10.27766 -10.27487 -10.27472 -10.27455 -10.27426
 Alpha  occ. eigenvalues --  -10.27186 -10.27159 -10.27153 -10.27143 -10.26984
 Alpha  occ. eigenvalues --  -10.26928 -10.26836 -10.26807 -10.26733 -10.26727
 Alpha  occ. eigenvalues --  -10.26675 -10.26647 -10.26636 -10.26592 -10.26583
 Alpha  occ. eigenvalues --  -10.26265 -10.26227 -10.26007 -10.25963 -10.25895
 Alpha  occ. eigenvalues --  -10.25854 -10.25523 -10.25425 -10.25392 -10.25279
 Alpha  occ. eigenvalues --  -10.25273 -10.24716 -10.24308 -10.23721 -10.22980
 Alpha  occ. eigenvalues --   -3.13493  -1.88199  -1.87735  -1.87657  -1.18807
 Alpha  occ. eigenvalues --   -1.17785  -1.11364  -1.09593  -1.08998  -1.06174
 Alpha  occ. eigenvalues --   -1.04734  -1.03634  -1.01714  -0.92512  -0.92410
 Alpha  occ. eigenvalues --   -0.91977  -0.91516  -0.90835  -0.89417  -0.89156
 Alpha  occ. eigenvalues --   -0.88569  -0.87886  -0.87483  -0.86950  -0.86265
 Alpha  occ. eigenvalues --   -0.85540  -0.84597  -0.83879  -0.83780  -0.82498
 Alpha  occ. eigenvalues --   -0.82320  -0.81385  -0.80558  -0.80314  -0.78376
 Alpha  occ. eigenvalues --   -0.77559  -0.76908  -0.76404  -0.75713  -0.75142
 Alpha  occ. eigenvalues --   -0.75117  -0.74797  -0.74251  -0.73806  -0.72090
 Alpha  occ. eigenvalues --   -0.71605  -0.71087  -0.70498  -0.69798  -0.68432
 Alpha  occ. eigenvalues --   -0.67477  -0.66793  -0.66291  -0.65153  -0.64938
 Alpha  occ. eigenvalues --   -0.63648  -0.63553  -0.63257  -0.62589  -0.62268
 Alpha  occ. eigenvalues --   -0.61431  -0.61160  -0.60423  -0.59582  -0.59523
 Alpha  occ. eigenvalues --   -0.58956  -0.58380  -0.57664  -0.57298  -0.56845
 Alpha  occ. eigenvalues --   -0.56204  -0.55931  -0.55399  -0.55215  -0.54783
 Alpha  occ. eigenvalues --   -0.54433  -0.54234  -0.54109  -0.53544  -0.53043
 Alpha  occ. eigenvalues --   -0.52660  -0.52481  -0.52261  -0.52113  -0.51915
 Alpha  occ. eigenvalues --   -0.51796  -0.51325  -0.51009  -0.50811  -0.50760
 Alpha  occ. eigenvalues --   -0.50547  -0.50397  -0.49997  -0.49673  -0.49623
 Alpha  occ. eigenvalues --   -0.49445  -0.49158  -0.49010  -0.48695  -0.48582
 Alpha  occ. eigenvalues --   -0.48250  -0.48054  -0.47780  -0.47506  -0.47252
 Alpha  occ. eigenvalues --   -0.47193  -0.47023  -0.46639  -0.46274  -0.46077
 Alpha  occ. eigenvalues --   -0.45955  -0.45843  -0.45768  -0.45587  -0.45001
 Alpha  occ. eigenvalues --   -0.44947  -0.44576  -0.44421  -0.44287  -0.44228
 Alpha  occ. eigenvalues --   -0.44030  -0.43909  -0.43719  -0.43635  -0.43555
 Alpha  occ. eigenvalues --   -0.43230  -0.43034  -0.42804  -0.42502  -0.42216
 Alpha  occ. eigenvalues --   -0.41870  -0.41733  -0.41374  -0.41280  -0.41212
 Alpha  occ. eigenvalues --   -0.40945  -0.40579  -0.40367  -0.40251  -0.40177
 Alpha  occ. eigenvalues --   -0.40090  -0.39894  -0.39593  -0.39371  -0.39315
 Alpha  occ. eigenvalues --   -0.38950  -0.38625  -0.38510  -0.38090  -0.37776
 Alpha  occ. eigenvalues --   -0.37376  -0.37160  -0.36847  -0.36725  -0.36481
 Alpha  occ. eigenvalues --   -0.36385  -0.36171  -0.35904  -0.35737  -0.35593
 Alpha  occ. eigenvalues --   -0.35393  -0.35299  -0.35195  -0.34844  -0.34425
 Alpha  occ. eigenvalues --   -0.33855  -0.33485  -0.32638  -0.30562  -0.30483
 Alpha  occ. eigenvalues --   -0.29987  -0.29085  -0.27703  -0.27362  -0.23143
 Alpha  occ. eigenvalues --   -0.21168
 Alpha virt. eigenvalues --   -0.05952  -0.03190   0.00982   0.04359   0.04613
 Alpha virt. eigenvalues --    0.05224   0.05509   0.06028   0.07135   0.07430
 Alpha virt. eigenvalues --    0.08352   0.09737   0.10522   0.11324   0.11707

 Mulliken charges:
               1
     1  Mg   0.832434
     2  C    0.028388
     3  C   -0.232943
     4  C   -0.159732
     5  C   -0.199516
     6  N   -0.593125
     7  C    0.299452
     8  C   -0.172305
     9  C   -0.153514
    10  C    0.335145
    11  C   -0.297177
    12  C   -0.179653
    13  C   -0.250255
    14  C    0.587185
    15  O   -0.467907
    16  O   -0.510523
    17  N   -0.711780
    18  C    0.320146
    19  C    0.066382
    20  C   -0.016759
    21  C    0.328397
    22  C   -0.382384
    23  C   -0.080850
    24  C   -0.246858
    25  N   -0.708652
    26  C    0.343404
    27  C   -0.060967
    28  C    0.073838
    29  C    0.247718
    30  C   -0.361488
    31  C   -0.199746
    32  C   -0.327163
    33  N   -0.707360
    34  C    0.286908
    35  C    0.076812
    36  C   -0.019965
    37  C    0.277442
    38  C   -0.381436
    39  C    0.390396
    40  O   -0.454323
    41  C   -0.325257
    42  C    0.604835
    43  O   -0.483476
    44  O   -0.427111
    45  C   -0.060820
    46  C    0.030469
    47  C   -0.144337
    48  C    0.139845
    49  C   -0.360284
    50  C   -0.208903
    51  C   -0.188369
    52  C   -0.154254
    53  C   -0.040728
    54  C   -0.311664
    55  C   -0.164778
    56  C   -0.169880
    57  C   -0.175250
    58  C   -0.023830
    59  C   -0.323203
    60  C   -0.172414
    61  C   -0.190231
    62  C   -0.185491
    63  C   -0.054309
    64  C   -0.311946
    65  C   -0.279180
    66  H    0.055369
    67  H    0.079305
    68  H    0.075366
    69  H    0.141399
    70  H    0.118976
    71  H    0.124010
    72  H    0.102575
    73  H    0.126666
    74  H    0.071144
    75  H    0.133277
    76  H    0.139068
    77  H    0.136904
    78  H    0.124891
    79  H    0.109910
    80  H    0.134177
    81  H    0.094920
    82  H    0.100769
    83  H    0.107250
    84  H    0.114518
    85  H    0.092977
    86  H    0.121567
    87  H    0.085003
    88  H    0.107938
    89  H    0.098178
    90  H    0.100786
    91  H    0.112335
    92  H    0.136277
    93  H    0.147336
    94  H    0.114517
    95  H    0.173890
    96  H    0.077524
    97  H    0.138842
    98  H    0.116611
    99  H    0.131421
   100  H    0.129599
   101  H    0.103911
   102  H    0.112251
   103  H    0.132628
   104  H    0.106939
   105  H    0.084823
   106  H    0.089081
   107  H    0.068900
   108  H    0.105623
   109  H    0.074057
   110  H    0.106714
   111  H    0.097660
   112  H    0.082429
   113  H    0.105804
   114  H    0.089585
   115  H    0.087666
   116  H    0.069369
   117  H    0.096364
   118  H    0.055724
   119  H    0.087160
   120  H    0.067301
   121  H    0.085336
   122  H    0.076502
   123  H    0.107574
   124  H    0.096834
   125  H    0.089762
   126  H    0.092994
   127  H    0.099052
   128  H    0.073683
   129  H    0.102359
   130  H    0.082845
   131  H    0.084712
   132  H    0.120127
   133  H    0.047806
   134  H    0.107252
   135  H    0.100572
   136  H    0.095731
   137  H    0.100473
 Sum of Mulliken charges =   0.00000

 Dipole moment (field-independent basis, Debye):
    X=              1.9042    Y=              4.1261    Z=             -0.3555  Tot=              4.5582
 Quadrupole moment (field-independent basis, Debye-Ang):
   XX=           -371.4105   YY=           -397.5957   ZZ=           -400.0751
   XY=            -10.0108   XZ=              5.3785   YZ=             -1.1937

 Normal termination of Gaussian 09 at Sat Jun 29 22:20:02 2019.
