 Gaussian 09, Revision D.01,
 Gaussian 09:  ES64L-G09RevD.01 24-Apr-2013

 -------------------------------------
 # td=(NStates=1) CAM-B3LYP/6-31G(d,p)
 -------------------------------------

 --
 TD
 --
 Symbolic Z-matrix:
 Charge =  0 Multiplicity = 1

                         Standard orientation:
 ---------------------------------------------------------------------
 Center     Atomic      Atomic             Coordinates (Angstroms)
 Number     Number       Type             X           Y           Z
 ---------------------------------------------------------------------
      1         12           0       -7.187128    0.677547    0.075696
      2          6           0       -4.799639   -1.881991    0.453972
      3          6           0       -4.828212    2.811127    1.104948
      4          6           0       -9.421056    3.030242   -0.321471
      5          6           0       -9.574675   -1.742484   -0.716148
      6          7           0       -5.103883    0.423917    0.719363
      7          6           0       -4.347663   -0.681642    0.826030
      8          6           0       -2.963142   -0.295084    1.198138
      9          6           0       -3.054264    1.100646    1.602967
     10          6           0       -4.392773    1.455324    1.173464
     11          6           0       -2.871697    1.302865    3.165184
     12          6           0       -1.956026   -0.561113    0.081882
     13          6           0       -0.522927   -0.485003    0.589584
     14          6           0        0.472879   -0.589475   -0.564781
     15          8           0        0.159132   -0.976515   -1.640352
     16          8           0        1.754589   -0.286938   -0.148549
     17          7           0       -7.101061    2.595562    0.424410
     18          6           0       -6.086710    3.324247    0.865652
     19          6           0       -6.385198    4.710999    0.793673
     20          6           0       -7.662914    4.859004    0.372482
     21          6           0       -8.167826    3.525998    0.053346
     22          6           0       -5.458749    5.774355    1.344353
     23          6           0       -8.541170    6.036864    0.174387
     24          6           0       -8.140555    7.303428   -0.118375
     25          7           0       -9.063628    0.622924   -0.501074
     26          6           0       -9.866031    1.772217   -0.710089
     27          6           0      -11.239829    1.394048   -1.035741
     28          6           0      -11.315471    0.033239   -1.172095
     29          6           0       -9.928378   -0.433340   -0.766185
     30          6           0      -12.333491    2.334536   -1.332355
     31          6           0      -12.390496   -0.809275   -1.484768
     32          6           0      -12.342299   -1.221805   -3.021646
     33          7           0       -7.205594   -1.354429   -0.131220
     34          6           0       -8.259367   -2.237491   -0.479098
     35          6           0       -7.872478   -3.557438   -0.457539
     36          6           0       -6.502659   -3.574696   -0.150556
     37          6           0       -6.180903   -2.132763    0.072440
     38          6           0       -8.614321   -4.818981   -0.884821
     39          6           0       -5.284377   -4.286181    0.160127
     40          8           0       -5.074828   -5.544221    0.085441
     41          6           0       -4.170790   -3.315038    0.495999
     42          6           0       -3.568195   -3.653489    1.925751
     43          8           0       -3.768411   -3.034674    2.900836
     44          8           0       -2.642068   -4.623978    1.805070
     45          6           0       -2.178894   -5.104746    2.934050
     46          6           0        2.778894   -0.698330   -1.126260
     47          6           0        4.085408   -0.456954   -0.494992
     48          6           0        5.114597    0.176322   -1.039251
     49          6           0        5.069808    0.977506   -2.316100
     50          6           0        6.414636    0.357717   -0.262916
     51          6           0        7.616553   -0.317962   -1.002986
     52          6           0        8.858594   -0.140119   -0.261284
     53          6           0       10.190225   -0.608652   -0.996893
     54          6           0       10.200158   -2.053000   -1.548138
     55          6           0       11.452974   -0.334235   -0.157171
     56          6           0       12.735168   -0.352563   -0.871822
     57          6           0       13.881719   -0.047213    0.084437
     58          6           0       15.361495   -0.168996   -0.521091
     59          6           0       15.698130   -1.591975   -0.956668
     60          6           0       16.407467    0.336372    0.471637
     61          6           0       17.827463    0.534223   -0.102578
     62          6           0       18.728616    1.187407    0.828697
     63          6           0       20.252360    1.262477    0.393015
     64          6           0       20.427529    2.062155   -0.889494
     65          6           0       21.193042    2.017204    1.518217
     66          1           0       -4.139470    3.558881    1.253342
     67          1           0      -10.054112    4.039425   -0.185564
     68          1           0      -10.429081   -2.435337   -1.016120
     69          1           0       -2.650957   -0.792875    1.943854
     70          1           0       -2.315693    1.849939    1.099588
     71          1           0       -1.875793    0.865237    3.488656
     72          1           0       -3.089034    2.338686    3.267687
     73          1           0       -3.642809    0.714209    3.692194
     74          1           0       -2.086151   -1.550260   -0.155660
     75          1           0       -2.240088   -0.146078   -1.038055
     76          1           0       -0.376173    0.550071    1.005901
     77          1           0       -0.331029   -1.178620    1.479080
     78          1           0       -4.892523    6.142582    0.548615
     79          1           0       -6.059284    6.558200    1.613835
     80          1           0       -4.714259    5.628410    2.077601
     81          1           0       -9.419449    5.784001    0.032456
     82          1           0       -9.004589    7.948021   -0.257115
     83          1           0       -7.203351    7.754659   -0.386722
     84          1           0      -12.304421    2.882303   -2.317274
     85          1           0      -13.324643    2.138070   -1.234282
     86          1           0      -12.249265    3.294059   -0.613688
     87          1           0      -12.381759   -1.734212   -0.994634
     88          1           0      -13.299451   -0.119844   -1.381205
     89          1           0      -13.129764   -2.065190   -3.194582
     90          1           0      -12.214509   -0.281047   -3.609048
     91          1           0      -11.492742   -1.895184   -3.300870
     92          1           0       -8.888016   -4.462905   -1.808001
     93          1           0       -8.022465   -5.585701   -0.830247
     94          1           0       -9.422174   -5.124446   -0.046591
     95          1           0       -3.361824   -3.262144   -0.220043
     96          1           0       -1.652200   -4.390483    3.554734
     97          1           0       -3.153513   -5.133982    3.537995
     98          1           0       -1.442632   -5.997020    2.805243
     99          1           0        2.653370   -1.667513   -1.224691
    100          1           0        2.481251    0.057979   -2.133509
    101          1           0        4.167074   -0.958076    0.513947
    102          1           0        4.109674    1.028110   -2.704514
    103          1           0        5.498836    1.901798   -2.240508
    104          1           0        5.577614    0.541101   -3.157600
    105          1           0        6.657595    1.461111    0.036505
    106          1           0        6.329686   -0.059237    0.729557
    107          1           0        7.264816   -1.330415   -1.007912
    108          1           0        7.585839    0.291737   -1.917186
    109          1           0        9.131873    0.765858    0.192596
    110          1           0        8.758540   -0.824651    0.763510
    111          1           0        9.952324    0.280029   -1.843452
    112          1           0        9.398737   -2.163762   -2.302373
    113          1           0       10.913451   -2.294978   -2.264383
    114          1           0       10.241101   -2.817532   -0.847306
    115          1           0       11.340224    0.653432    0.388310
    116          1           0       11.700873   -0.969557    0.764392
    117          1           0       12.872659   -1.233207   -1.073735
    118          1           0       12.783058    0.350303   -1.755911
    119          1           0       13.886189    0.867262    0.463043
    120          1           0       13.879988   -0.779746    0.953821
    121          1           0       15.360538    0.516348   -1.329925
    122          1           0       15.642532   -2.182063   -0.213023
    123          1           0       14.928453   -1.855676   -1.794282
    124          1           0       16.702659   -1.596097   -1.538642
    125          1           0       16.019830    1.359505    0.777109
    126          1           0       16.536349   -0.238456    1.408799
    127          1           0       18.087505   -0.387997   -0.511969
    128          1           0       17.808262    0.894616   -0.944270
    129          1           0       18.363537    2.359831    0.994758
    130          1           0       18.519534    0.684043    1.830559
    131          1           0       20.670779    0.360219    0.210660
    132          1           0       20.222780    3.073836   -0.771174
    133          1           0       21.587941    2.341925   -0.858630
    134          1           0       19.988754    1.716390   -1.761823
    135          1           0       21.061587    1.426229    2.495928
    136          1           0       22.148097    1.911638    1.205735
    137          1           0       20.899465    3.037563    1.621518
 ---------------------------------------------------------------------

 SCF Done:  E(RCAM-B3LYP) =  -2932.58124846     A.U. after   17 cycles

 Excitation energies and oscillator strengths:

 Excited State   1:      Singlet-A      2.0292 eV  611.00 nm  f=0.2473  <S**2>=0.000
     240 -> 242       -0.11168
     240 -> 243       -0.22152
     241 -> 242        0.65479
 This state for optimization and/or second-order correction.
 Total Energy, E(TD-HF/TD-KS) =  -2932.50667691
 Copying the excited state density for this state as the 1-particle RhoCI density.

 The electronic state is 1-A.
 Alpha  occ. eigenvalues --  -46.83224 -19.26045 -19.25464 -19.22209 -19.21515
 Alpha  occ. eigenvalues --  -19.18031 -14.41193 -14.40155 -14.39090 -14.38579
 Alpha  occ. eigenvalues --  -10.39557 -10.39129 -10.33819 -10.32202 -10.30675
 Alpha  occ. eigenvalues --  -10.30620 -10.30575 -10.30238 -10.29111 -10.28881
 Alpha  occ. eigenvalues --  -10.28700 -10.28396 -10.28290 -10.28273 -10.28239
 Alpha  occ. eigenvalues --  -10.28203 -10.28000 -10.27781 -10.27490 -10.27447
 Alpha  occ. eigenvalues --  -10.27141 -10.27118 -10.27056 -10.27037 -10.27017
 Alpha  occ. eigenvalues --  -10.27014 -10.26889 -10.26761 -10.26657 -10.26479
 Alpha  occ. eigenvalues --  -10.26450 -10.26292 -10.26164 -10.26143 -10.26103
 Alpha  occ. eigenvalues --  -10.26060 -10.25755 -10.25702 -10.25331 -10.25247
 Alpha  occ. eigenvalues --  -10.25092 -10.24733 -10.24710 -10.24708 -10.24653
 Alpha  occ. eigenvalues --  -10.24539 -10.24383 -10.24272 -10.24184 -10.24104
 Alpha  occ. eigenvalues --  -10.23948 -10.23789 -10.23778 -10.22815 -10.21674
 Alpha  occ. eigenvalues --   -3.12572  -1.87251  -1.86843  -1.86750  -1.21593
 Alpha  occ. eigenvalues --   -1.17664  -1.12829  -1.09923  -1.06305  -1.05987
 Alpha  occ. eigenvalues --   -1.03464  -1.03123  -1.01665  -0.91666  -0.91547
 Alpha  occ. eigenvalues --   -0.91261  -0.90942  -0.90341  -0.89889  -0.89666
 Alpha  occ. eigenvalues --   -0.88552  -0.87979  -0.87686  -0.87518  -0.86401
 Alpha  occ. eigenvalues --   -0.85899  -0.84874  -0.83847  -0.83433  -0.83308
 Alpha  occ. eigenvalues --   -0.82341  -0.81363  -0.81173  -0.80817  -0.78803
 Alpha  occ. eigenvalues --   -0.78492  -0.77362  -0.77180  -0.76238  -0.75753
 Alpha  occ. eigenvalues --   -0.75496  -0.75381  -0.74651  -0.73460  -0.73303
 Alpha  occ. eigenvalues --   -0.72139  -0.71287  -0.70475  -0.69601  -0.69326
 Alpha  occ. eigenvalues --   -0.67774  -0.67297  -0.66068  -0.65461  -0.65281
 Alpha  occ. eigenvalues --   -0.64719  -0.64524  -0.63198  -0.62760  -0.62468
 Alpha  occ. eigenvalues --   -0.62043  -0.61094  -0.60939  -0.60349  -0.59788
 Alpha  occ. eigenvalues --   -0.59070  -0.58324  -0.58177  -0.57496  -0.57119
 Alpha  occ. eigenvalues --   -0.56886  -0.56569  -0.56282  -0.55692  -0.55132
 Alpha  occ. eigenvalues --   -0.54934  -0.54425  -0.54276  -0.53571  -0.53412
 Alpha  occ. eigenvalues --   -0.53239  -0.52871  -0.52657  -0.52312  -0.52106
 Alpha  occ. eigenvalues --   -0.52030  -0.51977  -0.51713  -0.51504  -0.51370
 Alpha  occ. eigenvalues --   -0.50983  -0.50505  -0.50341  -0.50304  -0.50105
 Alpha  occ. eigenvalues --   -0.50009  -0.49449  -0.49087  -0.48831  -0.48782
 Alpha  occ. eigenvalues --   -0.48388  -0.48235  -0.48127  -0.47651  -0.47418
 Alpha  occ. eigenvalues --   -0.47136  -0.46758  -0.46480  -0.46398  -0.46055
 Alpha  occ. eigenvalues --   -0.45698  -0.45641  -0.45550  -0.45454  -0.45306
 Alpha  occ. eigenvalues --   -0.45196  -0.44964  -0.44930  -0.44618  -0.44502
 Alpha  occ. eigenvalues --   -0.44408  -0.44152  -0.43773  -0.43560  -0.43441
 Alpha  occ. eigenvalues --   -0.43137  -0.43014  -0.42809  -0.42411  -0.42358
 Alpha  occ. eigenvalues --   -0.42287  -0.41827  -0.41806  -0.41577  -0.41201
 Alpha  occ. eigenvalues --   -0.41096  -0.40933  -0.40607  -0.40426  -0.40329
 Alpha  occ. eigenvalues --   -0.39986  -0.39944  -0.39691  -0.39396  -0.39332
 Alpha  occ. eigenvalues --   -0.39099  -0.38996  -0.38856  -0.38109  -0.38059
 Alpha  occ. eigenvalues --   -0.37559  -0.37280  -0.37197  -0.36821  -0.36624
 Alpha  occ. eigenvalues --   -0.36456  -0.36279  -0.36214  -0.35982  -0.35923
 Alpha  occ. eigenvalues --   -0.35553  -0.34864  -0.34169  -0.33984  -0.33907
 Alpha  occ. eigenvalues --   -0.33588  -0.32918  -0.31825  -0.30663  -0.30352
 Alpha  occ. eigenvalues --   -0.29167  -0.28764  -0.28281  -0.27917  -0.22868
 Alpha  occ. eigenvalues --   -0.21254
 Alpha virt. eigenvalues --   -0.06769  -0.02334   0.01741   0.03571   0.05855
 Alpha virt. eigenvalues --    0.06067   0.06257   0.06686   0.06823   0.07335
 Alpha virt. eigenvalues --    0.08510   0.10322   0.11315   0.11670   0.11848

 Mulliken charges:
               1
     1  Mg   0.828700
     2  C    0.010947
     3  C   -0.204838
     4  C   -0.165358
     5  C   -0.176456
     6  N   -0.617321
     7  C    0.308335
     8  C   -0.097057
     9  C   -0.185367
    10  C    0.378364
    11  C   -0.305882
    12  C   -0.177659
    13  C   -0.281120
    14  C    0.616957
    15  O   -0.444224
    16  O   -0.509552
    17  N   -0.722097
    18  C    0.358771
    19  C   -0.025902
    20  C    0.032396
    21  C    0.213728
    22  C   -0.377950
    23  C   -0.026480
    24  C   -0.237876
    25  N   -0.692128
    26  C    0.274209
    27  C    0.036584
    28  C    0.097765
    29  C    0.289526
    30  C   -0.394162
    31  C   -0.269522
    32  C   -0.320557
    33  N   -0.699672
    34  C    0.243118
    35  C   -0.021373
    36  C    0.033005
    37  C    0.279731
    38  C   -0.330017
    39  C    0.342022
    40  O   -0.516317
    41  C   -0.287808
    42  C    0.596440
    43  O   -0.430613
    44  O   -0.389686
    45  C   -0.092233
    46  C    0.035667
    47  C   -0.146927
    48  C    0.133392
    49  C   -0.365090
    50  C   -0.252928
    51  C   -0.159060
    52  C   -0.168037
    53  C   -0.037987
    54  C   -0.330256
    55  C   -0.186722
    56  C   -0.127157
    57  C   -0.193931
    58  C   -0.082514
    59  C   -0.291485
    60  C   -0.183337
    61  C   -0.148189
    62  C   -0.147558
    63  C   -0.065384
    64  C   -0.310204
    65  C   -0.329001
    66  H    0.062013
    67  H    0.081206
    68  H    0.092295
    69  H    0.103244
    70  H    0.105554
    71  H    0.108207
    72  H    0.115666
    73  H    0.125761
    74  H    0.121150
    75  H    0.109854
    76  H    0.125976
    77  H    0.137250
    78  H    0.128189
    79  H    0.126878
    80  H    0.127328
    81  H    0.065362
    82  H    0.098773
    83  H    0.120259
    84  H    0.121712
    85  H    0.130171
    86  H    0.090728
    87  H    0.119179
    88  H    0.107387
    89  H    0.099088
    90  H    0.120622
    91  H    0.109171
    92  H    0.132175
    93  H    0.153382
    94  H    0.098465
    95  H    0.169790
    96  H    0.103609
    97  H    0.104908
    98  H    0.116514
    99  H    0.134863
   100  H    0.104091
   101  H    0.099332
   102  H    0.106703
   103  H    0.127009
   104  H    0.122086
   105  H    0.086741
   106  H    0.098279
   107  H    0.119714
   108  H    0.096367
   109  H    0.103850
   110  H    0.042702
   111  H    0.053609
   112  H    0.097156
   113  H    0.113844
   114  H    0.116499
   115  H    0.072523
   116  H    0.081826
   117  H    0.107277
   118  H    0.081527
   119  H    0.097300
   120  H    0.071547
   121  H    0.086996
   122  H    0.115473
   123  H    0.083952
   124  H    0.087753
   125  H    0.074796
   126  H    0.083730
   127  H    0.085665
   128  H    0.090979
   129  H    0.055662
   130  H    0.076796
   131  H    0.100229
   132  H    0.110283
   133  H    0.071489
   134  H    0.109023
   135  H    0.090696
   136  H    0.114472
   137  H    0.110633
 Sum of Mulliken charges =   0.00000

 Dipole moment (field-independent basis, Debye):
    X=              0.9732    Y=              5.9738    Z=             -0.5424  Tot=              6.0768
 Quadrupole moment (field-independent basis, Debye-Ang):
   XX=           -336.1105   YY=           -395.0820   ZZ=           -397.2854
   XY=            -34.1284   XZ=              6.1450   YZ=             -4.4831

 Normal termination of Gaussian 09 at Thu Jun 27 02:38:59 2019.
