 Gaussian 09, Revision D.01,
 Gaussian 09:  ES64L-G09RevD.01 24-Apr-2013

 -------------------------------------
 # td=(NStates=1) CAM-B3LYP/6-31G(d,p)
 -------------------------------------

 --
 TD
 --
 Symbolic Z-matrix:
 Charge =  0 Multiplicity = 1

                         Standard orientation:
 ---------------------------------------------------------------------
 Center     Atomic      Atomic             Coordinates (Angstroms)
 Number     Number       Type             X           Y           Z
 ---------------------------------------------------------------------
      1         12           0       -7.197028    0.610520    0.072331
      2          6           0       -4.794156   -1.863208    0.487879
      3          6           0       -4.907745    2.867135    1.195217
      4          6           0       -9.444509    2.993009   -0.378500
      5          6           0       -9.421197   -1.826838   -0.846389
      6          7           0       -5.041110    0.532142    0.636279
      7          6           0       -4.283026   -0.622615    0.843944
      8          6           0       -2.854851   -0.366060    1.296695
      9          6           0       -3.056035    1.174706    1.650069
     10          6           0       -4.430937    1.606551    1.159921
     11          6           0       -3.080225    1.242432    3.313507
     12          6           0       -1.839831   -0.569363    0.114339
     13          6           0       -0.472056   -0.372235    0.463928
     14          6           0        0.534572   -0.568425   -0.621739
     15          8           0        0.284328   -1.007656   -1.732920
     16          8           0        1.805097   -0.433560   -0.178243
     17          7           0       -7.139957    2.520345    0.400156
     18          6           0       -6.186697    3.389850    0.819407
     19          6           0       -6.479359    4.733608    0.802623
     20          6           0       -7.829441    4.779221    0.428489
     21          6           0       -8.198787    3.401972    0.152657
     22          6           0       -5.733426    5.858786    1.288311
     23          6           0       -8.695347    5.989049    0.325847
     24          6           0       -8.338374    7.240471    0.047846
     25          7           0       -9.096721    0.608169   -0.426160
     26          6           0       -9.911175    1.770511   -0.675763
     27          6           0      -11.140819    1.433550   -1.211598
     28          6           0      -11.174411    0.048610   -1.220861
     29          6           0       -9.886590   -0.438904   -0.875977
     30          6           0      -12.311608    2.369583   -1.396794
     31          6           0      -12.304457   -0.862054   -1.688390
     32          6           0      -12.274937   -1.306214   -3.159498
     33          7           0       -7.152191   -1.423491   -0.161499
     34          6           0       -8.248580   -2.202677   -0.492135
     35          6           0       -7.706597   -3.559953   -0.387510
     36          6           0       -6.409435   -3.530916   -0.059120
     37          6           0       -6.165887   -2.147016    0.144925
     38          6           0       -8.564650   -4.845135   -0.794909
     39          6           0       -5.232922   -4.285250    0.093146
     40          8           0       -5.061229   -5.463143    0.196977
     41          6           0       -4.130094   -3.213888    0.535205
     42          6           0       -3.418235   -3.668208    1.764662
     43          8           0       -3.625373   -3.197390    2.921339
     44          8           0       -2.626178   -4.680689    1.612063
     45          6           0       -2.075527   -5.154250    2.760336
     46          6           0        2.847015   -0.690578   -1.175897
     47          6           0        4.149614   -0.426822   -0.507172
     48          6           0        5.063673    0.363856   -0.965828
     49          6           0        5.059336    1.066095   -2.381994
     50          6           0        6.474459    0.500708   -0.354755
     51          6           0        7.653658   -0.132820   -1.023332
     52          6           0        8.897742   -0.150105   -0.065841
     53          6           0       10.200226   -0.617171   -0.816208
     54          6           0       10.092830   -2.072299   -1.326530
     55          6           0       11.403680   -0.470165    0.087125
     56          6           0       12.747556   -0.544172   -0.564806
     57          6           0       13.916930   -0.110044    0.387680
     58          6           0       15.304953   -0.284523   -0.274699
     59          6           0       15.621483   -1.791631   -0.644971
     60          6           0       16.359342    0.381010    0.587710
     61          6           0       17.845483    0.509319   -0.123291
     62          6           0       18.743447    1.417215    0.645433
     63          6           0       20.200522    1.459863    0.016795
     64          6           0       20.286872    2.284279   -1.225931
     65          6           0       21.110913    2.112370    1.153349
     66          1           0       -4.379716    3.746669    1.518969
     67          1           0      -10.197713    3.904266   -0.540598
     68          1           0      -10.237004   -2.433885   -0.934241
     69          1           0       -2.457520   -0.827651    2.138762
     70          1           0       -2.345826    1.916778    1.242532
     71          1           0       -2.253601    0.898333    3.641778
     72          1           0       -3.324918    2.443979    3.471710
     73          1           0       -3.998360    0.711725    3.732799
     74          1           0       -2.097507   -1.558812   -0.580951
     75          1           0       -2.013763    0.107173   -0.773834
     76          1           0       -0.479579    0.712007    0.899740
     77          1           0       -0.249072   -0.978943    1.431703
     78          1           0       -4.993228    6.357241    0.432557
     79          1           0       -6.304541    6.731353    1.500500
     80          1           0       -5.179318    5.530706    2.187429
     81          1           0       -9.950084    5.871891    0.389210
     82          1           0       -9.139101    7.994316    0.081309
     83          1           0       -7.272243    7.508228   -0.487202
     84          1           0      -12.230568    3.149285   -2.182484
     85          1           0      -13.125098    1.692680   -1.720716
     86          1           0      -12.495042    2.941859   -0.393738
     87          1           0      -12.437686   -1.742710   -1.061513
     88          1           0      -13.164237   -0.358178   -1.532334
     89          1           0      -13.098061   -1.806933   -3.358638
     90          1           0      -12.183708   -0.260079   -3.745515
     91          1           0      -11.269762   -1.745806   -3.175677
     92          1           0       -8.759281   -4.797869   -1.854053
     93          1           0       -8.031623   -5.795836   -0.612503
     94          1           0       -9.268798   -5.038413   -0.023315
     95          1           0       -3.399233   -3.360528   -0.395443
     96          1           0       -1.496729   -4.485844    3.208635
     97          1           0       -2.908716   -5.329140    3.342629
     98          1           0       -1.444726   -6.051754    2.525532
     99          1           0        2.773209   -1.704479   -1.453236
    100          1           0        2.607752   -0.210574   -1.931185
    101          1           0        4.368056   -0.915775    0.490993
    102          1           0        4.277119    0.987885   -2.941964
    103          1           0        5.209448    2.076412   -2.176036
    104          1           0        5.796975    0.389913   -2.876420
    105          1           0        6.540510    1.533816    0.033481
    106          1           0        6.358317   -0.054856    0.580282
    107          1           0        7.422894   -1.201002   -1.131503
    108          1           0        7.773904    0.458152   -2.069890
    109          1           0        9.179436    0.733090    0.276182
    110          1           0        8.763941   -0.849284    0.668065
    111          1           0       10.023110   -0.122593   -1.949460
    112          1           0        9.383306   -2.216436   -2.201524
    113          1           0       11.177117   -2.280735   -1.711056
    114          1           0        9.664212   -2.726951   -0.420496
    115          1           0       11.428569    0.573416    0.490316
    116          1           0       11.260422   -1.218626    0.802580
    117          1           0       12.976687   -1.515395   -0.942780
    118          1           0       12.825405   -0.144281   -1.425425
    119          1           0       13.745032    0.899795    0.385053
    120          1           0       13.839323   -0.411115    1.475161
    121          1           0       15.109445    0.184729   -1.194234
    122          1           0       15.497830   -2.489529    0.244093
    123          1           0       14.817591   -2.094481   -1.417292
    124          1           0       16.564962   -1.953902   -1.107608
    125          1           0       16.002542    1.429044    0.527098
    126          1           0       16.733812   -0.189471    1.638869
    127          1           0       18.165921   -0.561396    0.016944
    128          1           0       17.888432    0.779268   -1.405813
    129          1           0       18.249804    2.434339    0.707907
    130          1           0       18.836583    1.162037    1.732252
    131          1           0       20.486015    0.362699   -0.154879
    132          1           0       19.721067    3.200918   -0.929268
    133          1           0       21.292958    2.558295   -1.504131
    134          1           0       19.654538    1.865267   -1.986587
    135          1           0       21.252597    1.508958    2.125378
    136          1           0       21.935977    2.269066    0.860643
    137          1           0       20.668299    3.279451    1.099674
 ---------------------------------------------------------------------

 SCF Done:  E(RCAM-B3LYP) =  -2932.56694481     A.U. after   16 cycles

 Excitation energies and oscillator strengths:

 Excited State   1:      Singlet-A      2.1300 eV  582.07 nm  f=0.2080  <S**2>=0.000
     240 -> 242       -0.17495
     240 -> 243       -0.19925
     241 -> 242        0.62280
     241 -> 243       -0.17357
 This state for optimization and/or second-order correction.
 Total Energy, E(TD-HF/TD-KS) =  -2932.48866728
 Copying the excited state density for this state as the 1-particle RhoCI density.

 The electronic state is 1-A.
 Alpha  occ. eigenvalues --  -46.83217 -19.26625 -19.25430 -19.21280 -19.20702
 Alpha  occ. eigenvalues --  -19.19199 -14.40642 -14.39376 -14.38953 -14.38945
 Alpha  occ. eigenvalues --  -10.39118 -10.38754 -10.35513 -10.31269 -10.29551
 Alpha  occ. eigenvalues --  -10.29457 -10.29428 -10.29333 -10.29208 -10.29076
 Alpha  occ. eigenvalues --  -10.29002 -10.28810 -10.28786 -10.28777 -10.28581
 Alpha  occ. eigenvalues --  -10.28189 -10.27823 -10.27696 -10.27679 -10.27490
 Alpha  occ. eigenvalues --  -10.27400 -10.27377 -10.27175 -10.27135 -10.27125
 Alpha  occ. eigenvalues --  -10.27050 -10.27004 -10.26893 -10.26766 -10.26761
 Alpha  occ. eigenvalues --  -10.26513 -10.26493 -10.26398 -10.26330 -10.26319
 Alpha  occ. eigenvalues --  -10.26090 -10.26074 -10.25821 -10.25786 -10.25614
 Alpha  occ. eigenvalues --  -10.25462 -10.25315 -10.25192 -10.25162 -10.25148
 Alpha  occ. eigenvalues --  -10.25096 -10.24991 -10.24897 -10.24513 -10.24314
 Alpha  occ. eigenvalues --  -10.24191 -10.24131 -10.24059 -10.23776 -10.23081
 Alpha  occ. eigenvalues --   -3.12544  -1.87226  -1.86789  -1.86749  -1.21198
 Alpha  occ. eigenvalues --   -1.17478  -1.13130  -1.08352  -1.07057  -1.06346
 Alpha  occ. eigenvalues --   -1.03733  -1.02583  -1.01597  -0.93066  -0.91521
 Alpha  occ. eigenvalues --   -0.90813  -0.90248  -0.89593  -0.89218  -0.89150
 Alpha  occ. eigenvalues --   -0.88458  -0.88255  -0.87906  -0.87455  -0.85981
 Alpha  occ. eigenvalues --   -0.85212  -0.84633  -0.84452  -0.83219  -0.83161
 Alpha  occ. eigenvalues --   -0.82569  -0.81520  -0.80704  -0.80076  -0.78460
 Alpha  occ. eigenvalues --   -0.77614  -0.77094  -0.76898  -0.76267  -0.76230
 Alpha  occ. eigenvalues --   -0.75435  -0.75039  -0.74524  -0.73998  -0.73317
 Alpha  occ. eigenvalues --   -0.71913  -0.70353  -0.69943  -0.69633  -0.69278
 Alpha  occ. eigenvalues --   -0.67156  -0.66535  -0.65785  -0.65715  -0.65069
 Alpha  occ. eigenvalues --   -0.64508  -0.63397  -0.63003  -0.62385  -0.61981
 Alpha  occ. eigenvalues --   -0.61124  -0.61072  -0.60704  -0.59708  -0.59426
 Alpha  occ. eigenvalues --   -0.58374  -0.58218  -0.57925  -0.57391  -0.56949
 Alpha  occ. eigenvalues --   -0.56572  -0.56293  -0.55661  -0.55352  -0.54861
 Alpha  occ. eigenvalues --   -0.54445  -0.54285  -0.53719  -0.53647  -0.53302
 Alpha  occ. eigenvalues --   -0.53232  -0.52900  -0.52688  -0.52223  -0.52027
 Alpha  occ. eigenvalues --   -0.51862  -0.51761  -0.51658  -0.51217  -0.51000
 Alpha  occ. eigenvalues --   -0.50922  -0.50331  -0.50123  -0.50058  -0.50040
 Alpha  occ. eigenvalues --   -0.49873  -0.49305  -0.49242  -0.49007  -0.48882
 Alpha  occ. eigenvalues --   -0.48541  -0.48518  -0.48000  -0.47803  -0.47612
 Alpha  occ. eigenvalues --   -0.47196  -0.47193  -0.46464  -0.46336  -0.45885
 Alpha  occ. eigenvalues --   -0.45685  -0.45395  -0.45341  -0.45108  -0.44589
 Alpha  occ. eigenvalues --   -0.44441  -0.44350  -0.44259  -0.44140  -0.43813
 Alpha  occ. eigenvalues --   -0.43620  -0.43527  -0.43281  -0.43179  -0.43148
 Alpha  occ. eigenvalues --   -0.43094  -0.42902  -0.42540  -0.42295  -0.41791
 Alpha  occ. eigenvalues --   -0.41724  -0.41574  -0.41398  -0.41099  -0.41072
 Alpha  occ. eigenvalues --   -0.40921  -0.40821  -0.40698  -0.40554  -0.40528
 Alpha  occ. eigenvalues --   -0.40168  -0.39922  -0.39902  -0.39308  -0.39082
 Alpha  occ. eigenvalues --   -0.39079  -0.38489  -0.38140  -0.38003  -0.37551
 Alpha  occ. eigenvalues --   -0.37356  -0.37343  -0.37032  -0.36648  -0.36048
 Alpha  occ. eigenvalues --   -0.35969  -0.35666  -0.35511  -0.35362  -0.35308
 Alpha  occ. eigenvalues --   -0.34872  -0.34574  -0.34387  -0.33956  -0.33412
 Alpha  occ. eigenvalues --   -0.32708  -0.32638  -0.32321  -0.31852  -0.30984
 Alpha  occ. eigenvalues --   -0.30818  -0.30161  -0.28430  -0.27443  -0.23448
 Alpha  occ. eigenvalues --   -0.21144
 Alpha virt. eigenvalues --   -0.06308  -0.03486   0.01571   0.04257   0.05645
 Alpha virt. eigenvalues --    0.05738   0.06348   0.07008   0.07583   0.08207
 Alpha virt. eigenvalues --    0.08783   0.10783   0.11351   0.11586   0.11691

 Mulliken charges:
               1
     1  Mg   0.828485
     2  C    0.073895
     3  C   -0.205796
     4  C   -0.201582
     5  C   -0.168227
     6  N   -0.636072
     7  C    0.289059
     8  C   -0.118239
     9  C   -0.194516
    10  C    0.397980
    11  C   -0.297314
    12  C   -0.169736
    13  C   -0.262713
    14  C    0.619813
    15  O   -0.481663
    16  O   -0.495678
    17  N   -0.724973
    18  C    0.290782
    19  C    0.075166
    20  C    0.014058
    21  C    0.282908
    22  C   -0.384963
    23  C   -0.078613
    24  C   -0.247919
    25  N   -0.715862
    26  C    0.303577
    27  C    0.048972
    28  C   -0.014545
    29  C    0.266374
    30  C   -0.366467
    31  C   -0.256057
    32  C   -0.278474
    33  N   -0.726260
    34  C    0.359051
    35  C   -0.074169
    36  C    0.105885
    37  C    0.300323
    38  C   -0.373804
    39  C    0.338900
    40  O   -0.427028
    41  C   -0.349826
    42  C    0.626131
    43  O   -0.537833
    44  O   -0.391729
    45  C   -0.071601
    46  C    0.058736
    47  C   -0.141114
    48  C    0.073074
    49  C   -0.342459
    50  C   -0.221870
    51  C   -0.178772
    52  C   -0.156435
    53  C   -0.079961
    54  C   -0.298613
    55  C   -0.162830
    56  C   -0.190828
    57  C   -0.188197
    58  C   -0.057431
    59  C   -0.315423
    60  C   -0.168867
    61  C   -0.175569
    62  C   -0.151539
    63  C   -0.069773
    64  C   -0.302163
    65  C   -0.276074
    66  H    0.059703
    67  H    0.083637
    68  H    0.100023
    69  H    0.129891
    70  H    0.104602
    71  H    0.119778
    72  H    0.082707
    73  H    0.126010
    74  H    0.096496
    75  H    0.114122
    76  H    0.125926
    77  H    0.125906
    78  H    0.088184
    79  H    0.134104
    80  H    0.118284
    81  H    0.081344
    82  H    0.107239
    83  H    0.103019
    84  H    0.121544
    85  H    0.112795
    86  H    0.116704
    87  H    0.098998
    88  H    0.103699
    89  H    0.117967
    90  H    0.085626
    91  H    0.109253
    92  H    0.137703
    93  H    0.137268
    94  H    0.134937
    95  H    0.144672
    96  H    0.124128
    97  H    0.133654
    98  H    0.109540
    99  H    0.125872
   100  H    0.114489
   101  H    0.087301
   102  H    0.111631
   103  H    0.122539
   104  H    0.121569
   105  H    0.102138
   106  H    0.089869
   107  H    0.107470
   108  H    0.083077
   109  H    0.103212
   110  H    0.097569
   111  H    0.055582
   112  H    0.100957
   113  H    0.095586
   114  H    0.072121
   115  H    0.086744
   116  H    0.107414
   117  H    0.090008
   118  H    0.100936
   119  H    0.102902
   120  H    0.085278
   121  H    0.096509
   122  H    0.094760
   123  H    0.083907
   124  H    0.111178
   125  H    0.095416
   126  H    0.082907
   127  H    0.092428
   128  H    0.046739
   129  H    0.080680
   130  H    0.089036
   131  H    0.076445
   132  H    0.095580
   133  H    0.109230
   134  H    0.107215
   135  H    0.092945
   136  H    0.105089
   137  H    0.062617
 Sum of Mulliken charges =   0.00000

 Dipole moment (field-independent basis, Debye):
    X=              0.9162    Y=              3.0140    Z=             -0.6139  Tot=              3.2094
 Quadrupole moment (field-independent basis, Debye-Ang):
   XX=           -320.0823   YY=           -390.3203   ZZ=           -401.4670
   XY=            -11.5338   XZ=             12.0098   YZ=             -3.0572

 Normal termination of Gaussian 09 at Sun Jun 30 00:46:50 2019.
