 Gaussian 09, Revision D.01,
 Gaussian 09:  ES64L-G09RevD.01 24-Apr-2013

 -------------------------------------
 # td=(NStates=1) CAM-B3LYP/6-31G(d,p)
 -------------------------------------

 --
 TD
 --
 Symbolic Z-matrix:
 Charge =  0 Multiplicity = 1

                         Standard orientation:
 ---------------------------------------------------------------------
 Center     Atomic      Atomic             Coordinates (Angstroms)
 Number     Number       Type             X           Y           Z
 ---------------------------------------------------------------------
      1         12           0       -7.109081    0.619859    0.066012
      2          6           0       -4.817436   -1.896904    0.480529
      3          6           0       -4.819429    2.740699    1.250415
      4          6           0       -9.381339    3.140107   -0.352225
      5          6           0       -9.570361   -1.728255   -0.807493
      6          7           0       -5.115344    0.406493    0.690307
      7          6           0       -4.290851   -0.703504    0.755648
      8          6           0       -2.959673   -0.342137    1.254000
      9          6           0       -3.068966    1.051490    1.677412
     10          6           0       -4.427301    1.383160    1.174246
     11          6           0       -2.868696    1.297478    3.152455
     12          6           0       -2.004274   -0.497465    0.052649
     13          6           0       -0.439587   -0.450570    0.521412
     14          6           0        0.460110   -0.769093   -0.522119
     15          8           0        0.156606   -1.193931   -1.682285
     16          8           0        1.711997   -0.529466   -0.120103
     17          7           0       -7.027599    2.621479    0.459248
     18          6           0       -6.037185    3.295452    0.952079
     19          6           0       -6.327033    4.726052    0.813970
     20          6           0       -7.655970    4.856258    0.340467
     21          6           0       -8.170188    3.494908    0.173584
     22          6           0       -5.410356    5.816046    1.328779
     23          6           0       -8.403220    6.162904    0.080831
     24          6           0       -7.925110    7.384544    0.010922
     25          7           0       -9.119523    0.700542   -0.506502
     26          6           0       -9.837441    1.906387   -0.626923
     27          6           0      -11.232212    1.575636   -1.046977
     28          6           0      -11.255610    0.101598   -1.232639
     29          6           0       -9.980964   -0.352760   -0.863871
     30          6           0      -12.186227    2.524456   -1.284405
     31          6           0      -12.409218   -0.759790   -1.703662
     32          6           0      -12.404969   -1.111572   -3.310728
     33          7           0       -7.253267   -1.308561   -0.094269
     34          6           0       -8.266650   -2.171087   -0.486224
     35          6           0       -7.869009   -3.638962   -0.558973
     36          6           0       -6.500476   -3.563223   -0.081428
     37          6           0       -6.177909   -2.115932    0.190612
     38          6           0       -8.569255   -4.753026   -0.877340
     39          6           0       -5.324283   -4.345320    0.169164
     40          8           0       -5.199034   -5.526708    0.018073
     41          6           0       -4.133471   -3.225169    0.574232
     42          6           0       -3.516805   -3.622919    1.817877
     43          8           0       -3.630683   -3.051121    2.879021
     44          8           0       -2.745858   -4.761671    1.643339
     45          6           0       -2.233284   -5.260834    2.903009
     46          6           0        2.800133   -0.645021   -1.229385
     47          6           0        4.124076   -0.558670   -0.605512
     48          6           0        5.084626    0.380632   -0.936223
     49          6           0        5.072957    1.187651   -2.164380
     50          6           0        6.373794    0.414122   -0.187291
     51          6           0        7.577078   -0.141954   -0.930663
     52          6           0        8.990553   -0.265031   -0.155856
     53          6           0       10.217468   -0.728687   -0.905133
     54          6           0       10.114614   -2.210296   -1.202215
     55          6           0       11.453920   -0.600167   -0.034876
     56          6           0       12.789874   -0.617709   -0.694407
     57          6           0       14.010550   -0.326813    0.310047
     58          6           0       15.375941   -0.263174   -0.369970
     59          6           0       15.663110   -1.759280   -0.981745
     60          6           0       16.411727    0.262708    0.534199
     61          6           0       17.775144    0.503979   -0.177515
     62          6           0       18.674882    1.301959    0.711976
     63          6           0       20.120224    1.630359    0.069773
     64          6           0       20.032391    2.506211   -1.155138
     65          6           0       21.135477    2.300576    1.169393
     66          1           0       -4.080484    3.505165    1.617661
     67          1           0      -10.169620    3.936104   -0.382457
     68          1           0      -10.408107   -2.445039   -0.852578
     69          1           0       -2.536904   -0.962954    2.039592
     70          1           0       -2.267811    1.616764    1.266682
     71          1           0       -1.961847    1.159112    3.521361
     72          1           0       -3.339916    2.219841    3.563547
     73          1           0       -3.436094    0.592992    3.865014
     74          1           0       -2.013712   -1.611707   -0.384773
     75          1           0       -2.361406    0.014344   -0.757793
     76          1           0       -0.216538    0.362634    1.174022
     77          1           0       -0.399448   -1.391321    1.207580
     78          1           0       -4.723586    6.296152    0.736703
     79          1           0       -6.137991    6.493837    1.767711
     80          1           0       -4.979420    5.379640    2.184114
     81          1           0       -9.453181    5.849120    0.328422
     82          1           0       -8.564866    8.216591   -0.146027
     83          1           0       -6.919068    7.578169   -0.045871
     84          1           0      -11.848701    3.410783   -1.874127
     85          1           0      -13.202009    2.090685   -1.615306
     86          1           0      -12.527744    3.048325   -0.361414
     87          1           0      -12.597011   -1.660082   -1.231671
     88          1           0      -13.243434   -0.285929   -1.514852
     89          1           0      -13.383892   -1.600685   -3.562589
     90          1           0      -12.215397   -0.037261   -3.793482
     91          1           0      -11.558437   -1.797029   -3.733536
     92          1           0       -9.091465   -4.903838   -1.920732
     93          1           0       -8.099105   -5.507365   -0.760691
     94          1           0       -9.409302   -4.982609   -0.131927
     95          1           0       -3.373333   -3.576922   -0.222761
     96          1           0       -1.788915   -4.452937    3.289073
     97          1           0       -3.014897   -5.321259    3.595796
     98          1           0       -1.563684   -6.054862    2.711382
     99          1           0        2.641940   -1.519506   -1.732796
    100          1           0        2.494976    0.052028   -1.985273
    101          1           0        4.149716   -1.235198    0.352336
    102          1           0        4.085498    1.184319   -2.748441
    103          1           0        5.208528    2.232665   -1.860875
    104          1           0        5.678326    0.902800   -3.087453
    105          1           0        6.576354    1.326441    0.088585
    106          1           0        6.532727   -0.341187    0.852551
    107          1           0        7.383471   -1.254051   -1.261759
    108          1           0        7.824225    0.565018   -1.784439
    109          1           0        9.073869    0.641144    0.431510
    110          1           0        8.715892   -0.846692    0.808131
    111          1           0       10.143654   -0.122188   -1.912869
    112          1           0        9.326863   -2.461449   -1.958581
    113          1           0       11.136001   -2.377502   -1.560398
    114          1           0        9.884419   -2.817092   -0.267384
    115          1           0       11.464374    0.444389    0.549288
    116          1           0       11.311143   -1.356468    0.798475
    117          1           0       12.894095   -1.576677   -1.136402
    118          1           0       12.901091    0.068351   -1.478751
    119          1           0       13.900296    0.658218    0.811076
    120          1           0       14.069503   -0.986415    1.065105
    121          1           0       15.247775    0.294529   -1.216188
    122          1           0       15.484005   -2.589438    0.010080
    123          1           0       15.081961   -1.991704   -1.917522
    124          1           0       16.707361   -1.829647   -1.326743
    125          1           0       16.219052    1.366483    1.009624
    126          1           0       16.591027   -0.436423    1.273527
    127          1           0       18.264071   -0.440407   -0.275176
    128          1           0       17.676674    1.023478   -1.101423
    129          1           0       18.028313    2.290407    1.123050
    130          1           0       18.843245    0.594744    1.781047
    131          1           0       20.850632    0.831589   -0.173237
    132          1           0       19.364750    3.577289   -0.832759
    133          1           0       21.097239    2.737744   -1.434901
    134          1           0       19.502550    1.937686   -2.040864
    135          1           0       21.170258    1.918423    2.285660
    136          1           0       22.129223    2.005247    0.554592
    137          1           0       21.103755    3.355513    1.279361
 ---------------------------------------------------------------------

 SCF Done:  E(RCAM-B3LYP) =  -2932.60937478     A.U. after   17 cycles

 Excitation energies and oscillator strengths:

 Excited State   1:      Singlet-A      2.0269 eV  611.68 nm  f=0.2328  <S**2>=0.000
     240 -> 243        0.24510
     241 -> 242        0.65200
 This state for optimization and/or second-order correction.
 Total Energy, E(TD-HF/TD-KS) =  -2932.53488647
 Copying the excited state density for this state as the 1-particle RhoCI density.

 The electronic state is 1-A.
 Alpha  occ. eigenvalues --  -46.83397 -19.25932 -19.25000 -19.20679 -19.20576
 Alpha  occ. eigenvalues --  -19.19594 -14.41602 -14.40428 -14.38641 -14.38467
 Alpha  occ. eigenvalues --  -10.38653 -10.38387 -10.35236 -10.31145 -10.30550
 Alpha  occ. eigenvalues --  -10.30207 -10.29994 -10.29984 -10.29545 -10.29462
 Alpha  occ. eigenvalues --  -10.28842 -10.28608 -10.28525 -10.28381 -10.28359
 Alpha  occ. eigenvalues --  -10.28152 -10.28146 -10.28094 -10.28081 -10.27780
 Alpha  occ. eigenvalues --  -10.27709 -10.27694 -10.27608 -10.27319 -10.27217
 Alpha  occ. eigenvalues --  -10.27185 -10.27180 -10.27103 -10.26930 -10.26872
 Alpha  occ. eigenvalues --  -10.26722 -10.26707 -10.26637 -10.26526 -10.26396
 Alpha  occ. eigenvalues --  -10.26316 -10.26277 -10.26232 -10.26230 -10.26127
 Alpha  occ. eigenvalues --  -10.26060 -10.25750 -10.25472 -10.25312 -10.25219
 Alpha  occ. eigenvalues --  -10.25180 -10.25158 -10.24962 -10.24904 -10.24885
 Alpha  occ. eigenvalues --  -10.24683 -10.24601 -10.24523 -10.24174 -10.24093
 Alpha  occ. eigenvalues --   -3.12632  -1.87320  -1.86884  -1.86818  -1.16829
 Alpha  occ. eigenvalues --   -1.15904  -1.12073  -1.08482  -1.06916  -1.05518
 Alpha  occ. eigenvalues --   -1.02577  -1.02553  -0.99823  -0.92608  -0.91872
 Alpha  occ. eigenvalues --   -0.91378  -0.90990  -0.89958  -0.89712  -0.89164
 Alpha  occ. eigenvalues --   -0.88070  -0.87629  -0.87469  -0.87327  -0.86543
 Alpha  occ. eigenvalues --   -0.85081  -0.84565  -0.83735  -0.83627  -0.83295
 Alpha  occ. eigenvalues --   -0.81862  -0.81456  -0.81033  -0.80332  -0.79662
 Alpha  occ. eigenvalues --   -0.78062  -0.76796  -0.76230  -0.76166  -0.74599
 Alpha  occ. eigenvalues --   -0.74132  -0.74047  -0.73814  -0.73521  -0.72398
 Alpha  occ. eigenvalues --   -0.72016  -0.70794  -0.69565  -0.69072  -0.68290
 Alpha  occ. eigenvalues --   -0.67514  -0.66046  -0.65897  -0.65270  -0.64963
 Alpha  occ. eigenvalues --   -0.64077  -0.63925  -0.63325  -0.62584  -0.61755
 Alpha  occ. eigenvalues --   -0.61459  -0.61390  -0.60519  -0.60337  -0.59364
 Alpha  occ. eigenvalues --   -0.58849  -0.58098  -0.57465  -0.57009  -0.56763
 Alpha  occ. eigenvalues --   -0.56553  -0.55783  -0.55327  -0.54968  -0.54738
 Alpha  occ. eigenvalues --   -0.54665  -0.53955  -0.53688  -0.53480  -0.53141
 Alpha  occ. eigenvalues --   -0.52928  -0.52582  -0.52242  -0.51988  -0.51706
 Alpha  occ. eigenvalues --   -0.51588  -0.51305  -0.51036  -0.50915  -0.50708
 Alpha  occ. eigenvalues --   -0.50415  -0.50320  -0.50148  -0.49736  -0.49402
 Alpha  occ. eigenvalues --   -0.49363  -0.49269  -0.48953  -0.48840  -0.48647
 Alpha  occ. eigenvalues --   -0.48480  -0.48197  -0.47975  -0.47870  -0.47242
 Alpha  occ. eigenvalues --   -0.47031  -0.46454  -0.46159  -0.46115  -0.46010
 Alpha  occ. eigenvalues --   -0.45654  -0.45499  -0.45437  -0.45305  -0.45050
 Alpha  occ. eigenvalues --   -0.44623  -0.44575  -0.44264  -0.44078  -0.44056
 Alpha  occ. eigenvalues --   -0.43749  -0.43694  -0.43314  -0.43218  -0.43036
 Alpha  occ. eigenvalues --   -0.42863  -0.42655  -0.42492  -0.42314  -0.42192
 Alpha  occ. eigenvalues --   -0.41991  -0.41961  -0.41665  -0.41418  -0.41350
 Alpha  occ. eigenvalues --   -0.40913  -0.40731  -0.40670  -0.40511  -0.40463
 Alpha  occ. eigenvalues --   -0.40084  -0.39736  -0.39677  -0.39284  -0.39096
 Alpha  occ. eigenvalues --   -0.38850  -0.38752  -0.38465  -0.38135  -0.38024
 Alpha  occ. eigenvalues --   -0.37668  -0.37133  -0.36795  -0.36614  -0.36348
 Alpha  occ. eigenvalues --   -0.36303  -0.35831  -0.35469  -0.35461  -0.35358
 Alpha  occ. eigenvalues --   -0.35337  -0.35094  -0.35020  -0.33708  -0.33648
 Alpha  occ. eigenvalues --   -0.32979  -0.32812  -0.32133  -0.30402  -0.29867
 Alpha  occ. eigenvalues --   -0.29586  -0.29330  -0.27203  -0.25902  -0.23248
 Alpha  occ. eigenvalues --   -0.20750
 Alpha virt. eigenvalues --   -0.06143  -0.03099   0.01064   0.03882   0.04566
 Alpha virt. eigenvalues --    0.05536   0.05923   0.06003   0.06740   0.07727
 Alpha virt. eigenvalues --    0.08518   0.10997   0.11193   0.11280   0.11370

 Mulliken charges:
               1
     1  Mg   0.816125
     2  C    0.047442
     3  C   -0.230682
     4  C   -0.180216
     5  C   -0.163286
     6  N   -0.646527
     7  C    0.316722
     8  C   -0.156275
     9  C   -0.118656
    10  C    0.386897
    11  C   -0.330394
    12  C   -0.187668
    13  C   -0.283122
    14  C    0.647457
    15  O   -0.531359
    16  O   -0.502824
    17  N   -0.712540
    18  C    0.377936
    19  C   -0.035931
    20  C   -0.017962
    21  C    0.275600
    22  C   -0.377854
    23  C   -0.030124
    24  C   -0.256428
    25  N   -0.700687
    26  C    0.313203
    27  C    0.062619
    28  C    0.008511
    29  C    0.279576
    30  C   -0.438608
    31  C   -0.229981
    32  C   -0.310332
    33  N   -0.717906
    34  C    0.247593
    35  C    0.112528
    36  C   -0.022677
    37  C    0.300979
    38  C   -0.396854
    39  C    0.341378
    40  O   -0.437154
    41  C   -0.364147
    42  C    0.648959
    43  O   -0.491759
    44  O   -0.487892
    45  C   -0.073243
    46  C    0.009233
    47  C   -0.132112
    48  C    0.121587
    49  C   -0.375801
    50  C   -0.193089
    51  C   -0.176719
    52  C   -0.177034
    53  C   -0.054079
    54  C   -0.293945
    55  C   -0.171308
    56  C   -0.185017
    57  C   -0.171532
    58  C   -0.057941
    59  C   -0.310442
    60  C   -0.160993
    61  C   -0.170762
    62  C   -0.148054
    63  C   -0.062091
    64  C   -0.273902
    65  C   -0.306744
    66  H    0.074091
    67  H    0.090302
    68  H    0.105524
    69  H    0.129726
    70  H    0.120611
    71  H    0.119553
    72  H    0.112258
    73  H    0.108590
    74  H    0.108949
    75  H    0.127640
    76  H    0.140740
    77  H    0.143957
    78  H    0.129425
    79  H    0.124916
    80  H    0.119627
    81  H    0.089386
    82  H    0.107306
    83  H    0.110918
    84  H    0.125942
    85  H    0.108332
    86  H    0.119344
    87  H    0.108762
    88  H    0.111626
    89  H    0.102365
    90  H    0.099559
    91  H    0.102758
    92  H    0.120234
    93  H    0.148186
    94  H    0.121271
    95  H    0.171001
    96  H    0.127933
    97  H    0.132272
    98  H    0.127409
    99  H    0.149652
   100  H    0.130479
   101  H    0.106344
   102  H    0.104927
   103  H    0.122031
   104  H    0.134707
   105  H    0.110616
   106  H    0.062703
   107  H    0.088551
   108  H    0.082785
   109  H    0.086945
   110  H    0.063636
   111  H    0.077692
   112  H    0.098142
   113  H    0.098417
   114  H    0.099399
   115  H    0.066176
   116  H    0.094142
   117  H    0.103003
   118  H    0.101402
   119  H    0.081155
   120  H    0.096619
   121  H    0.089893
   122  H    0.060468
   123  H    0.108730
   124  H    0.102318
   125  H    0.068418
   126  H    0.102167
   127  H    0.106838
   128  H    0.097967
   129  H    0.063191
   130  H    0.045385
   131  H    0.103320
   132  H    0.067561
   133  H    0.101264
   134  H    0.097719
   135  H    0.094900
   136  H    0.068486
   137  H    0.111643
 Sum of Mulliken charges =   0.00000

 Dipole moment (field-independent basis, Debye):
    X=              2.7115    Y=              3.8191    Z=              0.3378  Tot=              4.6960
 Quadrupole moment (field-independent basis, Debye-Ang):
   XX=           -330.1404   YY=           -391.7978   ZZ=           -397.4167
   XY=            -11.4010   XZ=             -4.9610   YZ=             -3.1851

 Normal termination of Gaussian 09 at Thu Jun 27 15:30:18 2019.
