 Gaussian 09, Revision D.01,
 Gaussian 09:  ES64L-G09RevD.01 24-Apr-2013

 -------------------------------------
 # td=(NStates=1) CAM-B3LYP/6-31G(d,p)
 -------------------------------------

 --
 TD
 --
 Symbolic Z-matrix:
 Charge =  0 Multiplicity = 1

                         Standard orientation:
 ---------------------------------------------------------------------
 Center     Atomic      Atomic             Coordinates (Angstroms)
 Number     Number       Type             X           Y           Z
 ---------------------------------------------------------------------
      1         12           0       -7.174047    0.468325    0.130266
      2          6           0       -4.808315   -1.917748    0.440193
      3          6           0       -4.933138    2.896714    1.321730
      4          6           0       -9.555323    3.104366   -0.441262
      5          6           0       -9.506968   -1.879829   -0.894271
      6          7           0       -5.138307    0.516996    0.717436
      7          6           0       -4.326988   -0.569854    0.749438
      8          6           0       -2.916884   -0.218883    1.204633
      9          6           0       -3.080729    1.130292    1.746081
     10          6           0       -4.491547    1.579810    1.206374
     11          6           0       -3.156610    1.072127    3.301396
     12          6           0       -1.924000   -0.382710   -0.014023
     13          6           0       -0.412139   -0.296586    0.459210
     14          6           0        0.479804   -0.513217   -0.656461
     15          8           0        0.246023   -0.933501   -1.775134
     16          8           0        1.756053   -0.165652   -0.248637
     17          7           0       -7.322986    2.510963    0.320233
     18          6           0       -6.220603    3.237263    0.881607
     19          6           0       -6.610017    4.680128    0.858067
     20          6           0       -7.960788    4.792988    0.436326
     21          6           0       -8.293466    3.401623    0.104901
     22          6           0       -5.789093    5.806604    1.396418
     23          6           0       -8.799910    5.897382    0.245288
     24          6           0       -8.255592    7.171047   -0.051001
     25          7           0       -9.143381    0.570530   -0.461665
     26          6           0       -9.928050    1.688108   -0.636884
     27          6           0      -11.193359    1.278447   -1.090127
     28          6           0      -11.178883   -0.049874   -1.303629
     29          6           0       -9.954086   -0.488859   -0.959831
     30          6           0      -12.374394    2.344616   -1.288115
     31          6           0      -12.282457   -0.870014   -1.865570
     32          6           0      -12.109009   -1.205387   -3.394301
     33          7           0       -7.190437   -1.440349   -0.214210
     34          6           0       -8.307035   -2.285407   -0.463132
     35          6           0       -7.815004   -3.666824   -0.409184
     36          6           0       -6.376368   -3.551665   -0.135310
     37          6           0       -6.071714   -2.169507    0.027655
     38          6           0       -8.585599   -5.005747   -0.483606
     39          6           0       -5.219041   -4.356054    0.122171
     40          8           0       -5.036847   -5.574548    0.167244
     41          6           0       -4.157876   -3.233488    0.497302
     42          6           0       -3.426249   -3.508383    1.846656
     43          8           0       -3.674417   -2.992511    2.871570
     44          8           0       -2.453467   -4.506906    1.719795
     45          6           0       -1.953460   -4.934868    2.864678
     46          6           0        2.700542   -0.438641   -1.245597
     47          6           0        4.045183   -0.431464   -0.487331
     48          6           0        5.053543    0.291952   -0.851866
     49          6           0        5.130315    1.293442   -2.093218
     50          6           0        6.425748    0.250827   -0.070368
     51          6           0        7.672178   -0.160745   -0.961203
     52          6           0        8.917270   -0.219534   -0.055329
     53          6           0       10.225975   -0.639097   -0.898023
     54          6           0       10.176003   -2.108053   -1.363431
     55          6           0       11.461997   -0.367551   -0.070954
     56          6           0       12.828029   -0.570878   -0.664707
     57          6           0       13.954326   -0.061259    0.245418
     58          6           0       15.455199   -0.231740   -0.422971
     59          6           0       15.912353   -1.722649   -0.721596
     60          6           0       16.457965    0.477060    0.573010
     61          6           0       17.802018    0.461135   -0.079368
     62          6           0       18.795002    1.265099    0.789765
     63          6           0       20.309053    1.372958    0.095956
     64          6           0       20.324928    2.287921   -1.231976
     65          6           0       21.222639    2.009054    1.045981
     66          1           0       -4.389873    3.613829    1.859984
     67          1           0      -10.166106    4.041534   -0.742882
     68          1           0      -10.218246   -2.465918   -1.270351
     69          1           0       -2.787073   -0.821432    1.994520
     70          1           0       -2.456789    1.868542    1.324851
     71          1           0       -2.427142    0.461987    3.674885
     72          1           0       -3.305240    2.098859    3.801313
     73          1           0       -4.072955    0.575001    3.855892
     74          1           0       -2.070855   -1.171048   -0.506973
     75          1           0       -2.109517    0.366432   -0.636139
     76          1           0       -0.405920    0.613861    1.051676
     77          1           0       -0.200228   -1.021696    1.144393
     78          1           0       -5.010547    6.225382    0.607106
     79          1           0       -6.418240    6.876950    1.434457
     80          1           0       -5.372737    5.475773    2.379787
     81          1           0       -9.894635    5.803473    0.324985
     82          1           0       -8.848594    8.101030   -0.022311
     83          1           0       -7.166001    7.398899   -0.256679
     84          1           0      -11.868405    3.084037   -1.881019
     85          1           0      -13.310860    2.183139   -1.843978
     86          1           0      -12.926551    2.964466   -0.475074
     87          1           0      -12.462613   -1.834328   -1.451940
     88          1           0      -13.267357   -0.349085   -1.569907
     89          1           0      -13.023604   -1.682981   -3.698663
     90          1           0      -11.862317   -0.068531   -3.951145
     91          1           0      -11.271530   -2.014491   -3.474468
     92          1           0       -9.069969   -4.775986   -1.609970
     93          1           0       -7.931792   -5.930123   -0.534397
     94          1           0       -9.445025   -5.229732    0.260040
     95          1           0       -3.437341   -3.266085   -0.283628
     96          1           0       -1.264371   -4.298451    3.387235
     97          1           0       -2.798473   -5.091198    3.669613
     98          1           0       -1.521157   -5.970833    2.932445
     99          1           0        2.488495   -1.342843   -1.611011
    100          1           0        2.578510    0.373170   -2.136712
    101          1           0        3.997902   -1.184781    0.462577
    102          1           0        4.211644    1.380100   -2.753297
    103          1           0        5.563675    2.218876   -1.655897
    104          1           0        5.878416    0.868609   -2.713055
    105          1           0        6.614603    1.339243    0.383055
    106          1           0        6.440304   -0.408190    0.629911
    107          1           0        7.539962   -1.193532   -1.476230
    108          1           0        7.773637    0.411121   -1.952026
    109          1           0        9.205059    0.772326    0.268407
    110          1           0        9.042663   -1.026563    0.803169
    111          1           0       10.146819    0.134280   -1.710653
    112          1           0        9.243905   -2.163085   -1.893197
    113          1           0       11.009655   -2.462505   -1.993665
    114          1           0       10.266505   -2.772322   -0.569808
    115          1           0       11.397344    0.794784    0.311288
    116          1           0       11.274781   -0.999447    0.896838
    117          1           0       12.963394   -1.727629   -0.969234
    118          1           0       13.301110    0.079234   -1.641310
    119          1           0       13.758958    0.857621    0.553814
    120          1           0       13.903125   -0.729440    1.224317
    121          1           0       15.580292    0.453527   -1.284220
    122          1           0       16.012838   -2.049118    0.322963
    123          1           0       15.045968   -2.294363   -1.354655
    124          1           0       16.843152   -1.869329   -1.557318
    125          1           0       16.019606    1.426853    0.931314
    126          1           0       16.488800   -0.082385    1.498507
    127          1           0       18.206232   -0.669103   -0.152494
    128          1           0       17.728126    0.992888   -1.051038
    129          1           0       18.370975    2.303425    0.860429
    130          1           0       19.012806    0.861283    1.750213
    131          1           0       20.422795    0.558155   -0.136120
    132          1           0       19.746833    3.220912   -1.146885
    133          1           0       21.482776    2.212930   -1.597431
    134          1           0       19.633948    1.663581   -1.985475
    135          1           0       21.056124    1.521548    2.042581
    136          1           0       22.143494    2.011831    0.685388
    137          1           0       21.090169    3.008440    1.315169
 ---------------------------------------------------------------------

 SCF Done:  E(RCAM-B3LYP) =  -2932.54165907     A.U. after   18 cycles

 Excitation energies and oscillator strengths:

 Excited State   1:      Singlet-A      2.0507 eV  604.58 nm  f=0.1666  <S**2>=0.000
     240 -> 243       -0.29992
     241 -> 242        0.63143
 This state for optimization and/or second-order correction.
 Total Energy, E(TD-HF/TD-KS) =  -2932.46629554
 Copying the excited state density for this state as the 1-particle RhoCI density.

 The electronic state is 1-A.
 Alpha  occ. eigenvalues --  -46.83469 -19.26160 -19.25679 -19.22669 -19.22062
 Alpha  occ. eigenvalues --  -19.20408 -14.42758 -14.40217 -14.39161 -14.38460
 Alpha  occ. eigenvalues --  -10.40139 -10.39574 -10.35256 -10.32574 -10.31706
 Alpha  occ. eigenvalues --  -10.31355 -10.30813 -10.30610 -10.30363 -10.29728
 Alpha  occ. eigenvalues --  -10.29263 -10.29092 -10.29082 -10.28595 -10.28498
 Alpha  occ. eigenvalues --  -10.28473 -10.28316 -10.28224 -10.27974 -10.27943
 Alpha  occ. eigenvalues --  -10.27730 -10.27686 -10.27562 -10.27545 -10.27400
 Alpha  occ. eigenvalues --  -10.27315 -10.27308 -10.27263 -10.27243 -10.27089
 Alpha  occ. eigenvalues --  -10.27065 -10.26977 -10.26904 -10.26864 -10.26810
 Alpha  occ. eigenvalues --  -10.26547 -10.26517 -10.26454 -10.26425 -10.26291
 Alpha  occ. eigenvalues --  -10.26247 -10.26121 -10.26120 -10.26002 -10.25754
 Alpha  occ. eigenvalues --  -10.25637 -10.25628 -10.25411 -10.25377 -10.24666
 Alpha  occ. eigenvalues --  -10.24424 -10.24296 -10.23836 -10.23488 -10.22172
 Alpha  occ. eigenvalues --   -3.12705  -1.87396  -1.86924  -1.86917  -1.20181
 Alpha  occ. eigenvalues --   -1.18500  -1.12476  -1.09980  -1.09863  -1.05943
 Alpha  occ. eigenvalues --   -1.03074  -1.02808  -1.01642  -0.93868  -0.91970
 Alpha  occ. eigenvalues --   -0.90271  -0.89597  -0.89306  -0.89150  -0.89015
 Alpha  occ. eigenvalues --   -0.88076  -0.87745  -0.87406  -0.87038  -0.86027
 Alpha  occ. eigenvalues --   -0.84802  -0.84042  -0.82934  -0.82679  -0.81382
 Alpha  occ. eigenvalues --   -0.81136  -0.81062  -0.80021  -0.79479  -0.78179
 Alpha  occ. eigenvalues --   -0.77927  -0.76281  -0.76095  -0.75818  -0.75307
 Alpha  occ. eigenvalues --   -0.74952  -0.74746  -0.74218  -0.73434  -0.72561
 Alpha  occ. eigenvalues --   -0.71813  -0.71654  -0.68875  -0.68598  -0.68479
 Alpha  occ. eigenvalues --   -0.67868  -0.67082  -0.66803  -0.65804  -0.64720
 Alpha  occ. eigenvalues --   -0.64631  -0.64015  -0.63567  -0.62986  -0.62512
 Alpha  occ. eigenvalues --   -0.61477  -0.61144  -0.60401  -0.59943  -0.59146
 Alpha  occ. eigenvalues --   -0.58984  -0.58524  -0.57965  -0.57827  -0.57589
 Alpha  occ. eigenvalues --   -0.57188  -0.56124  -0.55455  -0.55170  -0.54932
 Alpha  occ. eigenvalues --   -0.54694  -0.54232  -0.53871  -0.53615  -0.53515
 Alpha  occ. eigenvalues --   -0.53206  -0.52596  -0.52422  -0.51824  -0.51783
 Alpha  occ. eigenvalues --   -0.51165  -0.50971  -0.50892  -0.50797  -0.50267
 Alpha  occ. eigenvalues --   -0.50164  -0.50121  -0.49888  -0.49734  -0.49279
 Alpha  occ. eigenvalues --   -0.49124  -0.48959  -0.48814  -0.48532  -0.48423
 Alpha  occ. eigenvalues --   -0.48077  -0.47953  -0.47493  -0.47460  -0.47195
 Alpha  occ. eigenvalues --   -0.47050  -0.46833  -0.46513  -0.46385  -0.46329
 Alpha  occ. eigenvalues --   -0.45805  -0.45659  -0.45418  -0.45323  -0.45206
 Alpha  occ. eigenvalues --   -0.45074  -0.44498  -0.44443  -0.44312  -0.44231
 Alpha  occ. eigenvalues --   -0.44027  -0.43747  -0.43639  -0.43383  -0.43168
 Alpha  occ. eigenvalues --   -0.42964  -0.42869  -0.42753  -0.42501  -0.42397
 Alpha  occ. eigenvalues --   -0.42280  -0.42113  -0.41988  -0.41760  -0.41535
 Alpha  occ. eigenvalues --   -0.41408  -0.41145  -0.40900  -0.40616  -0.40590
 Alpha  occ. eigenvalues --   -0.39944  -0.39889  -0.39542  -0.39351  -0.39092
 Alpha  occ. eigenvalues --   -0.38824  -0.38633  -0.38155  -0.37731  -0.37377
 Alpha  occ. eigenvalues --   -0.37325  -0.37178  -0.37038  -0.36655  -0.36442
 Alpha  occ. eigenvalues --   -0.36037  -0.35926  -0.35674  -0.35519  -0.35212
 Alpha  occ. eigenvalues --   -0.35185  -0.34980  -0.34955  -0.34518  -0.33615
 Alpha  occ. eigenvalues --   -0.33378  -0.32764  -0.32018  -0.30764  -0.30564
 Alpha  occ. eigenvalues --   -0.30249  -0.28998  -0.27631  -0.26901  -0.23440
 Alpha  occ. eigenvalues --   -0.21417
 Alpha virt. eigenvalues --   -0.06343  -0.04506   0.00223   0.03001   0.05341
 Alpha virt. eigenvalues --    0.05475   0.06103   0.06855   0.07254   0.08234
 Alpha virt. eigenvalues --    0.08719   0.10581   0.11250   0.11530   0.11745

 Mulliken charges:
               1
     1  Mg   0.810121
     2  C    0.087884
     3  C   -0.182422
     4  C   -0.173749
     5  C   -0.114276
     6  N   -0.619111
     7  C    0.286533
     8  C   -0.148136
     9  C   -0.144756
    10  C    0.318832
    11  C   -0.326838
    12  C   -0.158875
    13  C   -0.280494
    14  C    0.622932
    15  O   -0.478186
    16  O   -0.479177
    17  N   -0.701396
    18  C    0.306836
    19  C   -0.003137
    20  C    0.072936
    21  C    0.316420
    22  C   -0.380041
    23  C   -0.118977
    24  C   -0.254108
    25  N   -0.687845
    26  C    0.292318
    27  C   -0.005544
    28  C    0.069391
    29  C    0.224524
    30  C   -0.381094
    31  C   -0.252662
    32  C   -0.284028
    33  N   -0.786658
    34  C    0.293346
    35  C    0.021226
    36  C   -0.016262
    37  C    0.331277
    38  C   -0.354538
    39  C    0.364347
    40  O   -0.473367
    41  C   -0.355423
    42  C    0.617750
    43  O   -0.426421
    44  O   -0.429112
    45  C   -0.090427
    46  C    0.027538
    47  C   -0.147291
    48  C    0.105318
    49  C   -0.351750
    50  C   -0.194912
    51  C   -0.199446
    52  C   -0.167382
    53  C   -0.078421
    54  C   -0.310302
    55  C   -0.153403
    56  C   -0.146820
    57  C   -0.167748
    58  C   -0.076255
    59  C   -0.293529
    60  C   -0.178450
    61  C   -0.172926
    62  C   -0.198137
    63  C   -0.004041
    64  C   -0.316503
    65  C   -0.301350
    66  H    0.094454
    67  H    0.110897
    68  H    0.076348
    69  H    0.125219
    70  H    0.113091
    71  H    0.127647
    72  H    0.104057
    73  H    0.119587
    74  H    0.127109
    75  H    0.123040
    76  H    0.143809
    77  H    0.155887
    78  H    0.110566
    79  H    0.100402
    80  H    0.116669
    81  H    0.112591
    82  H    0.105890
    83  H    0.110231
    84  H    0.120480
    85  H    0.110910
    86  H    0.103008
    87  H    0.105027
    88  H    0.096118
    89  H    0.114922
    90  H    0.086618
    91  H    0.097904
    92  H    0.097141
    93  H    0.157263
    94  H    0.133448
    95  H    0.166621
    96  H    0.103741
    97  H    0.092941
    98  H    0.114935
    99  H    0.132862
   100  H    0.090276
   101  H    0.086231
   102  H    0.107900
   103  H    0.118240
   104  H    0.128683
   105  H    0.083825
   106  H    0.113382
   107  H    0.091498
   108  H    0.094010
   109  H    0.101992
   110  H    0.082440
   111  H    0.081366
   112  H    0.102450
   113  H    0.104481
   114  H    0.106378
   115  H    0.056037
   116  H    0.078126
   117  H    0.076742
   118  H    0.063737
   119  H    0.107858
   120  H    0.060881
   121  H    0.083157
   122  H    0.117596
   123  H    0.085308
   124  H    0.091618
   125  H    0.089464
   126  H    0.089020
   127  H    0.085672
   128  H    0.094370
   129  H    0.080802
   130  H    0.092103
   131  H    0.077835
   132  H    0.113162
   133  H    0.087310
   134  H    0.072918
   135  H    0.079587
   136  H    0.100761
   137  H    0.107550
 Sum of Mulliken charges =   0.00000

 Dipole moment (field-independent basis, Debye):
    X=              0.9747    Y=              4.5451    Z=              1.3533  Tot=              4.8414
 Quadrupole moment (field-independent basis, Debye-Ang):
   XX=           -358.4395   YY=           -393.5028   ZZ=           -400.4203
   XY=            -18.8101   XZ=              7.2956   YZ=             -0.2406

 Normal termination of Gaussian 09 at Mon Jul  1 12:20:29 2019.
