 Gaussian 09, Revision D.01,
 Gaussian 09:  ES64L-G09RevD.01 24-Apr-2013

 -------------------------------------
 # td=(NStates=1) CAM-B3LYP/6-31G(d,p)
 -------------------------------------

 --
 TD
 --
 Symbolic Z-matrix:
 Charge =  0 Multiplicity = 1

                         Standard orientation:
 ---------------------------------------------------------------------
 Center     Atomic      Atomic             Coordinates (Angstroms)
 Number     Number       Type             X           Y           Z
 ---------------------------------------------------------------------
      1         12           0       -7.149997    0.577201    0.146381
      2          6           0       -4.774175   -1.957555    0.432735
      3          6           0       -4.942111    2.779849    1.198538
      4          6           0       -9.513491    3.029238   -0.294478
      5          6           0       -9.513411   -1.770061   -0.819780
      6          7           0       -5.102342    0.416209    0.770801
      7          6           0       -4.332400   -0.638712    0.749243
      8          6           0       -2.888560   -0.378350    1.236660
      9          6           0       -3.074922    1.068817    1.648567
     10          6           0       -4.424951    1.499014    1.186248
     11          6           0       -2.833608    1.351021    3.220113
     12          6           0       -1.837303   -0.618045    0.094764
     13          6           0       -0.400549   -0.413651    0.520323
     14          6           0        0.553898   -0.533768   -0.601028
     15          8           0        0.334706   -0.963217   -1.752326
     16          8           0        1.740436   -0.258349   -0.213176
     17          7           0       -7.178493    2.530346    0.342862
     18          6           0       -6.076036    3.306443    0.794678
     19          6           0       -6.544284    4.696448    0.854870
     20          6           0       -7.786223    4.773986    0.414380
     21          6           0       -8.253433    3.435008    0.116210
     22          6           0       -5.648977    5.838355    1.271294
     23          6           0       -8.770272    5.836789    0.238512
     24          6           0       -8.293063    7.104698   -0.115606
     25          7           0       -9.144525    0.600865   -0.491950
     26          6           0       -9.942604    1.716677   -0.591506
     27          6           0      -11.329439    1.358753   -1.033961
     28          6           0      -11.309205    0.058251   -1.094208
     29          6           0       -9.942291   -0.410325   -0.792734
     30          6           0      -12.428750    2.374664   -1.288682
     31          6           0      -12.439500   -0.795757   -1.642270
     32          6           0      -12.526627   -1.131327   -3.150544
     33          7           0       -7.178764   -1.365992   -0.173633
     34          6           0       -8.196701   -2.242156   -0.431373
     35          6           0       -7.714978   -3.557284   -0.457802
     36          6           0       -6.404351   -3.489868   -0.109828
     37          6           0       -6.103317   -2.134333    0.069351
     38          6           0       -8.572907   -4.920318   -0.872150
     39          6           0       -5.200139   -4.271567    0.064222
     40          8           0       -4.971844   -5.517777    0.048322
     41          6           0       -4.055482   -3.314115    0.469088
     42          6           0       -3.567579   -3.725421    1.831244
     43          8           0       -3.752034   -3.029171    2.886039
     44          8           0       -2.683331   -4.641476    1.642222
     45          6           0       -2.014064   -5.179685    2.905548
     46          6           0        2.808884   -0.518860   -1.201158
     47          6           0        4.143842   -0.240788   -0.568223
     48          6           0        5.223849    0.460694   -0.907233
     49          6           0        5.171869    1.330982   -2.176914
     50          6           0        6.425513    0.477639   -0.175804
     51          6           0        7.585969   -0.068087   -0.981505
     52          6           0        8.951321   -0.086276   -0.224310
     53          6           0       10.221541   -0.564093   -1.000271
     54          6           0       10.098497   -1.943570   -1.445521
     55          6           0       11.462563   -0.299367    0.036003
     56          6           0       12.799415   -0.503143   -0.712565
     57          6           0       13.981639   -0.280783    0.197462
     58          6           0       15.319127   -0.278258   -0.415615
     59          6           0       15.675214   -1.741473   -0.939006
     60          6           0       16.473335    0.163987    0.602645
     61          6           0       17.754031    0.491890   -0.180555
     62          6           0       18.732545    1.268923    0.769614
     63          6           0       20.227465    1.417656    0.168197
     64          6           0       20.250291    2.186859   -1.064927
     65          6           0       21.207640    1.945028    1.235920
     66          1           0       -4.383605    3.582833    1.550679
     67          1           0      -10.236172    3.834873   -0.456925
     68          1           0      -10.216448   -2.542863   -1.074219
     69          1           0       -2.483195   -1.075186    2.121246
     70          1           0       -2.232757    1.615705    1.328946
     71          1           0       -1.902342    0.997843    3.642618
     72          1           0       -3.264929    2.363553    3.338282
     73          1           0       -3.458909    0.560518    3.616588
     74          1           0       -2.098675   -1.629570   -0.185478
     75          1           0       -2.102990    0.124852   -0.703742
     76          1           0       -0.341807    0.620482    0.874488
     77          1           0       -0.110540   -1.050638    1.391234
     78          1           0       -4.991041    6.214144    0.417487
     79          1           0       -6.141221    6.881211    1.512216
     80          1           0       -5.007754    5.346949    2.119414
     81          1           0       -9.846196    5.781438    0.255439
     82          1           0       -8.947884    8.064623    0.036639
     83          1           0       -7.111256    7.365017   -0.223624
     84          1           0      -12.203407    3.025437   -2.111366
     85          1           0      -13.256163    1.665419   -1.542438
     86          1           0      -12.711903    2.963002   -0.223377
     87          1           0      -12.380938   -1.759476   -1.022824
     88          1           0      -13.275118   -0.397952   -1.286567
     89          1           0      -13.431479   -1.771835   -3.209936
     90          1           0      -12.570450   -0.271674   -3.680612
     91          1           0      -11.757109   -1.833888   -3.552234
     92          1           0       -9.048735   -4.947936   -1.879718
     93          1           0       -7.655144   -5.663972   -0.907101
     94          1           0       -9.373796   -5.144382   -0.216294
     95          1           0       -3.327355   -3.397868   -0.273280
     96          1           0       -1.408147   -4.366927    3.400566
     97          1           0       -2.838819   -5.708677    3.737815
     98          1           0       -1.470899   -5.960271    2.550819
     99          1           0        2.794517   -1.534100   -1.569825
    100          1           0        2.516887    0.219589   -1.855490
    101          1           0        3.963735   -0.804542    0.424946
    102          1           0        4.147062    1.323628   -2.579592
    103          1           0        5.406741    2.479160   -1.792358
    104          1           0        6.041056    1.053011   -2.938948
    105          1           0        6.676071    1.438931    0.075122
    106          1           0        6.327742   -0.022039    0.898786
    107          1           0        7.406451   -1.102783   -1.509184
    108          1           0        7.494228    0.630320   -1.981896
    109          1           0        9.288942    1.021500    0.037918
    110          1           0        9.019201   -0.747380    0.687746
    111          1           0       10.420838    0.101010   -1.801066
    112          1           0        9.320211   -2.120017   -2.216136
    113          1           0       11.013933   -2.098387   -1.911084
    114          1           0       10.063561   -2.822344   -0.745381
    115          1           0       11.395136    0.736044    0.510174
    116          1           0       11.355150   -1.144018    0.942332
    117          1           0       12.723170   -1.489909   -1.242314
    118          1           0       12.755399    0.210870   -1.604233
    119          1           0       13.747581    0.744639    0.654784
    120          1           0       13.988115   -1.070768    0.951557
    121          1           0       15.495604    0.493268   -1.143770
    122          1           0       15.729792   -2.192079    0.237054
    123          1           0       14.775657   -2.262577   -1.418934
    124          1           0       16.645410   -1.872339   -1.291128
    125          1           0       16.122564    1.048890    1.256330
    126          1           0       16.784068   -0.651192    1.434033
    127          1           0       18.228310   -0.302523   -0.540406
    128          1           0       17.410924    1.168569   -0.971046
    129          1           0       18.355372    2.286477    0.989558
    130          1           0       18.917711    0.713997    1.707047
    131          1           0       20.682009    0.399770   -0.003183
    132          1           0       19.589221    3.249677   -0.822401
    133          1           0       21.300357    2.757913   -1.404558
    134          1           0       19.607173    1.655726   -1.861490
    135          1           0       20.986913    1.396566    2.271548
    136          1           0       22.273178    1.871264    1.110945
    137          1           0       21.026078    3.046886    1.666790
 ---------------------------------------------------------------------

 SCF Done:  E(RCAM-B3LYP) =  -2932.69739278     A.U. after   17 cycles

 Excitation energies and oscillator strengths:

 Excited State   1:      Singlet-A      2.0283 eV  611.27 nm  f=0.2615  <S**2>=0.000
     240 -> 243        0.26361
     241 -> 242        0.65240
 This state for optimization and/or second-order correction.
 Total Energy, E(TD-HF/TD-KS) =  -2932.62285401
 Copying the excited state density for this state as the 1-particle RhoCI density.

 The electronic state is 1-A.
 Alpha  occ. eigenvalues --  -46.83333 -19.28134 -19.26545 -19.19905 -19.19485
 Alpha  occ. eigenvalues --  -19.19098 -14.42078 -14.39310 -14.38873 -14.38791
 Alpha  occ. eigenvalues --  -10.39310 -10.38302 -10.34591 -10.33938 -10.31511
 Alpha  occ. eigenvalues --  -10.31007 -10.30069 -10.29438 -10.29065 -10.29017
 Alpha  occ. eigenvalues --  -10.28648 -10.28513 -10.28472 -10.28409 -10.28151
 Alpha  occ. eigenvalues --  -10.28132 -10.27890 -10.27858 -10.27705 -10.27582
 Alpha  occ. eigenvalues --  -10.27523 -10.27485 -10.27469 -10.27455 -10.27442
 Alpha  occ. eigenvalues --  -10.27311 -10.27234 -10.27141 -10.26704 -10.26688
 Alpha  occ. eigenvalues --  -10.26643 -10.26642 -10.26620 -10.26542 -10.26506
 Alpha  occ. eigenvalues --  -10.26432 -10.26363 -10.26361 -10.26265 -10.26120
 Alpha  occ. eigenvalues --  -10.26013 -10.25962 -10.25922 -10.25871 -10.25789
 Alpha  occ. eigenvalues --  -10.25675 -10.25610 -10.25587 -10.25352 -10.25304
 Alpha  occ. eigenvalues --  -10.25033 -10.24982 -10.24657 -10.24315 -10.24089
 Alpha  occ. eigenvalues --   -3.12614  -1.87300  -1.86867  -1.86802  -1.19976
 Alpha  occ. eigenvalues --   -1.18882  -1.07836  -1.06592  -1.06308  -1.05994
 Alpha  occ. eigenvalues --   -1.04488  -1.03640  -1.01437  -0.92593  -0.92469
 Alpha  occ. eigenvalues --   -0.90774  -0.90173  -0.89871  -0.89421  -0.89259
 Alpha  occ. eigenvalues --   -0.88487  -0.88213  -0.87226  -0.86549  -0.85870
 Alpha  occ. eigenvalues --   -0.84955  -0.84427  -0.83911  -0.83404  -0.82301
 Alpha  occ. eigenvalues --   -0.81516  -0.81225  -0.80510  -0.79877  -0.77849
 Alpha  occ. eigenvalues --   -0.77507  -0.76782  -0.76711  -0.76232  -0.74841
 Alpha  occ. eigenvalues --   -0.74592  -0.74452  -0.73732  -0.73178  -0.72258
 Alpha  occ. eigenvalues --   -0.72188  -0.70943  -0.70495  -0.69055  -0.68109
 Alpha  occ. eigenvalues --   -0.66719  -0.65954  -0.65332  -0.64749  -0.64017
 Alpha  occ. eigenvalues --   -0.63715  -0.63372  -0.62988  -0.62539  -0.62395
 Alpha  occ. eigenvalues --   -0.61705  -0.61218  -0.60503  -0.59712  -0.59277
 Alpha  occ. eigenvalues --   -0.58608  -0.58487  -0.58076  -0.58007  -0.57894
 Alpha  occ. eigenvalues --   -0.56238  -0.55543  -0.55372  -0.55259  -0.54679
 Alpha  occ. eigenvalues --   -0.54277  -0.54214  -0.53872  -0.53545  -0.52999
 Alpha  occ. eigenvalues --   -0.52784  -0.52531  -0.51835  -0.51729  -0.51517
 Alpha  occ. eigenvalues --   -0.51318  -0.51119  -0.50728  -0.50691  -0.50598
 Alpha  occ. eigenvalues --   -0.50374  -0.50132  -0.50023  -0.49790  -0.49692
 Alpha  occ. eigenvalues --   -0.48864  -0.48740  -0.48448  -0.48394  -0.48149
 Alpha  occ. eigenvalues --   -0.47869  -0.47634  -0.47576  -0.47322  -0.46879
 Alpha  occ. eigenvalues --   -0.46730  -0.46563  -0.46354  -0.46259  -0.46193
 Alpha  occ. eigenvalues --   -0.45790  -0.45325  -0.45183  -0.44826  -0.44732
 Alpha  occ. eigenvalues --   -0.44623  -0.44502  -0.44201  -0.44127  -0.44108
 Alpha  occ. eigenvalues --   -0.43652  -0.43556  -0.43477  -0.43236  -0.43110
 Alpha  occ. eigenvalues --   -0.42899  -0.42783  -0.42720  -0.42507  -0.41801
 Alpha  occ. eigenvalues --   -0.41753  -0.41529  -0.41445  -0.41275  -0.41080
 Alpha  occ. eigenvalues --   -0.40975  -0.40762  -0.40663  -0.40441  -0.40084
 Alpha  occ. eigenvalues --   -0.40002  -0.39684  -0.39591  -0.39307  -0.38536
 Alpha  occ. eigenvalues --   -0.38362  -0.38224  -0.38128  -0.37954  -0.37909
 Alpha  occ. eigenvalues --   -0.37508  -0.37496  -0.36956  -0.36919  -0.36479
 Alpha  occ. eigenvalues --   -0.36403  -0.36127  -0.35866  -0.35736  -0.35421
 Alpha  occ. eigenvalues --   -0.35293  -0.34744  -0.34734  -0.33536  -0.33439
 Alpha  occ. eigenvalues --   -0.32715  -0.32508  -0.32369  -0.30571  -0.29925
 Alpha  occ. eigenvalues --   -0.29877  -0.29497  -0.29430  -0.27748  -0.22868
 Alpha  occ. eigenvalues --   -0.20498
 Alpha virt. eigenvalues --   -0.05965  -0.02798   0.01352   0.03520   0.05342
 Alpha virt. eigenvalues --    0.06156   0.06400   0.06657   0.07011   0.07222
 Alpha virt. eigenvalues --    0.08666   0.10928   0.11422   0.11696   0.11996

 Mulliken charges:
               1
     1  Mg   0.814846
     2  C    0.038903
     3  C   -0.203163
     4  C   -0.192950
     5  C   -0.174885
     6  N   -0.637105
     7  C    0.311788
     8  C   -0.159043
     9  C   -0.170079
    10  C    0.373100
    11  C   -0.323550
    12  C   -0.157087
    13  C   -0.275003
    14  C    0.610082
    15  O   -0.520080
    16  O   -0.460531
    17  N   -0.748235
    18  C    0.331765
    19  C    0.020889
    20  C    0.060682
    21  C    0.289293
    22  C   -0.372128
    23  C   -0.092908
    24  C   -0.244420
    25  N   -0.662807
    26  C    0.264896
    27  C    0.053808
    28  C   -0.010590
    29  C    0.312988
    30  C   -0.351900
    31  C   -0.234361
    32  C   -0.301460
    33  N   -0.743199
    34  C    0.249045
    35  C   -0.016087
    36  C    0.053527
    37  C    0.328112
    38  C   -0.365657
    39  C    0.326361
    40  O   -0.500825
    41  C   -0.302452
    42  C    0.641693
    43  O   -0.515023
    44  O   -0.418882
    45  C   -0.084391
    46  C    0.027402
    47  C   -0.162642
    48  C    0.148678
    49  C   -0.350658
    50  C   -0.204910
    51  C   -0.176830
    52  C   -0.153249
    53  C   -0.072302
    54  C   -0.308931
    55  C   -0.170586
    56  C   -0.183195
    57  C   -0.150880
    58  C   -0.060836
    59  C   -0.301984
    60  C   -0.182295
    61  C   -0.175107
    62  C   -0.177701
    63  C   -0.043863
    64  C   -0.273761
    65  C   -0.312584
    66  H    0.061139
    67  H    0.081044
    68  H    0.089159
    69  H    0.111149
    70  H    0.109440
    71  H    0.114489
    72  H    0.110211
    73  H    0.130805
    74  H    0.115328
    75  H    0.109969
    76  H    0.134942
    77  H    0.134668
    78  H    0.122621
    79  H    0.118082
    80  H    0.103391
    81  H    0.117491
    82  H    0.095697
    83  H    0.089395
    84  H    0.136570
    85  H    0.109111
    86  H    0.101373
    87  H    0.086270
    88  H    0.113822
    89  H    0.105277
    90  H    0.120781
    91  H    0.110884
    92  H    0.116608
    93  H    0.139528
    94  H    0.131343
    95  H    0.177537
    96  H    0.144014
    97  H    0.120658
    98  H    0.148729
    99  H    0.150613
   100  H    0.125835
   101  H    0.084600
   102  H    0.117483
   103  H    0.092987
   104  H    0.113850
   105  H    0.115414
   106  H    0.086379
   107  H    0.089057
   108  H    0.064990
   109  H    0.068121
   110  H    0.095260
   111  H    0.094800
   112  H    0.102789
   113  H    0.105455
   114  H    0.100144
   115  H    0.089414
   116  H    0.060740
   117  H    0.092798
   118  H    0.083442
   119  H    0.081893
   120  H    0.096360
   121  H    0.084268
   122  H    0.065044
   123  H    0.106975
   124  H    0.117074
   125  H    0.083017
   126  H    0.065977
   127  H    0.109976
   128  H    0.098552
   129  H    0.097092
   130  H    0.093703
   131  H    0.086354
   132  H    0.053971
   133  H    0.089857
   134  H    0.102109
   135  H    0.075498
   136  H    0.112900
   137  H    0.076941
 Sum of Mulliken charges =   0.00000

 Dipole moment (field-independent basis, Debye):
    X=              2.4577    Y=              3.9918    Z=              0.8826  Tot=              4.7701
 Quadrupole moment (field-independent basis, Debye-Ang):
   XX=           -338.9884   YY=           -391.6561   ZZ=           -401.0821
   XY=            -28.0950   XZ=              7.6215   YZ=             -5.5773

 Normal termination of Gaussian 09 at Sun Jun 30 13:57:35 2019.
