 Gaussian 09, Revision D.01,
 Gaussian 09:  ES64L-G09RevD.01 24-Apr-2013

 -------------------------------------
 # td=(NStates=1) CAM-B3LYP/6-31G(d,p)
 -------------------------------------

 --
 TD
 --
 Symbolic Z-matrix:
 Charge =  0 Multiplicity = 1

                         Standard orientation:
 ---------------------------------------------------------------------
 Center     Atomic      Atomic             Coordinates (Angstroms)
 Number     Number       Type             X           Y           Z
 ---------------------------------------------------------------------
      1         12           0       -7.199617    0.523382    0.100158
      2          6           0       -4.733537   -1.940283    0.370829
      3          6           0       -4.855203    2.794368    1.236471
      4          6           0       -9.466073    3.034665   -0.327255
      5          6           0       -9.485034   -1.808754   -0.917096
      6          7           0       -5.196462    0.328495    0.746111
      7          6           0       -4.298506   -0.769946    0.906419
      8          6           0       -2.970465   -0.317584    1.260243
      9          6           0       -3.107626    1.132816    1.763056
     10          6           0       -4.493987    1.497337    1.188623
     11          6           0       -2.756485    1.346687    3.181667
     12          6           0       -1.987962   -0.615004    0.164297
     13          6           0       -0.478924   -0.440100    0.653206
     14          6           0        0.476309   -0.636542   -0.497635
     15          8           0        0.213204   -1.040910   -1.598877
     16          8           0        1.776025   -0.463992   -0.091322
     17          7           0       -7.190793    2.599283    0.449176
     18          6           0       -6.186258    3.320770    0.865727
     19          6           0       -6.541283    4.777417    0.882035
     20          6           0       -7.792012    4.823668    0.453771
     21          6           0       -8.252469    3.372846    0.186210
     22          6           0       -5.679842    5.791784    1.275983
     23          6           0       -8.612745    6.010745    0.279971
     24          6           0       -8.101051    7.195775    0.067476
     25          7           0       -9.219816    0.656914   -0.403960
     26          6           0       -9.975217    1.759357   -0.593189
     27          6           0      -11.280761    1.407307   -1.122008
     28          6           0      -11.238021    0.023017   -1.265088
     29          6           0       -9.918216   -0.451201   -0.893682
     30          6           0      -12.315454    2.416547   -1.418831
     31          6           0      -12.580860   -0.878824   -1.790513
     32          6           0      -12.487722   -1.044832   -3.293932
     33          7           0       -7.236136   -1.329266   -0.348884
     34          6           0       -8.272770   -2.277106   -0.671576
     35          6           0       -7.716038   -3.660744   -0.647726
     36          6           0       -6.480627   -3.574393   -0.239047
     37          6           0       -6.178143   -2.183367    0.060885
     38          6           0       -8.432166   -4.841392   -0.990355
     39          6           0       -5.251574   -4.375324    0.096322
     40          8           0       -5.109611   -5.561423    0.058004
     41          6           0       -4.160926   -3.330635    0.531931
     42          6           0       -3.591191   -3.658910    1.919966
     43          8           0       -3.947106   -2.994622    2.973213
     44          8           0       -2.705935   -4.664658    1.991370
     45          6           0       -2.187433   -5.015976    3.235214
     46          6           0        2.857369   -0.803710   -1.081459
     47          6           0        4.114684   -0.300611   -0.458685
     48          6           0        5.078165    0.488346   -0.876026
     49          6           0        5.007340    1.092262   -2.313169
     50          6           0        6.438121    0.531918   -0.190400
     51          6           0        7.637829    0.014020   -1.019370
     52          6           0        8.932279    0.097502   -0.145240
     53          6           0       10.186497   -0.382356   -0.895067
     54          6           0       10.232865   -1.824745   -1.427013
     55          6           0       11.524676   -0.149814   -0.013624
     56          6           0       12.856654   -0.474989   -0.666760
     57          6           0       14.016678   -0.112069    0.192039
     58          6           0       15.446238   -0.269833   -0.523635
     59          6           0       15.697582   -1.645991   -0.967301
     60          6           0       16.534348    0.163519    0.552614
     61          6           0       17.866794    0.429342   -0.377687
     62          6           0       18.926177    1.147644    0.615764
     63          6           0       20.376730    1.274237    0.181964
     64          6           0       20.376472    2.161982   -1.129974
     65          6           0       21.258532    1.799268    1.325255
     66          1           0       -4.383175    3.440235    1.652330
     67          1           0      -10.239927    3.851612   -0.575992
     68          1           0      -10.236901   -2.606068   -1.042402
     69          1           0       -2.736945   -0.860617    2.186002
     70          1           0       -2.267593    1.836410    1.162989
     71          1           0       -1.750542    1.240293    3.552437
     72          1           0       -3.137346    2.267990    3.631469
     73          1           0       -3.529130    0.731308    3.567308
     74          1           0       -1.939895   -1.658342   -0.117739
     75          1           0       -2.215838    0.121867   -0.749653
     76          1           0       -0.269390    0.461726    1.289947
     77          1           0       -0.227165   -1.410586    1.212573
     78          1           0       -4.960003    6.275558    0.476160
     79          1           0       -6.134433    6.724581    1.718344
     80          1           0       -4.928438    5.290320    1.884316
     81          1           0       -9.583678    5.800409    0.106436
     82          1           0       -8.604527    7.937081   -0.204104
     83          1           0       -7.074055    7.221608   -0.107542
     84          1           0      -12.219894    3.074477   -2.392794
     85          1           0      -13.192178    1.889669   -1.518661
     86          1           0      -12.314105    3.325566   -0.715146
     87          1           0      -12.633841   -1.804155   -1.235853
     88          1           0      -13.415967   -0.272243   -1.546319
     89          1           0      -13.326170   -1.456346   -3.632096
     90          1           0      -12.574352   -0.036933   -3.661486
     91          1           0      -11.541081   -1.488002   -3.696186
     92          1           0       -8.595641   -4.920123   -2.174351
     93          1           0       -7.917585   -5.812628   -0.769345
     94          1           0       -9.472151   -4.988444   -0.437042
     95          1           0       -3.386514   -3.332538   -0.210053
     96          1           0       -1.759000   -4.096438    3.645042
     97          1           0       -2.796678   -5.343247    3.884937
     98          1           0       -1.371864   -5.551901    2.895335
     99          1           0        2.649496   -1.703318   -1.430563
    100          1           0        2.549455   -0.111435   -1.845103
    101          1           0        4.343960   -0.655137    0.633066
    102          1           0        3.873880    1.164216   -2.788785
    103          1           0        5.169707    2.105636   -2.301753
    104          1           0        5.646827    0.526384   -3.076085
    105          1           0        6.740611    1.509782    0.160535
    106          1           0        6.573421    0.011080    0.576506
    107          1           0        7.155698   -0.907771   -1.157001
    108          1           0        7.855329    0.413057   -1.847823
    109          1           0        9.085464    1.235171    0.112766
    110          1           0        8.795883   -0.333236    0.733814
    111          1           0       10.422839    0.252650   -1.744671
    112          1           0        9.104412   -1.956241   -1.941388
    113          1           0       10.947435   -2.030719   -2.260328
    114          1           0       10.164851   -2.707147   -0.586057
    115          1           0       11.595882    0.913245    0.609825
    116          1           0       11.298183   -0.812840    0.870912
    117          1           0       13.041369   -1.595645   -1.018376
    118          1           0       12.998150    0.117457   -1.633040
    119          1           0       14.221461    0.949583    0.597365
    120          1           0       14.157313   -0.880132    1.012748
    121          1           0       15.348946    0.336226   -1.366087
    122          1           0       16.105138   -2.194725   -0.164467
    123          1           0       14.717421   -2.216945   -1.416701
    124          1           0       16.619709   -1.726901   -1.774384
    125          1           0       16.192707    1.201021    0.989719
    126          1           0       16.542781   -0.515430    1.500869
    127          1           0       18.065839   -0.532033   -0.685117
    128          1           0       17.486687    1.179271   -1.061213
    129          1           0       18.515778    2.059302    1.108342
    130          1           0       18.841813    0.589331    1.584349
    131          1           0       20.860720    0.351924   -0.252171
    132          1           0       19.748477    3.088462   -0.787665
    133          1           0       21.505807    2.569347   -1.401981
    134          1           0       19.944687    1.796256   -2.021530
    135          1           0       21.308747    1.020931    2.139330
    136          1           0       22.431917    1.933781    1.123250
    137          1           0       20.737920    2.719052    1.604347
 ---------------------------------------------------------------------

 SCF Done:  E(RCAM-B3LYP) =  -2932.56663753     A.U. after   15 cycles

 Excitation energies and oscillator strengths:

 Excited State   1:      Singlet-A      2.1296 eV  582.20 nm  f=0.2307  <S**2>=0.000
     240 -> 243       -0.24426
     241 -> 242        0.65369
 This state for optimization and/or second-order correction.
 Total Energy, E(TD-HF/TD-KS) =  -2932.48837641
 Copying the excited state density for this state as the 1-particle RhoCI density.

 The electronic state is 1-A.
 Alpha  occ. eigenvalues --  -46.83521 -19.27532 -19.24453 -19.21935 -19.20665
 Alpha  occ. eigenvalues --  -19.20635 -14.40829 -14.40000 -14.39869 -14.38583
 Alpha  occ. eigenvalues --  -10.40528 -10.38741 -10.36506 -10.30992 -10.30785
 Alpha  occ. eigenvalues --  -10.30678 -10.30472 -10.30326 -10.29606 -10.29044
 Alpha  occ. eigenvalues --  -10.29023 -10.28693 -10.28658 -10.28460 -10.28374
 Alpha  occ. eigenvalues --  -10.28198 -10.28081 -10.28006 -10.27693 -10.27534
 Alpha  occ. eigenvalues --  -10.27322 -10.27316 -10.27264 -10.27196 -10.26936
 Alpha  occ. eigenvalues --  -10.26921 -10.26836 -10.26733 -10.26594 -10.26568
 Alpha  occ. eigenvalues --  -10.26531 -10.26487 -10.26418 -10.26212 -10.26055
 Alpha  occ. eigenvalues --  -10.26030 -10.26022 -10.25968 -10.25923 -10.25869
 Alpha  occ. eigenvalues --  -10.25841 -10.25770 -10.25687 -10.25649 -10.25591
 Alpha  occ. eigenvalues --  -10.25425 -10.25417 -10.25095 -10.25066 -10.25014
 Alpha  occ. eigenvalues --  -10.24548 -10.23864 -10.23471 -10.23440 -10.23415
 Alpha  occ. eigenvalues --   -3.12700  -1.87388  -1.86961  -1.86880  -1.18956
 Alpha  occ. eigenvalues --   -1.16637  -1.13466  -1.08063  -1.06229  -1.05147
 Alpha  occ. eigenvalues --   -1.02364  -1.01524  -1.00736  -0.92167  -0.91807
 Alpha  occ. eigenvalues --   -0.90898  -0.90214  -0.89866  -0.89059  -0.88833
 Alpha  occ. eigenvalues --   -0.88412  -0.87899  -0.87354  -0.86563  -0.86324
 Alpha  occ. eigenvalues --   -0.85801  -0.84722  -0.84520  -0.83290  -0.83041
 Alpha  occ. eigenvalues --   -0.82793  -0.81591  -0.80354  -0.79766  -0.78702
 Alpha  occ. eigenvalues --   -0.78185  -0.77395  -0.76380  -0.76306  -0.74753
 Alpha  occ. eigenvalues --   -0.74649  -0.74225  -0.73904  -0.72833  -0.72405
 Alpha  occ. eigenvalues --   -0.71561  -0.70547  -0.69636  -0.69146  -0.68836
 Alpha  occ. eigenvalues --   -0.68000  -0.67964  -0.65913  -0.65204  -0.64918
 Alpha  occ. eigenvalues --   -0.64013  -0.62916  -0.62839  -0.62631  -0.62296
 Alpha  occ. eigenvalues --   -0.62101  -0.60722  -0.60418  -0.59889  -0.59593
 Alpha  occ. eigenvalues --   -0.59243  -0.58694  -0.58187  -0.57283  -0.57050
 Alpha  occ. eigenvalues --   -0.56717  -0.56299  -0.55791  -0.55353  -0.54957
 Alpha  occ. eigenvalues --   -0.54659  -0.54233  -0.53658  -0.53547  -0.53070
 Alpha  occ. eigenvalues --   -0.52997  -0.52885  -0.52814  -0.52442  -0.52039
 Alpha  occ. eigenvalues --   -0.51469  -0.51424  -0.51142  -0.51037  -0.50872
 Alpha  occ. eigenvalues --   -0.50425  -0.50042  -0.49870  -0.49731  -0.49556
 Alpha  occ. eigenvalues --   -0.49345  -0.49254  -0.49025  -0.48890  -0.48614
 Alpha  occ. eigenvalues --   -0.48496  -0.48309  -0.47951  -0.47787  -0.47620
 Alpha  occ. eigenvalues --   -0.47417  -0.46932  -0.46752  -0.46349  -0.45938
 Alpha  occ. eigenvalues --   -0.45665  -0.45270  -0.45249  -0.44973  -0.44953
 Alpha  occ. eigenvalues --   -0.44777  -0.44586  -0.44348  -0.44174  -0.44157
 Alpha  occ. eigenvalues --   -0.43866  -0.43510  -0.43426  -0.43327  -0.43094
 Alpha  occ. eigenvalues --   -0.42887  -0.42644  -0.42516  -0.42298  -0.42057
 Alpha  occ. eigenvalues --   -0.41508  -0.41464  -0.41417  -0.41275  -0.40891
 Alpha  occ. eigenvalues --   -0.40838  -0.40613  -0.40398  -0.40302  -0.40265
 Alpha  occ. eigenvalues --   -0.40054  -0.39931  -0.39614  -0.39476  -0.39400
 Alpha  occ. eigenvalues --   -0.38710  -0.38621  -0.38023  -0.37923  -0.37557
 Alpha  occ. eigenvalues --   -0.37435  -0.37411  -0.36917  -0.36889  -0.36577
 Alpha  occ. eigenvalues --   -0.36447  -0.36170  -0.36123  -0.35551  -0.35351
 Alpha  occ. eigenvalues --   -0.35160  -0.34645  -0.34391  -0.33566  -0.33353
 Alpha  occ. eigenvalues --   -0.33223  -0.32026  -0.31866  -0.31131  -0.30978
 Alpha  occ. eigenvalues --   -0.30771  -0.30041  -0.27741  -0.27060  -0.23387
 Alpha  occ. eigenvalues --   -0.20869
 Alpha virt. eigenvalues --   -0.05496  -0.02824   0.01574   0.04232   0.04608
 Alpha virt. eigenvalues --    0.05823   0.06375   0.06863   0.07232   0.07571
 Alpha virt. eigenvalues --    0.08261   0.10824   0.11189   0.11326   0.11925

 Mulliken charges:
               1
     1  Mg   0.827449
     2  C   -0.038077
     3  C   -0.095318
     4  C   -0.174565
     5  C   -0.184558
     6  N   -0.648361
     7  C    0.352713
     8  C   -0.172558
     9  C   -0.134168
    10  C    0.336903
    11  C   -0.316910
    12  C   -0.149717
    13  C   -0.278492
    14  C    0.605903
    15  O   -0.475108
    16  O   -0.521966
    17  N   -0.683124
    18  C    0.271939
    19  C    0.080763
    20  C   -0.023703
    21  C    0.314802
    22  C   -0.418616
    23  C   -0.033476
    24  C   -0.227992
    25  N   -0.685296
    26  C    0.288138
    27  C    0.048308
    28  C   -0.040990
    29  C    0.257209
    30  C   -0.370761
    31  C   -0.224386
    32  C   -0.300945
    33  N   -0.707235
    34  C    0.277751
    35  C    0.082341
    36  C    0.008428
    37  C    0.265489
    38  C   -0.416075
    39  C    0.395462
    40  O   -0.428683
    41  C   -0.288301
    42  C    0.601748
    43  O   -0.511469
    44  O   -0.433833
    45  C   -0.063921
    46  C    0.031416
    47  C   -0.121143
    48  C    0.106594
    49  C   -0.367071
    50  C   -0.218105
    51  C   -0.174410
    52  C   -0.182308
    53  C   -0.062255
    54  C   -0.298837
    55  C   -0.168181
    56  C   -0.167031
    57  C   -0.166834
    58  C   -0.064185
    59  C   -0.296796
    60  C   -0.210583
    61  C   -0.171610
    62  C   -0.184204
    63  C   -0.053459
    64  C   -0.298399
    65  C   -0.299117
    66  H    0.010930
    67  H    0.089067
    68  H    0.097919
    69  H    0.129693
    70  H    0.067813
    71  H    0.122584
    72  H    0.110491
    73  H    0.129322
    74  H    0.119783
    75  H    0.115674
    76  H    0.134257
    77  H    0.136163
    78  H    0.109278
    79  H    0.130107
    80  H    0.111701
    81  H    0.074095
    82  H    0.088709
    83  H    0.106828
    84  H    0.100673
    85  H    0.114961
    86  H    0.107211
    87  H    0.103081
    88  H    0.107973
    89  H    0.109523
    90  H    0.109258
    91  H    0.110548
    92  H    0.118950
    93  H    0.148946
    94  H    0.114691
    95  H    0.167965
    96  H    0.116463
    97  H    0.142039
    98  H    0.128698
    99  H    0.143685
   100  H    0.131792
   101  H    0.080103
   102  H    0.084272
   103  H    0.130532
   104  H    0.120391
   105  H    0.090288
   106  H    0.106163
   107  H    0.107006
   108  H    0.102350
   109  H    0.085023
   110  H    0.103603
   111  H    0.093697
   112  H    0.070612
   113  H    0.117714
   114  H    0.086038
   115  H    0.064206
   116  H    0.085494
   117  H    0.088582
   118  H    0.080537
   119  H    0.085049
   120  H    0.081054
   121  H    0.093961
   122  H    0.112910
   123  H    0.079196
   124  H    0.073694
   125  H    0.073096
   126  H    0.094649
   127  H    0.117576
   128  H    0.115097
   129  H    0.091026
   130  H    0.082772
   131  H    0.083248
   132  H    0.076508
   133  H    0.070378
   134  H    0.117723
   135  H    0.103853
   136  H    0.086585
   137  H    0.103921
 Sum of Mulliken charges =   0.00000

 Dipole moment (field-independent basis, Debye):
    X=              2.4949    Y=              2.3029    Z=              0.5752  Tot=              3.4437
 Quadrupole moment (field-independent basis, Debye-Ang):
   XX=           -367.4333   YY=           -386.6596   ZZ=           -396.3117
   XY=            -17.1859   XZ=             13.7376   YZ=             -4.6107

 Normal termination of Gaussian 09 at Fri Jun 28 07:26:47 2019.
