 Gaussian 09, Revision D.01,
 Gaussian 09:  ES64L-G09RevD.01 24-Apr-2013

 -------------------------------------
 # td=(NStates=1) CAM-B3LYP/6-31G(d,p)
 -------------------------------------

 --
 TD
 --
 Symbolic Z-matrix:
 Charge =  0 Multiplicity = 1

                         Standard orientation:
 ---------------------------------------------------------------------
 Center     Atomic      Atomic             Coordinates (Angstroms)
 Number     Number       Type             X           Y           Z
 ---------------------------------------------------------------------
      1         12           0       -7.152259    0.512455    0.132353
      2          6           0       -4.854729   -1.953834    0.561685
      3          6           0       -4.803990    2.849575    1.222621
      4          6           0       -9.295290    3.137133   -0.466106
      5          6           0       -9.534734   -1.815220   -0.884233
      6          7           0       -5.047737    0.464741    0.649239
      7          6           0       -4.381263   -0.707368    0.790848
      8          6           0       -2.957749   -0.396558    1.338009
      9          6           0       -3.047306    1.123869    1.756251
     10          6           0       -4.401084    1.540252    1.191959
     11          6           0       -3.067578    1.235151    3.309436
     12          6           0       -2.017847   -0.508674    0.078401
     13          6           0       -0.487657   -0.444819    0.480908
     14          6           0        0.486399   -0.535328   -0.652179
     15          8           0        0.246190   -0.983358   -1.708393
     16          8           0        1.758326   -0.401429   -0.146115
     17          7           0       -7.121247    2.531464    0.296570
     18          6           0       -6.128475    3.305012    0.877828
     19          6           0       -6.513704    4.770732    0.949963
     20          6           0       -7.759854    4.852452    0.377000
     21          6           0       -8.077464    3.532434   -0.011976
     22          6           0       -5.614924    5.866122    1.305679
     23          6           0       -8.663355    6.051086    0.255267
     24          6           0       -8.178955    7.263675    0.065508
     25          7           0       -9.131391    0.601487   -0.546200
     26          6           0       -9.772678    1.754655   -0.714598
     27          6           0      -11.200265    1.404607   -1.064882
     28          6           0      -11.176062    0.034725   -1.172985
     29          6           0       -9.985338   -0.444644   -0.845277
     30          6           0      -12.281668    2.482096   -1.456798
     31          6           0      -12.402297   -0.803898   -1.701539
     32          6           0      -12.436334   -1.091382   -3.196331
     33          7           0       -7.225175   -1.420333   -0.089527
     34          6           0       -8.247371   -2.239860   -0.491680
     35          6           0       -7.862842   -3.633341   -0.535384
     36          6           0       -6.481606   -3.523462   -0.151101
     37          6           0       -6.134839   -2.181571    0.093956
     38          6           0       -8.807182   -4.812534   -0.886299
     39          6           0       -5.349288   -4.366665    0.109366
     40          8           0       -5.114856   -5.616709    0.154613
     41          6           0       -4.237888   -3.311916    0.526386
     42          6           0       -3.671738   -3.684015    1.928908
     43          8           0       -3.794956   -2.999413    2.839634
     44          8           0       -2.784234   -4.696143    1.691765
     45          6           0       -2.237009   -5.271123    2.982573
     46          6           0        2.798806   -0.635943   -1.138568
     47          6           0        4.145896   -0.385063   -0.528259
     48          6           0        5.133538    0.432262   -0.879609
     49          6           0        5.172910    1.376093   -2.062164
     50          6           0        6.459209    0.408538   -0.173958
     51          6           0        7.640293   -0.161502   -0.988904
     52          6           0        8.887894   -0.142109   -0.222664
     53          6           0       10.241889   -0.556203   -0.853993
     54          6           0       10.242058   -2.018619   -1.370933
     55          6           0       11.528965   -0.316656   -0.086974
     56          6           0       12.825290   -0.422040   -0.834950
     57          6           0       13.984373   -0.009969   -0.033446
     58          6           0       15.349833   -0.176323   -0.609758
     59          6           0       15.658076   -1.723119   -0.914055
     60          6           0       16.439246    0.334196    0.349374
     61          6           0       17.862724    0.499953   -0.161411
     62          6           0       18.864541    1.144705    0.820010
     63          6           0       20.414878    1.201787    0.345797
     64          6           0       20.386374    1.942242   -0.916818
     65          6           0       21.110933    1.942825    1.377754
     66          1           0       -4.236525    3.476397    1.801924
     67          1           0      -10.019349    3.859167   -0.737902
     68          1           0      -10.403138   -2.481609   -0.996202
     69          1           0       -2.614095   -0.990487    2.067913
     70          1           0       -2.135994    1.643298    1.350500
     71          1           0       -1.995536    1.328769    3.811960
     72          1           0       -3.434764    2.368610    3.460723
     73          1           0       -3.624015    0.398720    3.711266
     74          1           0       -1.975244   -1.416672   -0.281940
     75          1           0       -2.325871    0.385227   -0.467855
     76          1           0       -0.308452    0.504779    0.807091
     77          1           0       -0.351557   -1.203005    1.318956
     78          1           0       -4.927726    5.882150    0.498651
     79          1           0       -6.064506    6.900040    1.663848
     80          1           0       -5.054834    5.513360    2.183587
     81          1           0       -9.590340    5.838599    0.319640
     82          1           0       -8.814048    8.022075    0.045980
     83          1           0       -7.147605    7.423230    0.015153
     84          1           0      -11.952359    2.977117   -2.367258
     85          1           0      -13.289354    1.899610   -1.427178
     86          1           0      -12.281045    3.314658   -0.674703
     87          1           0      -12.276687   -1.716009   -1.106277
     88          1           0      -13.215661   -0.471626   -1.411719
     89          1           0      -13.245008   -1.791362   -3.467146
     90          1           0      -12.319925   -0.327181   -3.801356
     91          1           0      -11.470266   -1.531666   -3.365187
     92          1           0       -9.220111   -4.578113   -1.804125
     93          1           0       -8.108370   -5.812839   -0.649613
     94          1           0       -9.602964   -4.815631   -0.203692
     95          1           0       -3.475540   -3.417608   -0.184012
     96          1           0       -1.568763   -4.445923    3.351652
     97          1           0       -3.170593   -5.401047    3.460054
     98          1           0       -1.697468   -6.072623    2.550251
     99          1           0        2.827313   -1.729154   -1.476765
    100          1           0        2.779394    0.055525   -1.982390
    101          1           0        4.388684   -1.219048    0.252419
    102          1           0        4.306960    1.351297   -2.631861
    103          1           0        5.330199    2.433856   -1.530293
    104          1           0        5.876401    1.375215   -2.830213
    105          1           0        6.644301    1.549603    0.144657
    106          1           0        6.362769   -0.016416    0.732528
    107          1           0        7.426252   -1.241182   -1.217456
    108          1           0        8.061928    0.231964   -1.938010
    109          1           0        8.976739    0.903866    0.351950
    110          1           0        8.818475   -0.641148    0.690084
    111          1           0       10.379105    0.126358   -1.636442
    112          1           0        9.255650   -2.176537   -1.844859
    113          1           0       11.166729   -2.171074   -1.898970
    114          1           0        9.958921   -2.671973   -0.531631
    115          1           0       11.527754    0.674316    0.283601
    116          1           0       11.509068   -0.940756    0.783895
    117          1           0       13.006963   -1.483169   -1.110132
    118          1           0       12.856706    0.311424   -1.785524
    119          1           0       13.798909    1.168515    0.167247
    120          1           0       13.909027   -0.542127    0.885262
    121          1           0       15.504175    0.369463   -1.607229
    122          1           0       15.521252   -2.090818    0.103592
    123          1           0       14.932091   -2.227218   -1.493127
    124          1           0       16.673004   -1.938637   -1.242218
    125          1           0       16.091416    1.322842    0.579728
    126          1           0       16.614551   -0.295326    1.258781
    127          1           0       18.319405   -0.373054   -0.418525
    128          1           0       17.787257    1.139785   -1.072128
    129          1           0       18.472335    2.227628    0.983556
    130          1           0       18.816704    0.541174    1.801451
    131          1           0       20.805578    0.213737    0.052553
    132          1           0       19.818071    3.003564   -1.052743
    133          1           0       21.398040    2.181097   -1.184040
    134          1           0       19.930955    1.583602   -1.912973
    135          1           0       21.033942    1.483512    2.376233
    136          1           0       22.097675    2.134317    1.160942
    137          1           0       20.572638    3.023510    1.379287
 ---------------------------------------------------------------------

 SCF Done:  E(RCAM-B3LYP) =  -2932.70163252     A.U. after   17 cycles

 Excitation energies and oscillator strengths:

 Excited State   1:      Singlet-A      2.1717 eV  570.91 nm  f=0.1966  <S**2>=0.000
     240 -> 242        0.13385
     240 -> 243       -0.27093
     241 -> 242        0.62290
     241 -> 243        0.10654
 This state for optimization and/or second-order correction.
 Total Energy, E(TD-HF/TD-KS) =  -2932.62182462
 Copying the excited state density for this state as the 1-particle RhoCI density.

 The electronic state is 1-A.
 Alpha  occ. eigenvalues --  -46.83880 -19.25664 -19.24475 -19.21623 -19.21144
 Alpha  occ. eigenvalues --  -19.18897 -14.41209 -14.40463 -14.38993 -14.38576
 Alpha  occ. eigenvalues --  -10.38513 -10.38059 -10.33937 -10.31906 -10.31668
 Alpha  occ. eigenvalues --  -10.31081 -10.30932 -10.30297 -10.29215 -10.29054
 Alpha  occ. eigenvalues --  -10.28845 -10.28747 -10.28662 -10.28386 -10.27757
 Alpha  occ. eigenvalues --  -10.27711 -10.27528 -10.27392 -10.27315 -10.27212
 Alpha  occ. eigenvalues --  -10.27188 -10.27163 -10.27011 -10.26988 -10.26623
 Alpha  occ. eigenvalues --  -10.26449 -10.26421 -10.26358 -10.26226 -10.26183
 Alpha  occ. eigenvalues --  -10.26154 -10.26134 -10.26029 -10.25894 -10.25774
 Alpha  occ. eigenvalues --  -10.25679 -10.25555 -10.25309 -10.25178 -10.25166
 Alpha  occ. eigenvalues --  -10.25121 -10.25111 -10.25036 -10.25001 -10.24854
 Alpha  occ. eigenvalues --  -10.24790 -10.24574 -10.24491 -10.24480 -10.24445
 Alpha  occ. eigenvalues --  -10.24334 -10.23862 -10.23823 -10.23698 -10.23448
 Alpha  occ. eigenvalues --   -3.13009  -1.87708  -1.87262  -1.87185  -1.18677
 Alpha  occ. eigenvalues --   -1.18284  -1.10140  -1.10019  -1.06602  -1.04448
 Alpha  occ. eigenvalues --   -1.03338  -1.03263  -1.02257  -0.92676  -0.91855
 Alpha  occ. eigenvalues --   -0.91082  -0.90427  -0.90196  -0.89482  -0.88976
 Alpha  occ. eigenvalues --   -0.88956  -0.87990  -0.86921  -0.86632  -0.86336
 Alpha  occ. eigenvalues --   -0.85222  -0.84960  -0.83820  -0.83093  -0.82498
 Alpha  occ. eigenvalues --   -0.81727  -0.81196  -0.80712  -0.80296  -0.79150
 Alpha  occ. eigenvalues --   -0.78075  -0.77607  -0.76820  -0.75775  -0.75753
 Alpha  occ. eigenvalues --   -0.75393  -0.74585  -0.74405  -0.72721  -0.72051
 Alpha  occ. eigenvalues --   -0.71406  -0.71050  -0.70275  -0.69332  -0.68891
 Alpha  occ. eigenvalues --   -0.67577  -0.66897  -0.65425  -0.65009  -0.64526
 Alpha  occ. eigenvalues --   -0.63860  -0.63520  -0.62745  -0.62390  -0.61965
 Alpha  occ. eigenvalues --   -0.61477  -0.60798  -0.60395  -0.59925  -0.59316
 Alpha  occ. eigenvalues --   -0.59049  -0.58257  -0.57926  -0.57314  -0.57123
 Alpha  occ. eigenvalues --   -0.56137  -0.55851  -0.55757  -0.55588  -0.55225
 Alpha  occ. eigenvalues --   -0.54933  -0.54421  -0.54174  -0.53505  -0.53312
 Alpha  occ. eigenvalues --   -0.52947  -0.52766  -0.52581  -0.52136  -0.52015
 Alpha  occ. eigenvalues --   -0.51852  -0.51716  -0.51566  -0.51445  -0.50910
 Alpha  occ. eigenvalues --   -0.50756  -0.50255  -0.50160  -0.50052  -0.49824
 Alpha  occ. eigenvalues --   -0.49723  -0.49501  -0.49257  -0.48933  -0.48716
 Alpha  occ. eigenvalues --   -0.48439  -0.48355  -0.48124  -0.47963  -0.47666
 Alpha  occ. eigenvalues --   -0.47279  -0.47003  -0.46961  -0.46658  -0.46603
 Alpha  occ. eigenvalues --   -0.46255  -0.45975  -0.45444  -0.45246  -0.45124
 Alpha  occ. eigenvalues --   -0.44961  -0.44951  -0.44729  -0.44177  -0.43927
 Alpha  occ. eigenvalues --   -0.43823  -0.43663  -0.43592  -0.43342  -0.43129
 Alpha  occ. eigenvalues --   -0.42917  -0.42782  -0.42683  -0.42564  -0.42229
 Alpha  occ. eigenvalues --   -0.41875  -0.41814  -0.41708  -0.41273  -0.41176
 Alpha  occ. eigenvalues --   -0.40951  -0.40750  -0.40697  -0.40453  -0.40377
 Alpha  occ. eigenvalues --   -0.39897  -0.39807  -0.39749  -0.39347  -0.38740
 Alpha  occ. eigenvalues --   -0.38724  -0.38196  -0.38006  -0.37911  -0.37653
 Alpha  occ. eigenvalues --   -0.37551  -0.37374  -0.37178  -0.36775  -0.36725
 Alpha  occ. eigenvalues --   -0.36200  -0.36134  -0.36023  -0.35632  -0.35592
 Alpha  occ. eigenvalues --   -0.35196  -0.35027  -0.34668  -0.34505  -0.33750
 Alpha  occ. eigenvalues --   -0.33501  -0.32811  -0.32258  -0.31100  -0.29996
 Alpha  occ. eigenvalues --   -0.29260  -0.28722  -0.28664  -0.27628  -0.23302
 Alpha  occ. eigenvalues --   -0.21460
 Alpha virt. eigenvalues --   -0.05963  -0.03397   0.01574   0.04452   0.05864
 Alpha virt. eigenvalues --    0.05990   0.06303   0.06767   0.07315   0.07707
 Alpha virt. eigenvalues --    0.09300   0.10908   0.11773   0.12398   0.12449

 Mulliken charges:
               1
     1  Mg   0.815352
     2  C    0.129272
     3  C   -0.175210
     4  C   -0.188647
     5  C   -0.148338
     6  N   -0.650398
     7  C    0.297957
     8  C   -0.151423
     9  C   -0.161317
    10  C    0.341330
    11  C   -0.298198
    12  C   -0.158327
    13  C   -0.284176
    14  C    0.592926
    15  O   -0.428852
    16  O   -0.486423
    17  N   -0.676847
    18  C    0.297149
    19  C   -0.007889
    20  C    0.032721
    21  C    0.298920
    22  C   -0.388242
    23  C   -0.019690
    24  C   -0.223541
    25  N   -0.690590
    26  C    0.281586
    27  C   -0.029895
    28  C   -0.018721
    29  C    0.283306
    30  C   -0.360247
    31  C   -0.196898
    32  C   -0.309569
    33  N   -0.757527
    34  C    0.260004
    35  C    0.040318
    36  C   -0.030536
    37  C    0.312440
    38  C   -0.358011
    39  C    0.337182
    40  O   -0.508697
    41  C   -0.357204
    42  C    0.614282
    43  O   -0.415666
    44  O   -0.490918
    45  C   -0.088135
    46  C    0.027307
    47  C   -0.155130
    48  C    0.126133
    49  C   -0.354666
    50  C   -0.213553
    51  C   -0.159628
    52  C   -0.188463
    53  C   -0.064418
    54  C   -0.315707
    55  C   -0.170290
    56  C   -0.172647
    57  C   -0.152462
    58  C   -0.067886
    59  C   -0.325931
    60  C   -0.158993
    61  C   -0.184424
    62  C   -0.166952
    63  C   -0.055815
    64  C   -0.301803
    65  C   -0.282226
    66  H    0.069865
    67  H    0.079788
    68  H    0.100830
    69  H    0.107349
    70  H    0.104188
    71  H    0.094422
    72  H    0.085623
    73  H    0.140936
    74  H    0.127770
    75  H    0.111684
    76  H    0.127078
    77  H    0.135011
    78  H    0.147209
    79  H    0.119231
    80  H    0.115913
    81  H    0.082563
    82  H    0.100272
    83  H    0.107581
    84  H    0.133627
    85  H    0.110489
    86  H    0.107438
    87  H    0.085199
    88  H    0.099732
    89  H    0.102809
    90  H    0.122551
    91  H    0.103268
    92  H    0.140961
    93  H    0.140054
    94  H    0.139063
    95  H    0.166155
    96  H    0.129282
    97  H    0.149750
    98  H    0.147038
    99  H    0.121464
   100  H    0.113768
   101  H    0.077785
   102  H    0.110242
   103  H    0.096048
   104  H    0.135571
   105  H    0.078088
   106  H    0.113155
   107  H    0.095596
   108  H    0.102143
   109  H    0.059281
   110  H    0.090851
   111  H    0.084979
   112  H    0.093414
   113  H    0.116722
   114  H    0.099243
   115  H    0.089818
   116  H    0.088145
   117  H    0.091981
   118  H    0.071327
   119  H    0.064546
   120  H    0.096085
   121  H    0.073057
   122  H    0.096665
   123  H    0.105314
   124  H    0.106400
   125  H    0.090105
   126  H    0.081189
   127  H    0.098750
   128  H    0.082284
   129  H    0.080356
   130  H    0.069914
   131  H    0.096628
   132  H    0.072983
   133  H    0.094259
   134  H    0.098579
   135  H    0.102226
   136  H    0.105007
   137  H    0.084243
 Sum of Mulliken charges =   0.00000

 Dipole moment (field-independent basis, Debye):
    X=              1.1309    Y=              5.2196    Z=              1.3848  Tot=              5.5174
 Quadrupole moment (field-independent basis, Debye-Ang):
   XX=           -334.0015   YY=           -387.0160   ZZ=           -396.3721
   XY=            -31.4823   XZ=              0.9538   YZ=             -6.4449

 Normal termination of Gaussian 09 at Sun Jun 30 17:07:00 2019.
