 Gaussian 09, Revision D.01,
 Gaussian 09:  ES64L-G09RevD.01 24-Apr-2013

 -------------------------------------
 # td=(NStates=1) CAM-B3LYP/6-31G(d,p)
 -------------------------------------

 --
 TD
 --
 Symbolic Z-matrix:
 Charge =  0 Multiplicity = 1

                         Standard orientation:
 ---------------------------------------------------------------------
 Center     Atomic      Atomic             Coordinates (Angstroms)
 Number     Number       Type             X           Y           Z
 ---------------------------------------------------------------------
      1         12           0       -7.114353    0.627023    0.126492
      2          6           0       -4.850015   -1.984156    0.467114
      3          6           0       -4.836433    2.739388    1.123307
      4          6           0       -9.457550    3.080821   -0.334563
      5          6           0       -9.582914   -1.705042   -0.879465
      6          7           0       -5.054618    0.393573    0.792608
      7          6           0       -4.343393   -0.706051    0.783202
      8          6           0       -2.909675   -0.424017    1.143211
      9          6           0       -2.930286    1.011811    1.738948
     10          6           0       -4.317470    1.460267    1.242082
     11          6           0       -2.982845    1.150880    3.301995
     12          6           0       -1.866427   -0.641387    0.102031
     13          6           0       -0.446704   -0.343036    0.514562
     14          6           0        0.547036   -0.672615   -0.614222
     15          8           0        0.241517   -1.037212   -1.744762
     16          8           0        1.816257   -0.474453   -0.154898
     17          7           0       -7.127606    2.648524    0.309488
     18          6           0       -6.027234    3.382755    0.781008
     19          6           0       -6.368615    4.853463    0.723392
     20          6           0       -7.615778    4.892054    0.333422
     21          6           0       -8.094557    3.505869   -0.028461
     22          6           0       -5.552502    5.894365    1.341602
     23          6           0       -8.578064    6.061065    0.319503
     24          6           0       -8.235904    7.380767    0.182485
     25          7           0       -9.176243    0.628262   -0.476708
     26          6           0       -9.869221    1.822651   -0.640848
     27          6           0      -11.215696    1.437699   -1.124646
     28          6           0      -11.287873    0.065743   -1.303618
     29          6           0      -10.020388   -0.352898   -0.875665
     30          6           0      -12.421173    2.448664   -1.270446
     31          6           0      -12.407773   -0.785968   -1.709445
     32          6           0      -12.373445   -1.149411   -3.222569
     33          7           0       -7.180590   -1.395151   -0.295921
     34          6           0       -8.270999   -2.180438   -0.625069
     35          6           0       -7.850785   -3.578418   -0.490086
     36          6           0       -6.519161   -3.529893   -0.244955
     37          6           0       -6.174834   -2.194764    0.042707
     38          6           0       -8.588494   -4.785004   -0.945603
     39          6           0       -5.260075   -4.335998    0.104940
     40          8           0       -5.245968   -5.613508    0.078355
     41          6           0       -4.178783   -3.343110    0.588151
     42          6           0       -3.569971   -3.782371    1.899653
     43          8           0       -3.892977   -3.193575    2.942419
     44          8           0       -2.684614   -4.706025    1.701520
     45          6           0       -2.038819   -5.146409    2.961859
     46          6           0        2.812078   -0.776440   -1.127817
     47          6           0        4.158382   -0.567899   -0.477339
     48          6           0        5.141758    0.312349   -0.845203
     49          6           0        5.007422    1.131864   -2.103656
     50          6           0        6.445052    0.418806   -0.131688
     51          6           0        7.657824   -0.129995   -0.854834
     52          6           0        8.895655   -0.037428   -0.020383
     53          6           0       10.182126   -0.532078   -0.780043
     54          6           0       10.130127   -1.914649   -1.329463
     55          6           0       11.445878   -0.205083    0.116563
     56          6           0       12.834929   -0.451446   -0.573236
     57          6           0       13.992462   -0.219327    0.322011
     58          6           0       15.327302   -0.278580   -0.506762
     59          6           0       15.613691   -1.658618   -0.994035
     60          6           0       16.449207    0.359441    0.474338
     61          6           0       17.769863    0.439806   -0.279495
     62          6           0       18.825040    1.306852    0.655369
     63          6           0       20.164062    1.398902    0.125304
     64          6           0       20.287394    2.173592   -1.183133
     65          6           0       21.237140    2.001540    1.185657
     66          1           0       -3.977345    3.505589    1.414537
     67          1           0      -10.115882    4.080359   -0.577011
     68          1           0      -10.481195   -2.469034   -0.829585
     69          1           0       -2.732262   -1.148242    2.055084
     70          1           0       -2.192042    1.792133    1.329119
     71          1           0       -1.734520    1.166892    3.549067
     72          1           0       -3.402167    2.264235    3.489655
     73          1           0       -3.530629    0.432156    3.758391
     74          1           0       -1.910112   -1.560605   -0.459879
     75          1           0       -2.270831    0.052523   -0.802394
     76          1           0       -0.318763    0.668012    0.816955
     77          1           0       -0.040440   -0.835226    1.368291
     78          1           0       -4.951458    6.391848    0.502784
     79          1           0       -6.360421    6.417755    1.948981
     80          1           0       -4.862042    5.525007    1.888444
     81          1           0       -9.690814    5.747398    0.339743
     82          1           0       -9.061408    8.112819    0.369719
     83          1           0       -7.218277    7.776131   -0.084731
     84          1           0      -12.325226    2.928680   -2.368952
     85          1           0      -13.475295    1.900166   -0.963218
     86          1           0      -12.248229    3.454009   -0.616662
     87          1           0      -12.476840   -1.589694   -0.961235
     88          1           0      -13.205520   -0.346941   -1.377414
     89          1           0      -13.222067   -1.757544   -3.375519
     90          1           0      -12.658421   -0.114643   -3.581524
     91          1           0      -11.458452   -1.622078   -3.449993
     92          1           0       -8.887875   -4.759827   -1.893535
     93          1           0       -7.945741   -5.746174   -0.766519
     94          1           0       -9.497957   -4.890210   -0.196526
     95          1           0       -3.287979   -3.470433   -0.124048
     96          1           0       -1.464722   -4.369149    3.517290
     97          1           0       -2.784977   -5.642462    3.616360
     98          1           0       -1.392931   -6.027368    2.539002
     99          1           0        2.553764   -1.763850   -1.371130
    100          1           0        2.621190   -0.245971   -2.103571
    101          1           0        4.340137   -1.114108    0.587423
    102          1           0        4.030436    1.230985   -2.353397
    103          1           0        5.529353    2.207741   -2.058159
    104          1           0        5.397609    0.556212   -3.105410
    105          1           0        6.600774    1.461868    0.016141
    106          1           0        6.091842   -0.133626    0.805083
    107          1           0        7.367988   -1.051035   -1.169030
    108          1           0        7.785333    0.424551   -1.837212
    109          1           0        9.129197    1.141193    0.265132
    110          1           0        8.914929   -0.655876    1.034940
    111          1           0       10.319441    0.068251   -1.511433
    112          1           0        9.407001   -2.026950   -1.973981
    113          1           0       11.146755   -2.095173   -1.918557
    114          1           0       10.022075   -2.571785   -0.518832
    115          1           0       11.188836    0.944075    0.487012
    116          1           0       11.617421   -0.945195    1.048474
    117          1           0       12.529755   -1.497934   -0.998607
    118          1           0       12.716966    0.143335   -1.508988
    119          1           0       14.143778    0.812829    0.850123
    120          1           0       13.878525   -0.887676    0.994966
    121          1           0       15.214796    0.316175   -1.417050
    122          1           0       15.678018   -2.199001    0.067181
    123          1           0       14.983046   -2.088945   -1.895126
    124          1           0       16.597603   -1.556216   -1.538704
    125          1           0       16.312998    1.462428    0.835248
    126          1           0       16.340788   -0.257760    1.283413
    127          1           0       18.242973   -0.475602   -0.774132
    128          1           0       17.589534    1.132408   -1.084110
    129          1           0       18.381319    2.245686    0.932730
    130          1           0       18.953638    0.795693    1.528261
    131          1           0       20.418977    0.244499   -0.058157
    132          1           0       19.734557    3.090979   -0.922681
    133          1           0       21.326393    2.199617   -1.490599
    134          1           0       19.605324    1.646117   -1.833272
    135          1           0       21.081060    1.538838    2.017923
    136          1           0       22.107978    1.698170    0.625638
    137          1           0       21.269207    3.173124    1.236501
 ---------------------------------------------------------------------

 SCF Done:  E(RCAM-B3LYP) =  -2932.60913753     A.U. after   18 cycles

 Excitation energies and oscillator strengths:

 Excited State   1:      Singlet-A      2.0025 eV  619.15 nm  f=0.2168  <S**2>=0.000
     240 -> 243       -0.26932
     241 -> 242        0.64943
 This state for optimization and/or second-order correction.
 Total Energy, E(TD-HF/TD-KS) =  -2932.53554793
 Copying the excited state density for this state as the 1-particle RhoCI density.

 The electronic state is 1-A.
 Alpha  occ. eigenvalues --  -46.85358 -19.28925 -19.26810 -19.21952 -19.20796
 Alpha  occ. eigenvalues --  -19.20575 -14.41722 -14.39907 -14.38805 -14.38667
 Alpha  occ. eigenvalues --  -10.40004 -10.39814 -10.36176 -10.33862 -10.31969
 Alpha  occ. eigenvalues --  -10.30601 -10.30547 -10.30145 -10.29409 -10.29388
 Alpha  occ. eigenvalues --  -10.29353 -10.29225 -10.28975 -10.28502 -10.28318
 Alpha  occ. eigenvalues --  -10.28170 -10.28120 -10.28108 -10.28070 -10.28033
 Alpha  occ. eigenvalues --  -10.27999 -10.27831 -10.27666 -10.27597 -10.27570
 Alpha  occ. eigenvalues --  -10.27542 -10.27358 -10.27082 -10.27018 -10.26988
 Alpha  occ. eigenvalues --  -10.26948 -10.26844 -10.26695 -10.26423 -10.26315
 Alpha  occ. eigenvalues --  -10.26253 -10.25849 -10.25837 -10.25737 -10.25605
 Alpha  occ. eigenvalues --  -10.25601 -10.25593 -10.25495 -10.25401 -10.25226
 Alpha  occ. eigenvalues --  -10.24998 -10.24863 -10.24763 -10.24606 -10.24442
 Alpha  occ. eigenvalues --  -10.24092 -10.23824 -10.23810 -10.23807 -10.23507
 Alpha  occ. eigenvalues --   -3.14124  -1.88852  -1.88352  -1.88286  -1.20357
 Alpha  occ. eigenvalues --   -1.18579  -1.09768  -1.08938  -1.07804  -1.05354
 Alpha  occ. eigenvalues --   -1.03803  -1.03093  -1.02068  -0.92250  -0.91854
 Alpha  occ. eigenvalues --   -0.90718  -0.90513  -0.89705  -0.89568  -0.88998
 Alpha  occ. eigenvalues --   -0.88695  -0.88025  -0.86815  -0.86584  -0.86174
 Alpha  occ. eigenvalues --   -0.85053  -0.84303  -0.83527  -0.83267  -0.82032
 Alpha  occ. eigenvalues --   -0.81597  -0.80986  -0.80405  -0.80044  -0.78012
 Alpha  occ. eigenvalues --   -0.77912  -0.77130  -0.76605  -0.76139  -0.76117
 Alpha  occ. eigenvalues --   -0.75303  -0.75159  -0.74339  -0.73224  -0.72031
 Alpha  occ. eigenvalues --   -0.71456  -0.71119  -0.70488  -0.69441  -0.67757
 Alpha  occ. eigenvalues --   -0.67380  -0.66036  -0.65562  -0.64489  -0.64315
 Alpha  occ. eigenvalues --   -0.64080  -0.63852  -0.63366  -0.62253  -0.61935
 Alpha  occ. eigenvalues --   -0.61057  -0.60779  -0.60289  -0.58974  -0.58641
 Alpha  occ. eigenvalues --   -0.58220  -0.57786  -0.57489  -0.57277  -0.57148
 Alpha  occ. eigenvalues --   -0.56373  -0.55811  -0.55522  -0.55156  -0.54874
 Alpha  occ. eigenvalues --   -0.54531  -0.54412  -0.54126  -0.53864  -0.53442
 Alpha  occ. eigenvalues --   -0.52724  -0.52567  -0.52056  -0.52016  -0.51953
 Alpha  occ. eigenvalues --   -0.51496  -0.51400  -0.51152  -0.50916  -0.50700
 Alpha  occ. eigenvalues --   -0.50463  -0.50255  -0.49728  -0.49604  -0.49222
 Alpha  occ. eigenvalues --   -0.49050  -0.48823  -0.48759  -0.48564  -0.48375
 Alpha  occ. eigenvalues --   -0.48102  -0.47833  -0.47622  -0.47335  -0.46992
 Alpha  occ. eigenvalues --   -0.46748  -0.46692  -0.46445  -0.46181  -0.46032
 Alpha  occ. eigenvalues --   -0.45938  -0.45907  -0.45526  -0.44888  -0.44847
 Alpha  occ. eigenvalues --   -0.44735  -0.44544  -0.44271  -0.44181  -0.44154
 Alpha  occ. eigenvalues --   -0.44085  -0.43940  -0.43553  -0.43335  -0.43171
 Alpha  occ. eigenvalues --   -0.43003  -0.42961  -0.42808  -0.42584  -0.42248
 Alpha  occ. eigenvalues --   -0.42164  -0.41777  -0.41674  -0.41587  -0.41490
 Alpha  occ. eigenvalues --   -0.41241  -0.40919  -0.40780  -0.40710  -0.40352
 Alpha  occ. eigenvalues --   -0.40259  -0.39851  -0.39611  -0.39154  -0.38910
 Alpha  occ. eigenvalues --   -0.38830  -0.38746  -0.38550  -0.38063  -0.37872
 Alpha  occ. eigenvalues --   -0.37770  -0.37574  -0.36943  -0.36880  -0.36444
 Alpha  occ. eigenvalues --   -0.36411  -0.36304  -0.36155  -0.35847  -0.35748
 Alpha  occ. eigenvalues --   -0.35261  -0.34836  -0.34576  -0.33968  -0.33533
 Alpha  occ. eigenvalues --   -0.33003  -0.31751  -0.31420  -0.30987  -0.30059
 Alpha  occ. eigenvalues --   -0.29791  -0.29210  -0.28099  -0.27661  -0.22645
 Alpha  occ. eigenvalues --   -0.20311
 Alpha virt. eigenvalues --   -0.05802  -0.03049   0.01652   0.03784   0.04817
 Alpha virt. eigenvalues --    0.05590   0.05858   0.06089   0.06622   0.06855
 Alpha virt. eigenvalues --    0.08094   0.10215   0.11010   0.11409   0.11693

 Mulliken charges:
               1
     1  Mg   0.830666
     2  C    0.066077
     3  C   -0.216905
     4  C   -0.179927
     5  C   -0.198488
     6  N   -0.625122
     7  C    0.332632
     8  C   -0.172254
     9  C   -0.141490
    10  C    0.296362
    11  C   -0.272839
    12  C   -0.168568
    13  C   -0.259956
    14  C    0.610707
    15  O   -0.480242
    16  O   -0.477168
    17  N   -0.680140
    18  C    0.278585
    19  C    0.013002
    20  C    0.011802
    21  C    0.263110
    22  C   -0.344334
    23  C   -0.085833
    24  C   -0.254394
    25  N   -0.683245
    26  C    0.320985
    27  C   -0.015702
    28  C    0.056673
    29  C    0.285366
    30  C   -0.357665
    31  C   -0.243417
    32  C   -0.299580
    33  N   -0.729789
    34  C    0.288643
    35  C   -0.030520
    36  C    0.023263
    37  C    0.308726
    38  C   -0.369472
    39  C    0.386452
    40  O   -0.487909
    41  C   -0.313199
    42  C    0.642283
    43  O   -0.500965
    44  O   -0.422742
    45  C   -0.103676
    46  C    0.010630
    47  C   -0.142197
    48  C    0.110534
    49  C   -0.351402
    50  C   -0.208456
    51  C   -0.169765
    52  C   -0.154755
    53  C   -0.060234
    54  C   -0.299796
    55  C   -0.163952
    56  C   -0.193978
    57  C   -0.142572
    58  C   -0.084011
    59  C   -0.285858
    60  C   -0.169328
    61  C   -0.201898
    62  C   -0.172447
    63  C   -0.078957
    64  C   -0.294758
    65  C   -0.303031
    66  H    0.057677
    67  H    0.085321
    68  H    0.096635
    69  H    0.112998
    70  H    0.107706
    71  H    0.071033
    72  H    0.101207
    73  H    0.146071
    74  H    0.130061
    75  H    0.096754
    76  H    0.142489
    77  H    0.139274
    78  H    0.111895
    79  H    0.130593
    80  H    0.119202
    81  H    0.092935
    82  H    0.101242
    83  H    0.115264
    84  H    0.111498
    85  H    0.105623
    86  H    0.099434
    87  H    0.092741
    88  H    0.104139
    89  H    0.111912
    90  H    0.115769
    91  H    0.128300
    92  H    0.139941
    93  H    0.138587
    94  H    0.098792
    95  H    0.160259
    96  H    0.146580
    97  H    0.152169
    98  H    0.128008
    99  H    0.129633
   100  H    0.122936
   101  H    0.079303
   102  H    0.125458
   103  H    0.097221
   104  H    0.098113
   105  H    0.103785
   106  H    0.089503
   107  H    0.114069
   108  H    0.094046
   109  H    0.067216
   110  H    0.076368
   111  H    0.099459
   112  H    0.111504
   113  H    0.082041
   114  H    0.110400
   115  H    0.056744
   116  H    0.055479
   117  H    0.090456
   118  H    0.081153
   119  H    0.085622
   120  H    0.097944
   121  H    0.081741
   122  H    0.084174
   123  H    0.103607
   124  H    0.094035
   125  H    0.086986
   126  H    0.101921
   127  H    0.093444
   128  H    0.105832
   129  H    0.083717
   130  H    0.100162
   131  H    0.055588
   132  H    0.098244
   133  H    0.103185
   134  H    0.100739
   135  H    0.107992
   136  H    0.106736
   137  H    0.087774
 Sum of Mulliken charges =   0.00000

 Dipole moment (field-independent basis, Debye):
    X=              3.1197    Y=              3.1363    Z=              0.9581  Tot=              4.5262
 Quadrupole moment (field-independent basis, Debye-Ang):
   XX=           -368.3635   YY=           -396.9907   ZZ=           -398.8149
   XY=            -18.9214   XZ=              0.3113   YZ=             -5.1647

 Normal termination of Gaussian 09 at Fri Jun 28 00:43:55 2019.
