 Gaussian 09, Revision D.01,
 Gaussian 09:  ES64L-G09RevD.01 24-Apr-2013

 -------------------------------------
 # td=(NStates=1) CAM-B3LYP/6-31G(d,p)
 -------------------------------------

 --
 TD
 --
 Symbolic Z-matrix:
 Charge =  0 Multiplicity = 1

                         Standard orientation:
 ---------------------------------------------------------------------
 Center     Atomic      Atomic             Coordinates (Angstroms)
 Number     Number       Type             X           Y           Z
 ---------------------------------------------------------------------
      1         12           0       -7.133586    0.611181    0.045975
      2          6           0       -4.843982   -1.922798    0.562831
      3          6           0       -4.857771    2.812593    1.268929
      4          6           0       -9.347170    3.036074   -0.385897
      5          6           0       -9.540002   -1.761174   -0.738257
      6          7           0       -5.105018    0.466348    0.693711
      7          6           0       -4.292396   -0.632086    0.837256
      8          6           0       -2.901299   -0.317740    1.148129
      9          6           0       -3.044300    1.069928    1.721934
     10          6           0       -4.368660    1.571692    1.256643
     11          6           0       -2.921361    1.261297    3.200719
     12          6           0       -1.994568   -0.553745    0.037779
     13          6           0       -0.542820   -0.335846    0.477582
     14          6           0        0.489835   -0.610538   -0.684502
     15          8           0        0.063120   -1.042783   -1.735910
     16          8           0        1.791918   -0.507142   -0.290381
     17          7           0       -7.127185    2.617778    0.321629
     18          6           0       -6.143920    3.254128    0.930000
     19          6           0       -6.425598    4.696527    0.902489
     20          6           0       -7.836639    4.839574    0.395057
     21          6           0       -8.121572    3.497649    0.160885
     22          6           0       -5.593326    5.769625    1.437132
     23          6           0       -8.592284    6.057373    0.280705
     24          6           0       -8.021050    7.237398    0.075801
     25          7           0       -9.083357    0.618843   -0.588410
     26          6           0       -9.806382    1.751894   -0.683335
     27          6           0      -11.173437    1.453284   -1.170084
     28          6           0      -11.217795    0.069742   -1.301568
     29          6           0       -9.841521   -0.355704   -0.937647
     30          6           0      -12.341013    2.387000   -1.299555
     31          6           0      -12.408105   -0.748214   -1.600591
     32          6           0      -12.353780   -1.214030   -3.219839
     33          7           0       -7.258473   -1.377703   -0.142853
     34          6           0       -8.250636   -2.266089   -0.442908
     35          6           0       -7.802206   -3.647468   -0.437382
     36          6           0       -6.409284   -3.569828   -0.101214
     37          6           0       -6.141137   -2.164236    0.101956
     38          6           0       -8.643628   -4.831947   -0.720056
     39          6           0       -5.272009   -4.348777    0.174522
     40          8           0       -5.107254   -5.623697    0.233215
     41          6           0       -4.051622   -3.345891    0.622149
     42          6           0       -3.461585   -3.692305    1.927809
     43          8           0       -3.787716   -3.129742    2.967266
     44          8           0       -2.557051   -4.666509    1.731823
     45          6           0       -2.012113   -5.050864    2.975081
     46          6           0        2.821806   -0.712768   -1.312262
     47          6           0        4.158455   -0.430090   -0.720584
     48          6           0        5.158074    0.456467   -1.040763
     49          6           0        5.118850    1.225318   -2.272584
     50          6           0        6.445133    0.534478   -0.282937
     51          6           0        7.705259    0.011209   -1.125640
     52          6           0        8.965438   -0.165425   -0.193923
     53          6           0       10.215444   -0.508674   -1.012902
     54          6           0       10.093573   -1.983223   -1.385771
     55          6           0       11.392401   -0.256016   -0.083619
     56          6           0       12.723197   -0.512142   -0.709504
     57          6           0       13.972184   -0.173079    0.227617
     58          6           0       15.279064   -0.297058   -0.512752
     59          6           0       15.562215   -1.645325   -1.071562
     60          6           0       16.321341    0.294730    0.441063
     61          6           0       17.752091    0.476587   -0.066162
     62          6           0       18.691289    1.271716    0.892049
     63          6           0       20.121748    1.333575    0.338044
     64          6           0       20.285122    2.204720   -0.920470
     65          6           0       21.050904    1.909300    1.447933
     66          1           0       -4.288315    3.878647    1.608918
     67          1           0       -9.894033    4.017601   -0.467886
     68          1           0      -10.173907   -2.633815   -0.910047
     69          1           0       -2.714272   -0.892998    2.048652
     70          1           0       -2.252238    1.955468    1.326112
     71          1           0       -1.884835    1.000607    3.238210
     72          1           0       -3.089107    2.339001    3.570159
     73          1           0       -3.513220    0.514365    3.672919
     74          1           0       -2.105079   -1.571982   -0.361730
     75          1           0       -2.405227    0.192859   -0.558879
     76          1           0       -0.489213    0.581409    0.900150
     77          1           0       -0.084837   -1.029298    1.330373
     78          1           0       -5.212622    6.488744    0.621658
     79          1           0       -6.301266    6.529089    1.873637
     80          1           0       -4.837795    5.459089    2.173952
     81          1           0       -9.806670    5.943775   -0.007646
     82          1           0       -8.661703    7.931673   -0.179456
     83          1           0       -6.933842    7.311014   -0.064998
     84          1           0      -12.208861    3.004163   -2.367530
     85          1           0      -13.219768    1.657989   -1.460996
     86          1           0      -12.308329    3.075071   -0.448915
     87          1           0      -12.368429   -1.763587   -1.092486
     88          1           0      -13.354711   -0.362614   -1.350255
     89          1           0      -13.495691   -1.473255   -3.299230
     90          1           0      -12.374088   -0.348050   -3.870351
     91          1           0      -11.513619   -1.814128   -3.434391
     92          1           0       -9.236118   -4.528822   -1.480901
     93          1           0       -8.030520   -5.803374   -0.857515
     94          1           0       -9.514511   -5.168740    0.152594
     95          1           0       -3.271853   -3.347567   -0.304792
     96          1           0       -1.050200   -4.327623    3.234255
     97          1           0       -2.794340   -5.133656    3.854128
     98          1           0       -1.761568   -6.261043    2.543325
     99          1           0        2.646692   -1.689471   -1.588138
    100          1           0        2.494253    0.028376   -2.029845
    101          1           0        4.267024   -0.735382    0.220271
    102          1           0        4.238956    1.249203   -2.687278
    103          1           0        5.440687    2.332642   -2.255288
    104          1           0        5.520921    0.563328   -3.303806
    105          1           0        6.574865    1.431625   -0.011065
    106          1           0        6.358982   -0.471954    0.422535
    107          1           0        7.302275   -0.974493   -1.500823
    108          1           0        8.011979    0.616060   -1.972656
    109          1           0        9.078928    0.856125    0.293095
    110          1           0        8.630207   -0.817810    0.562519
    111          1           0       10.350415   -0.018658   -1.898386
    112          1           0        9.241880   -2.142408   -1.905952
    113          1           0       10.896515   -2.433232   -2.019739
    114          1           0        9.952169   -2.752628   -0.511461
    115          1           0       11.403011    0.803650    0.265728
    116          1           0       11.153900   -1.065376    0.691655
    117          1           0       12.761044   -1.606178   -1.110534
    118          1           0       13.008449    0.133039   -1.600679
    119          1           0       13.988434    0.792441    0.510497
    120          1           0       13.950243   -0.814365    1.096665
    121          1           0       15.171290    0.411866   -1.483070
    122          1           0       15.804505   -2.185292   -0.115383
    123          1           0       14.895190   -2.028627   -1.886787
    124          1           0       16.528885   -1.649565   -1.477801
    125          1           0       15.968238    1.229990    0.786424
    126          1           0       16.257065   -0.191395    1.438668
    127          1           0       18.387595   -0.503730   -0.391142
    128          1           0       17.871666    1.069965   -1.055884
    129          1           0       18.339441    2.324942    1.005949
    130          1           0       18.858302    0.940820    1.967563
    131          1           0       20.536323    0.120594    0.142427
    132          1           0       20.084011    3.083179   -0.661170
    133          1           0       21.296628    2.138850   -1.310088
    134          1           0       19.659113    1.937887   -1.850864
    135          1           0       21.243226    1.289230    2.502011
    136          1           0       22.186760    2.034725    1.137454
    137          1           0       20.697150    2.835182    1.718053
 ---------------------------------------------------------------------

 SCF Done:  E(RCAM-B3LYP) =  -2932.55914313     A.U. after   18 cycles

 Excitation energies and oscillator strengths:

 Excited State   1:      Singlet-A      1.9186 eV  646.23 nm  f=0.2910  <S**2>=0.000
     240 -> 243       -0.21622
     241 -> 242        0.65803
 This state for optimization and/or second-order correction.
 Total Energy, E(TD-HF/TD-KS) =  -2932.48863660
 Copying the excited state density for this state as the 1-particle RhoCI density.

 The electronic state is 1-A.
 Alpha  occ. eigenvalues --  -46.84395 -19.27488 -19.25998 -19.21333 -19.21022
 Alpha  occ. eigenvalues --  -19.19999 -14.41813 -14.39767 -14.39444 -14.38822
 Alpha  occ. eigenvalues --  -10.39598 -10.39421 -10.35583 -10.34535 -10.31786
 Alpha  occ. eigenvalues --  -10.31135 -10.29901 -10.29834 -10.29755 -10.29744
 Alpha  occ. eigenvalues --  -10.29679 -10.29557 -10.29032 -10.28672 -10.28646
 Alpha  occ. eigenvalues --  -10.28347 -10.28060 -10.28044 -10.28028 -10.27913
 Alpha  occ. eigenvalues --  -10.27829 -10.27817 -10.27648 -10.27450 -10.27302
 Alpha  occ. eigenvalues --  -10.27204 -10.26917 -10.26801 -10.26697 -10.26583
 Alpha  occ. eigenvalues --  -10.26540 -10.26482 -10.26478 -10.26400 -10.26384
 Alpha  occ. eigenvalues --  -10.26295 -10.26252 -10.26197 -10.26130 -10.25974
 Alpha  occ. eigenvalues --  -10.25971 -10.25844 -10.25695 -10.25553 -10.25468
 Alpha  occ. eigenvalues --  -10.25403 -10.25401 -10.25238 -10.25029 -10.25023
 Alpha  occ. eigenvalues --  -10.24905 -10.24287 -10.23782 -10.23669 -10.23403
 Alpha  occ. eigenvalues --   -3.13498  -1.88199  -1.87741  -1.87683  -1.19433
 Alpha  occ. eigenvalues --   -1.17149  -1.09825  -1.09373  -1.06958  -1.05878
 Alpha  occ. eigenvalues --   -1.04650  -1.03644  -1.02715  -0.91983  -0.91804
 Alpha  occ. eigenvalues --   -0.91419  -0.91027  -0.90034  -0.89472  -0.88734
 Alpha  occ. eigenvalues --   -0.88593  -0.88343  -0.87675  -0.87339  -0.86006
 Alpha  occ. eigenvalues --   -0.85177  -0.83948  -0.83569  -0.83272  -0.82418
 Alpha  occ. eigenvalues --   -0.81826  -0.80995  -0.80359  -0.80067  -0.79011
 Alpha  occ. eigenvalues --   -0.78398  -0.76883  -0.76658  -0.76313  -0.76152
 Alpha  occ. eigenvalues --   -0.75260  -0.74726  -0.74290  -0.73938  -0.72230
 Alpha  occ. eigenvalues --   -0.71775  -0.71187  -0.70401  -0.69614  -0.68251
 Alpha  occ. eigenvalues --   -0.67412  -0.66484  -0.65005  -0.64957  -0.64732
 Alpha  occ. eigenvalues --   -0.63384  -0.63265  -0.63235  -0.62098  -0.62049
 Alpha  occ. eigenvalues --   -0.61336  -0.61211  -0.60348  -0.59806  -0.59585
 Alpha  occ. eigenvalues --   -0.58571  -0.58066  -0.57826  -0.57505  -0.57001
 Alpha  occ. eigenvalues --   -0.56437  -0.56171  -0.56011  -0.55634  -0.55242
 Alpha  occ. eigenvalues --   -0.54729  -0.54546  -0.54020  -0.53880  -0.53451
 Alpha  occ. eigenvalues --   -0.52859  -0.52771  -0.52205  -0.52112  -0.51893
 Alpha  occ. eigenvalues --   -0.51496  -0.51237  -0.50982  -0.50859  -0.50533
 Alpha  occ. eigenvalues --   -0.50387  -0.49976  -0.49895  -0.49665  -0.49543
 Alpha  occ. eigenvalues --   -0.49486  -0.49338  -0.48869  -0.48547  -0.48498
 Alpha  occ. eigenvalues --   -0.48288  -0.47779  -0.47654  -0.47483  -0.47112
 Alpha  occ. eigenvalues --   -0.46533  -0.46411  -0.46270  -0.46153  -0.46030
 Alpha  occ. eigenvalues --   -0.45722  -0.45643  -0.45541  -0.45291  -0.45212
 Alpha  occ. eigenvalues --   -0.44565  -0.44420  -0.44268  -0.44092  -0.43707
 Alpha  occ. eigenvalues --   -0.43593  -0.43417  -0.43135  -0.43092  -0.43001
 Alpha  occ. eigenvalues --   -0.42795  -0.42589  -0.42322  -0.42161  -0.41971
 Alpha  occ. eigenvalues --   -0.41788  -0.41665  -0.41516  -0.41296  -0.41063
 Alpha  occ. eigenvalues --   -0.40784  -0.40629  -0.40516  -0.40335  -0.40179
 Alpha  occ. eigenvalues --   -0.40034  -0.39846  -0.39631  -0.39431  -0.39385
 Alpha  occ. eigenvalues --   -0.38870  -0.38744  -0.38510  -0.38311  -0.38303
 Alpha  occ. eigenvalues --   -0.37966  -0.37561  -0.37276  -0.36930  -0.36768
 Alpha  occ. eigenvalues --   -0.36614  -0.36359  -0.36299  -0.36225  -0.36037
 Alpha  occ. eigenvalues --   -0.35672  -0.35614  -0.34997  -0.34049  -0.33813
 Alpha  occ. eigenvalues --   -0.33420  -0.33167  -0.31974  -0.30828  -0.29865
 Alpha  occ. eigenvalues --   -0.29487  -0.29344  -0.27902  -0.26104  -0.22554
 Alpha  occ. eigenvalues --   -0.21048
 Alpha virt. eigenvalues --   -0.07176  -0.02585   0.00470   0.03654   0.03925
 Alpha virt. eigenvalues --    0.05012   0.05857   0.06598   0.06682   0.06953
 Alpha virt. eigenvalues --    0.08174   0.10414   0.10678   0.11374   0.11539

 Mulliken charges:
               1
     1  Mg   0.822826
     2  C   -0.000093
     3  C   -0.202233
     4  C   -0.163001
     5  C   -0.173033
     6  N   -0.631198
     7  C    0.297301
     8  C   -0.154191
     9  C   -0.184119
    10  C    0.344256
    11  C   -0.287677
    12  C   -0.124909
    13  C   -0.268280
    14  C    0.601851
    15  O   -0.465121
    16  O   -0.505469
    17  N   -0.688935
    18  C    0.330952
    19  C   -0.024863
    20  C    0.048962
    21  C    0.257109
    22  C   -0.412003
    23  C   -0.087417
    24  C   -0.220978
    25  N   -0.644219
    26  C    0.281691
    27  C    0.021859
    28  C    0.051472
    29  C    0.283520
    30  C   -0.348646
    31  C   -0.279045
    32  C   -0.320314
    33  N   -0.727315
    34  C    0.270681
    35  C    0.053071
    36  C    0.059534
    37  C    0.307554
    38  C   -0.371268
    39  C    0.315754
    40  O   -0.500020
    41  C   -0.307739
    42  C    0.660236
    43  O   -0.484731
    44  O   -0.416041
    45  C   -0.084643
    46  C    0.034331
    47  C   -0.140788
    48  C    0.111161
    49  C   -0.348615
    50  C   -0.199138
    51  C   -0.198192
    52  C   -0.164504
    53  C   -0.058530
    54  C   -0.321041
    55  C   -0.145547
    56  C   -0.192865
    57  C   -0.159033
    58  C   -0.059250
    59  C   -0.298941
    60  C   -0.186424
    61  C   -0.168565
    62  C   -0.166640
    63  C   -0.045864
    64  C   -0.298045
    65  C   -0.309000
    66  H    0.068989
    67  H    0.070910
    68  H    0.083302
    69  H    0.125540
    70  H    0.078431
    71  H    0.108831
    72  H    0.112186
    73  H    0.130174
    74  H    0.124473
    75  H    0.124749
    76  H    0.133190
    77  H    0.117859
    78  H    0.116185
    79  H    0.129025
    80  H    0.119511
    81  H    0.081387
    82  H    0.096945
    83  H    0.104843
    84  H    0.097422
    85  H    0.106516
    86  H    0.129312
    87  H    0.107001
    88  H    0.115549
    89  H    0.095268
    90  H    0.116778
    91  H    0.127776
    92  H    0.135650
    93  H    0.152593
    94  H    0.100139
    95  H    0.148865
    96  H    0.110184
    97  H    0.147881
    98  H    0.101152
    99  H    0.140585
   100  H    0.126700
   101  H    0.092569
   102  H    0.123042
   103  H    0.106932
   104  H    0.083895
   105  H    0.105733
   106  H    0.083635
   107  H    0.094309
   108  H    0.100324
   109  H    0.080027
   110  H    0.103482
   111  H    0.095080
   112  H    0.114639
   113  H    0.096473
   114  H    0.081750
   115  H    0.083866
   116  H    0.086109
   117  H    0.085707
   118  H    0.077351
   119  H    0.096028
   120  H    0.088045
   121  H    0.048088
   122  H    0.090738
   123  H    0.107185
   124  H    0.107904
   125  H    0.101990
   126  H    0.091428
   127  H    0.075061
   128  H    0.089183
   129  H    0.083385
   130  H    0.090990
   131  H    0.042917
   132  H    0.116413
   133  H    0.106546
   134  H    0.091331
   135  H    0.077219
   136  H    0.084949
   137  H    0.114139
 Sum of Mulliken charges =   0.00000

 Dipole moment (field-independent basis, Debye):
    X=              1.7723    Y=              4.9390    Z=             -0.4164  Tot=              5.2639
 Quadrupole moment (field-independent basis, Debye-Ang):
   XX=           -343.9030   YY=           -399.7098   ZZ=           -399.7398
   XY=             -2.7337   XZ=              9.9052   YZ=             -1.8097

 Normal termination of Gaussian 09 at Thu Jun 27 15:15:33 2019.
