 Gaussian 09, Revision D.01,
 Gaussian 09:  ES64L-G09RevD.01 24-Apr-2013

 -------------------------------------
 # td=(NStates=1) CAM-B3LYP/6-31G(d,p)
 -------------------------------------

 --
 TD
 --
 Symbolic Z-matrix:
 Charge =  0 Multiplicity = 1

                         Standard orientation:
 ---------------------------------------------------------------------
 Center     Atomic      Atomic             Coordinates (Angstroms)
 Number     Number       Type             X           Y           Z
 ---------------------------------------------------------------------
      1         12           0       -7.098315    0.613167    0.121697
      2          6           0       -4.893847   -1.980261    0.442935
      3          6           0       -4.671634    2.740492    1.225749
      4          6           0       -9.345227    3.082071   -0.254115
      5          6           0       -9.565775   -1.723388   -0.738965
      6          7           0       -5.062105    0.433465    0.765632
      7          6           0       -4.356860   -0.771842    0.781995
      8          6           0       -2.991171   -0.468392    1.242813
      9          6           0       -2.998624    1.060601    1.758934
     10          6           0       -4.412026    1.481182    1.174602
     11          6           0       -2.938852    1.133166    3.270585
     12          6           0       -1.949913   -0.692805    0.095923
     13          6           0       -0.481387   -0.559316    0.571355
     14          6           0        0.527769   -0.829936   -0.575495
     15          8           0        0.188007   -1.007322   -1.779290
     16          8           0        1.767813   -0.484536   -0.196616
     17          7           0       -6.965663    2.609240    0.250600
     18          6           0       -5.948874    3.314603    0.707328
     19          6           0       -6.382580    4.742033    0.845194
     20          6           0       -7.681820    4.791080    0.431484
     21          6           0       -8.078859    3.502137    0.019302
     22          6           0       -5.417372    5.808807    1.285736
     23          6           0       -8.457302    6.115622    0.325229
     24          6           0       -8.026056    7.343408    0.022406
     25          7           0       -9.137854    0.668938   -0.370720
     26          6           0       -9.868366    1.812575   -0.495095
     27          6           0      -11.188728    1.694490   -1.070810
     28          6           0      -11.261756    0.219278   -1.077529
     29          6           0       -9.973021   -0.345855   -0.673889
     30          6           0      -12.268130    2.599309   -1.413509
     31          6           0      -12.362173   -0.656786   -1.626455
     32          6           0      -12.296700   -1.033772   -3.121421
     33          7           0       -7.231553   -1.309983   -0.108049
     34          6           0       -8.315602   -2.249528   -0.438371
     35          6           0       -7.874015   -3.606712   -0.523563
     36          6           0       -6.507888   -3.582025   -0.132353
     37          6           0       -6.152166   -2.247260    0.113427
     38          6           0       -8.642466   -4.850276   -0.985419
     39          6           0       -5.334554   -4.361850    0.111596
     40          8           0       -5.172533   -5.563546   -0.067088
     41          6           0       -4.185311   -3.380362    0.542586
     42          6           0       -3.492123   -3.721300    1.829455
     43          8           0       -3.688158   -3.195899    2.886734
     44          8           0       -2.602861   -4.716207    1.615397
     45          6           0       -2.010715   -5.231453    2.827502
     46          6           0        2.712499   -0.625017   -1.252655
     47          6           0        4.124103   -0.442396   -0.708502
     48          6           0        5.145133    0.307899   -1.036237
     49          6           0        5.052280    1.267654   -2.208782
     50          6           0        6.456549    0.421222   -0.306288
     51          6           0        7.666674   -0.155219   -1.009178
     52          6           0        8.877738   -0.139965   -0.092968
     53          6           0       10.065061   -0.553526   -0.910907
     54          6           0       10.066132   -2.076861   -1.274838
     55          6           0       11.333909   -0.215577    0.031765
     56          6           0       12.681855   -0.499242   -0.789680
     57          6           0       13.851396   -0.111516    0.177293
     58          6           0       15.274132   -0.172194   -0.503165
     59          6           0       15.511368   -1.666921   -0.842299
     60          6           0       16.395635    0.501003    0.431918
     61          6           0       17.757280    0.547925   -0.140767
     62          6           0       18.736662    1.270349    0.714509
     63          6           0       20.189716    1.389593    0.323061
     64          6           0       20.401960    2.104876   -1.074371
     65          6           0       21.015754    1.933698    1.377664
     66          1           0       -3.857566    3.404783    1.835392
     67          1           0      -10.019108    3.649888   -0.698206
     68          1           0      -10.500386   -2.339869   -0.827957
     69          1           0       -2.556072   -1.241712    1.943501
     70          1           0       -1.976655    1.654025    1.256331
     71          1           0       -2.057436    0.727487    3.626239
     72          1           0       -3.200235    2.197781    3.620385
     73          1           0       -3.681622    0.560345    3.983614
     74          1           0       -2.084816   -1.763034   -0.216766
     75          1           0       -1.943650   -0.064108   -0.786298
     76          1           0       -0.242706    0.408278    1.049113
     77          1           0       -0.331261   -1.293156    1.644128
     78          1           0       -5.030978    6.512142    0.615241
     79          1           0       -5.999915    6.416809    1.815296
     80          1           0       -4.675813    5.660462    1.908022
     81          1           0       -9.517215    5.968664    0.297188
     82          1           0       -8.640707    8.058863    0.129870
     83          1           0       -6.927608    7.725403   -0.000805
     84          1           0      -11.922482    3.324700   -2.219673
     85          1           0      -13.433745    2.060139   -1.734818
     86          1           0      -12.437411    3.438333   -0.732456
     87          1           0      -12.214583   -1.520466   -1.199191
     88          1           0      -13.420151   -0.239413   -1.545611
     89          1           0      -13.325391   -1.494548   -3.453645
     90          1           0      -12.202255    0.009694   -3.478883
     91          1           0      -11.311690   -1.546557   -3.492354
     92          1           0       -9.114448   -5.004735   -2.007374
     93          1           0       -7.900440   -5.718930   -0.753365
     94          1           0       -9.548490   -4.935512   -0.351212
     95          1           0       -3.453339   -3.482007   -0.357726
     96          1           0       -1.081519   -4.657982    3.275047
     97          1           0       -2.609497   -5.344632    3.674727
     98          1           0       -1.590998   -6.039467    2.527292
     99          1           0        2.586541   -1.718370   -1.634181
    100          1           0        2.575206   -0.088096   -2.248038
    101          1           0        4.349758   -0.963957    0.240361
    102          1           0        3.915458    1.104858   -2.531645
    103          1           0        5.196062    2.235692   -1.899969
    104          1           0        5.927149    1.194229   -2.960470
    105          1           0        6.622294    1.556043   -0.095045
    106          1           0        6.445703   -0.037204    0.759109
    107          1           0        7.388719   -1.336606   -0.983347
    108          1           0        7.613388    0.163878   -2.081238
    109          1           0        9.069787    0.953738    0.234289
    110          1           0        8.897210   -0.791817    0.818933
    111          1           0       10.088531   -0.028317   -1.814055
    112          1           0        9.003912   -1.954179   -1.754725
    113          1           0       10.820469   -2.384009   -1.930776
    114          1           0        9.879146   -2.668783   -0.466609
    115          1           0       11.157065    0.781994    0.476361
    116          1           0       11.275153   -1.133932    0.707050
    117          1           0       12.662322   -1.493366   -1.039806
    118          1           0       12.748731    0.059434   -1.789339
    119          1           0       13.539637    0.902736    0.356356
    120          1           0       13.852997   -0.392976    1.299564
    121          1           0       14.997747    0.259788   -1.517369
    122          1           0       15.760294   -2.350992    0.090632
    123          1           0       14.726738   -1.913945   -1.526271
    124          1           0       16.265284   -1.696040   -1.510855
    125          1           0       15.896671    1.466559    0.537162
    126          1           0       16.375805    0.146807    1.452675
    127          1           0       17.971026   -0.652019   -0.333846
    128          1           0       17.532658    0.844500   -1.137849
    129          1           0       18.303905    2.295813    0.989368
    130          1           0       18.722681    0.616519    1.715180
    131          1           0       20.594015    0.267829    0.079367
    132          1           0       20.197377    3.234497   -0.827810
    133          1           0       21.441007    2.332395   -1.473034
    134          1           0       19.556686    1.653278   -1.722290
    135          1           0       20.699721    1.417193    2.278543
    136          1           0       22.119947    2.092941    0.899883
    137          1           0       20.984983    3.101545    1.674669
 ---------------------------------------------------------------------

 SCF Done:  E(RCAM-B3LYP) =  -2932.55014217     A.U. after   17 cycles

 Excitation energies and oscillator strengths:

 Excited State   1:      Singlet-A      2.0972 eV  591.19 nm  f=0.2601  <S**2>=0.000
     240 -> 243        0.25667
     241 -> 242        0.65275
 This state for optimization and/or second-order correction.
 Total Energy, E(TD-HF/TD-KS) =  -2932.47307131
 Copying the excited state density for this state as the 1-particle RhoCI density.

 The electronic state is 1-A.
 Alpha  occ. eigenvalues --  -46.83409 -19.28227 -19.27137 -19.21645 -19.21539
 Alpha  occ. eigenvalues --  -19.20247 -14.40720 -14.40226 -14.39486 -14.39107
 Alpha  occ. eigenvalues --  -10.40642 -10.39647 -10.35220 -10.33499 -10.31292
 Alpha  occ. eigenvalues --  -10.30887 -10.30289 -10.30258 -10.30045 -10.29954
 Alpha  occ. eigenvalues --  -10.29498 -10.29451 -10.29328 -10.29295 -10.29154
 Alpha  occ. eigenvalues --  -10.29101 -10.28979 -10.28875 -10.28712 -10.27900
 Alpha  occ. eigenvalues --  -10.27752 -10.27606 -10.27412 -10.27304 -10.27171
 Alpha  occ. eigenvalues --  -10.27110 -10.26993 -10.26949 -10.26914 -10.26835
 Alpha  occ. eigenvalues --  -10.26807 -10.26627 -10.26504 -10.26305 -10.26272
 Alpha  occ. eigenvalues --  -10.26215 -10.26191 -10.26189 -10.26177 -10.26090
 Alpha  occ. eigenvalues --  -10.26023 -10.25957 -10.25930 -10.25749 -10.25722
 Alpha  occ. eigenvalues --  -10.25633 -10.25547 -10.25451 -10.25209 -10.25092
 Alpha  occ. eigenvalues --  -10.24832 -10.24694 -10.23862 -10.23537 -10.23193
 Alpha  occ. eigenvalues --   -3.12634  -1.87323  -1.86883  -1.86830  -1.19383
 Alpha  occ. eigenvalues --   -1.18963  -1.10597  -1.10350  -1.08107  -1.04549
 Alpha  occ. eigenvalues --   -1.03546  -1.02880  -1.00965  -0.93112  -0.91778
 Alpha  occ. eigenvalues --   -0.90481  -0.89930  -0.89759  -0.89232  -0.88773
 Alpha  occ. eigenvalues --   -0.88238  -0.88093  -0.87863  -0.86444  -0.85512
 Alpha  occ. eigenvalues --   -0.85147  -0.84555  -0.84355  -0.83829  -0.83267
 Alpha  occ. eigenvalues --   -0.82208  -0.81517  -0.81035  -0.79961  -0.79555
 Alpha  occ. eigenvalues --   -0.77877  -0.77503  -0.76359  -0.76011  -0.75803
 Alpha  occ. eigenvalues --   -0.75347  -0.74725  -0.74623  -0.73540  -0.73068
 Alpha  occ. eigenvalues --   -0.71446  -0.70140  -0.69063  -0.68699  -0.68388
 Alpha  occ. eigenvalues --   -0.67890  -0.66059  -0.65721  -0.65061  -0.64566
 Alpha  occ. eigenvalues --   -0.64469  -0.63808  -0.63485  -0.62398  -0.62339
 Alpha  occ. eigenvalues --   -0.61150  -0.61016  -0.60335  -0.60153  -0.59415
 Alpha  occ. eigenvalues --   -0.58873  -0.58549  -0.57734  -0.56939  -0.56761
 Alpha  occ. eigenvalues --   -0.56051  -0.55880  -0.55425  -0.54800  -0.54658
 Alpha  occ. eigenvalues --   -0.54360  -0.54325  -0.53914  -0.53793  -0.53158
 Alpha  occ. eigenvalues --   -0.53083  -0.52706  -0.52588  -0.52260  -0.52223
 Alpha  occ. eigenvalues --   -0.51255  -0.51153  -0.50861  -0.50769  -0.50463
 Alpha  occ. eigenvalues --   -0.50371  -0.50141  -0.49848  -0.49448  -0.49401
 Alpha  occ. eigenvalues --   -0.49140  -0.49075  -0.48781  -0.48569  -0.48262
 Alpha  occ. eigenvalues --   -0.48143  -0.47857  -0.47800  -0.47465  -0.47044
 Alpha  occ. eigenvalues --   -0.46938  -0.46830  -0.46584  -0.46123  -0.45868
 Alpha  occ. eigenvalues --   -0.45833  -0.45611  -0.45518  -0.45281  -0.45107
 Alpha  occ. eigenvalues --   -0.44820  -0.44756  -0.44510  -0.44378  -0.44217
 Alpha  occ. eigenvalues --   -0.44107  -0.43891  -0.43586  -0.43409  -0.43206
 Alpha  occ. eigenvalues --   -0.43173  -0.43064  -0.42830  -0.42591  -0.42487
 Alpha  occ. eigenvalues --   -0.42005  -0.41888  -0.41770  -0.41432  -0.41282
 Alpha  occ. eigenvalues --   -0.41154  -0.40715  -0.40657  -0.40610  -0.40034
 Alpha  occ. eigenvalues --   -0.39890  -0.39809  -0.39244  -0.38763  -0.38697
 Alpha  occ. eigenvalues --   -0.38294  -0.38011  -0.37877  -0.37718  -0.37646
 Alpha  occ. eigenvalues --   -0.37547  -0.37392  -0.37314  -0.37079  -0.36446
 Alpha  occ. eigenvalues --   -0.36241  -0.36044  -0.35927  -0.35718  -0.35442
 Alpha  occ. eigenvalues --   -0.35419  -0.34484  -0.34470  -0.34226  -0.33471
 Alpha  occ. eigenvalues --   -0.32845  -0.32599  -0.31635  -0.31390  -0.30397
 Alpha  occ. eigenvalues --   -0.30188  -0.29340  -0.28480  -0.27100  -0.23646
 Alpha  occ. eigenvalues --   -0.21958
 Alpha virt. eigenvalues --   -0.06956  -0.03479   0.00897   0.03452   0.04502
 Alpha virt. eigenvalues --    0.05463   0.06584   0.06726   0.06772   0.07228
 Alpha virt. eigenvalues --    0.08259   0.09578   0.10159   0.10937   0.11428

 Mulliken charges:
               1
     1  Mg   0.810785
     2  C    0.041237
     3  C   -0.204295
     4  C   -0.118124
     5  C   -0.173061
     6  N   -0.692219
     7  C    0.347258
     8  C   -0.186973
     9  C   -0.137988
    10  C    0.424269
    11  C   -0.302386
    12  C   -0.176160
    13  C   -0.267984
    14  C    0.618848
    15  O   -0.485920
    16  O   -0.441244
    17  N   -0.688638
    18  C    0.305284
    19  C   -0.023663
    20  C    0.014062
    21  C    0.271502
    22  C   -0.368642
    23  C   -0.079516
    24  C   -0.214440
    25  N   -0.665218
    26  C    0.231153
    27  C    0.097227
    28  C   -0.043206
    29  C    0.289648
    30  C   -0.392612
    31  C   -0.230409
    32  C   -0.305936
    33  N   -0.722601
    34  C    0.257938
    35  C    0.053442
    36  C    0.044749
    37  C    0.289283
    38  C   -0.383080
    39  C    0.335578
    40  O   -0.465058
    41  C   -0.314953
    42  C    0.637231
    43  O   -0.463527
    44  O   -0.451558
    45  C   -0.077936
    46  C    0.001481
    47  C   -0.140320
    48  C    0.137143
    49  C   -0.352530
    50  C   -0.226388
    51  C   -0.175082
    52  C   -0.163187
    53  C   -0.081415
    54  C   -0.313098
    55  C   -0.182330
    56  C   -0.192771
    57  C   -0.174762
    58  C   -0.084270
    59  C   -0.295472
    60  C   -0.180811
    61  C   -0.165433
    62  C   -0.160093
    63  C   -0.029160
    64  C   -0.314368
    65  C   -0.288688
    66  H    0.093934
    67  H    0.073354
    68  H    0.098560
    69  H    0.117989
    70  H    0.078574
    71  H    0.119480
    72  H    0.094971
    73  H    0.113046
    74  H    0.112802
    75  H    0.130388
    76  H    0.142744
    77  H    0.083671
    78  H    0.125987
    79  H    0.129560
    80  H    0.115602
    81  H    0.088174
    82  H    0.104929
    83  H    0.093094
    84  H    0.120651
    85  H    0.100698
    86  H    0.129943
    87  H    0.106442
    88  H    0.094704
    89  H    0.095392
    90  H    0.108956
    91  H    0.101126
    92  H    0.134700
    93  H    0.147807
    94  H    0.125735
    95  H    0.168430
    96  H    0.091108
    97  H    0.146664
    98  H    0.132854
    99  H    0.121993
   100  H    0.134083
   101  H    0.079302
   102  H    0.087558
   103  H    0.129217
   104  H    0.101716
   105  H    0.084096
   106  H    0.086402
   107  H    0.089972
   108  H    0.104942
   109  H    0.082039
   110  H    0.103819
   111  H    0.090290
   112  H    0.085333
   113  H    0.114834
   114  H    0.109135
   115  H    0.088734
   116  H    0.090010
   117  H    0.110608
   118  H    0.081382
   119  H    0.089839
   120  H    0.080045
   121  H    0.076288
   122  H    0.090117
   123  H    0.096049
   124  H    0.104819
   125  H    0.092189
   126  H    0.091022
   127  H    0.068553
   128  H    0.103933
   129  H    0.092911
   130  H    0.076948
   131  H    0.070698
   132  H    0.077663
   133  H    0.106504
   134  H    0.104632
   135  H    0.106611
   136  H    0.087534
   137  H    0.075515
 Sum of Mulliken charges =   0.00000

 Dipole moment (field-independent basis, Debye):
    X=              0.4399    Y=              4.4535    Z=              1.2362  Tot=              4.6428
 Quadrupole moment (field-independent basis, Debye-Ang):
   XX=           -360.5147   YY=           -388.1590   ZZ=           -399.8250
   XY=            -17.4351   XZ=              6.4219   YZ=             -3.9455

 Normal termination of Gaussian 09 at Fri Jun 28 11:57:11 2019.
