 Gaussian 09, Revision D.01,
 Gaussian 09:  ES64L-G09RevD.01 24-Apr-2013

 -------------------------------------
 # td=(NStates=1) CAM-B3LYP/6-31G(d,p)
 -------------------------------------

 --
 TD
 --
 Symbolic Z-matrix:
 Charge =  0 Multiplicity = 1

                         Standard orientation:
 ---------------------------------------------------------------------
 Center     Atomic      Atomic             Coordinates (Angstroms)
 Number     Number       Type             X           Y           Z
 ---------------------------------------------------------------------
      1         12           0       -7.200968    0.565816    0.066314
      2          6           0       -4.855759   -2.013744    0.439024
      3          6           0       -4.817497    2.805369    1.115987
      4          6           0       -9.448147    3.124776   -0.331703
      5          6           0       -9.522523   -1.721235   -0.750566
      6          7           0       -5.100542    0.441145    0.773916
      7          6           0       -4.285691   -0.786781    0.751206
      8          6           0       -2.896149   -0.357609    1.232888
      9          6           0       -3.005464    1.139422    1.718162
     10          6           0       -4.478707    1.428634    1.165643
     11          6           0       -2.766077    1.365745    3.149488
     12          6           0       -1.855398   -0.554423    0.123804
     13          6           0       -0.413682   -0.526706    0.518945
     14          6           0        0.568289   -0.725119   -0.564047
     15          8           0        0.186753   -1.007163   -1.765049
     16          8           0        1.854642   -0.563228   -0.231385
     17          7           0       -7.110854    2.623819    0.374397
     18          6           0       -6.068296    3.410255    0.928728
     19          6           0       -6.366432    4.793367    0.812755
     20          6           0       -7.671057    4.837221    0.435796
     21          6           0       -8.165791    3.425168    0.186188
     22          6           0       -5.539310    5.897421    1.370843
     23          6           0       -8.561953    6.075764    0.264359
     24          6           0       -8.119237    7.369964    0.232373
     25          7           0       -9.182906    0.680894   -0.467540
     26          6           0       -9.972305    1.789320   -0.567551
     27          6           0      -11.214349    1.443638   -1.180046
     28          6           0      -11.293572    0.112650   -1.168144
     29          6           0       -9.964677   -0.440407   -0.795710
     30          6           0      -12.296912    2.455438   -1.369004
     31          6           0      -12.307021   -0.787343   -1.647752
     32          6           0      -12.468361   -0.927899   -3.247683
     33          7           0       -7.152675   -1.372474   -0.150020
     34          6           0       -8.219905   -2.254877   -0.539711
     35          6           0       -7.813432   -3.613593   -0.505149
     36          6           0       -6.462900   -3.571539   -0.070514
     37          6           0       -6.171834   -2.201290    0.135024
     38          6           0       -8.573337   -4.747360   -0.829030
     39          6           0       -5.292885   -4.417769    0.078848
     40          8           0       -5.065234   -5.634588   -0.209089
     41          6           0       -4.129540   -3.327079    0.493522
     42          6           0       -3.605132   -3.748888    1.927792
     43          8           0       -3.850598   -3.218571    2.965582
     44          8           0       -2.773641   -4.880157    1.692634
     45          6           0       -2.280920   -5.469309    2.868852
     46          6           0        2.858126   -0.828791   -1.319847
     47          6           0        4.131744   -0.496329   -0.596060
     48          6           0        4.967705    0.348833   -1.080542
     49          6           0        4.874856    1.177391   -2.251824
     50          6           0        6.317714    0.597132   -0.319411
     51          6           0        7.530624   -0.070700   -1.024755
     52          6           0        8.870450    0.059032   -0.156991
     53          6           0       10.200855   -0.482116   -0.848337
     54          6           0       10.174491   -1.968376   -1.144484
     55          6           0       11.484827   -0.135686    0.068986
     56          6           0       12.786865   -0.385707   -0.632792
     57          6           0       13.972157   -0.111581    0.294640
     58          6           0       15.358755   -0.224041   -0.491499
     59          6           0       15.680006   -1.717451   -0.779801
     60          6           0       16.426179    0.499127    0.430808
     61          6           0       17.846288    0.510085   -0.180990
     62          6           0       18.723696    1.202685    0.713223
     63          6           0       20.196079    1.272517    0.225088
     64          6           0       20.406619    1.969038   -1.117022
     65          6           0       21.073598    1.943014    1.237792
     66          1           0       -4.000482    3.439712    1.567670
     67          1           0      -10.139235    3.795659   -0.604773
     68          1           0      -10.172565   -2.334356   -1.250429
     69          1           0       -2.406304   -0.804760    2.234728
     70          1           0       -2.323872    1.977752    1.189367
     71          1           0       -1.675956    0.985724    3.444086
     72          1           0       -3.109095    2.432231    3.632209
     73          1           0       -3.450129    0.805629    3.757668
     74          1           0       -2.193508   -1.615939   -0.166392
     75          1           0       -2.131913   -0.046955   -0.811262
     76          1           0       -0.196591    0.578890    0.850690
     77          1           0       -0.257691   -1.110763    1.495932
     78          1           0       -5.035407    6.460449    0.612186
     79          1           0       -6.053592    6.629182    2.131595
     80          1           0       -4.606055    5.481366    1.788938
     81          1           0       -9.664471    5.762736    0.449047
     82          1           0       -8.951143    8.394145    0.235167
     83          1           0       -7.068025    7.692251   -0.148245
     84          1           0      -12.094492    3.161068   -2.231892
     85          1           0      -13.079375    1.984045   -1.673852
     86          1           0      -12.416251    3.120905   -0.563769
     87          1           0      -12.255199   -1.724711   -1.247323
     88          1           0      -13.348392   -0.373160   -1.239803
     89          1           0      -13.241722   -1.683759   -3.382745
     90          1           0      -12.794290    0.228652   -3.499934
     91          1           0      -11.392904   -1.236237   -3.653711
     92          1           0       -9.030206   -4.544278   -1.770759
     93          1           0       -7.981046   -5.747508   -0.798908
     94          1           0       -9.512670   -4.720480   -0.305999
     95          1           0       -3.327119   -3.578791   -0.179473
     96          1           0       -1.428677   -4.873441    3.547883
     97          1           0       -3.198023   -5.611454    3.700777
     98          1           0       -1.781012   -6.446087    2.647102
     99          1           0        2.705262   -1.899449   -1.679359
    100          1           0        2.839366   -0.084877   -1.999823
    101          1           0        4.326878   -1.060864    0.437631
    102          1           0        4.027177    1.373090   -3.010649
    103          1           0        4.931698    2.241990   -1.962891
    104          1           0        5.921940    0.953341   -2.997434
    105          1           0        6.526678    1.571035   -0.348079
    106          1           0        6.224682   -0.117116    0.743269
    107          1           0        7.186882   -1.108146   -1.096994
    108          1           0        7.926705    0.316304   -2.007574
    109          1           0        8.981963    1.120471    0.072968
    110          1           0        8.599935   -0.599939    0.833922
    111          1           0       10.508157    0.126812   -1.662861
    112          1           0        9.387185   -2.255092   -1.906472
    113          1           0       11.118189   -2.184117   -1.516750
    114          1           0       10.012701   -2.374291   -0.086699
    115          1           0       11.533432    0.868271    0.355644
    116          1           0       11.313040   -0.551757    1.047353
    117          1           0       12.756368   -1.438426   -1.154703
    118          1           0       12.954555    0.325350   -1.403843
    119          1           0       13.968701    0.946808    0.827445
    120          1           0       14.154216   -0.872649    1.186577
    121          1           0       15.187416    0.387497   -1.403637
    122          1           0       15.576886   -2.360529    0.247897
    123          1           0       15.049414   -2.010564   -1.543736
    124          1           0       16.847545   -2.045417   -0.969612
    125          1           0       16.248519    1.634953    0.288940
    126          1           0       16.449034   -0.079947    1.534817
    127          1           0       18.248485   -0.623621   -0.324975
    128          1           0       17.931602    1.008844   -1.230049
    129          1           0       18.345231    2.327570    0.803979
    130          1           0       18.651738    0.784784    1.545327
    131          1           0       20.538162    0.274734   -0.065257
    132          1           0       20.488495    3.064367   -0.923512
    133          1           0       21.301390    1.857391   -1.649426
    134          1           0       19.566998    1.751789   -2.013307
    135          1           0       21.121513    1.558306    2.330554
    136          1           0       22.252564    2.038033    0.983565
    137          1           0       20.757745    3.047986    1.370599
 ---------------------------------------------------------------------

 SCF Done:  E(RCAM-B3LYP) =  -2932.58041820     A.U. after   17 cycles

 Excitation energies and oscillator strengths:

 Excited State   1:      Singlet-A      2.1591 eV  574.24 nm  f=0.2071  <S**2>=0.000
     240 -> 242       -0.11730
     240 -> 243       -0.22880
     241 -> 242        0.64495
 This state for optimization and/or second-order correction.
 Total Energy, E(TD-HF/TD-KS) =  -2932.50107295
 Copying the excited state density for this state as the 1-particle RhoCI density.

 The electronic state is 1-A.
 Alpha  occ. eigenvalues --  -46.84670 -19.26435 -19.26205 -19.22533 -19.19672
 Alpha  occ. eigenvalues --  -19.19298 -14.42144 -14.39764 -14.39628 -14.39040
 Alpha  occ. eigenvalues --  -10.39964 -10.39116 -10.35104 -10.32899 -10.31713
 Alpha  occ. eigenvalues --  -10.31444 -10.31093 -10.30920 -10.30847 -10.29895
 Alpha  occ. eigenvalues --  -10.29680 -10.29456 -10.28959 -10.28769 -10.28748
 Alpha  occ. eigenvalues --  -10.28546 -10.28523 -10.28475 -10.28448 -10.28395
 Alpha  occ. eigenvalues --  -10.28340 -10.28146 -10.27643 -10.27457 -10.27455
 Alpha  occ. eigenvalues --  -10.27364 -10.27336 -10.27292 -10.27235 -10.27086
 Alpha  occ. eigenvalues --  -10.26961 -10.26847 -10.26769 -10.26609 -10.26504
 Alpha  occ. eigenvalues --  -10.26487 -10.26471 -10.26459 -10.26439 -10.26326
 Alpha  occ. eigenvalues --  -10.26250 -10.26112 -10.26091 -10.26089 -10.25943
 Alpha  occ. eigenvalues --  -10.25889 -10.25831 -10.25494 -10.25190 -10.25139
 Alpha  occ. eigenvalues --  -10.24910 -10.24738 -10.24701 -10.24119 -10.23567
 Alpha  occ. eigenvalues --   -3.13704  -1.88410  -1.87919  -1.87906  -1.17215
 Alpha  occ. eigenvalues --   -1.16327  -1.10533  -1.07131  -1.05390  -1.04849
 Alpha  occ. eigenvalues --   -1.03768  -1.03601  -1.02396  -0.92760  -0.92302
 Alpha  occ. eigenvalues --   -0.90851  -0.90175  -0.89807  -0.89641  -0.89028
 Alpha  occ. eigenvalues --   -0.88925  -0.88079  -0.87514  -0.87398  -0.86251
 Alpha  occ. eigenvalues --   -0.85209  -0.84267  -0.83661  -0.83456  -0.82250
 Alpha  occ. eigenvalues --   -0.81811  -0.81051  -0.80419  -0.80347  -0.78738
 Alpha  occ. eigenvalues --   -0.77930  -0.77532  -0.75980  -0.75522  -0.74895
 Alpha  occ. eigenvalues --   -0.74672  -0.74349  -0.74019  -0.73283  -0.72779
 Alpha  occ. eigenvalues --   -0.71632  -0.70269  -0.69618  -0.68453  -0.67743
 Alpha  occ. eigenvalues --   -0.66114  -0.65772  -0.65701  -0.64236  -0.63979
 Alpha  occ. eigenvalues --   -0.63817  -0.63205  -0.62699  -0.62568  -0.61574
 Alpha  occ. eigenvalues --   -0.61060  -0.60520  -0.60235  -0.59679  -0.59223
 Alpha  occ. eigenvalues --   -0.58810  -0.58475  -0.57572  -0.56984  -0.56614
 Alpha  occ. eigenvalues --   -0.56450  -0.55547  -0.55493  -0.55344  -0.54604
 Alpha  occ. eigenvalues --   -0.54390  -0.54025  -0.53778  -0.53374  -0.53034
 Alpha  occ. eigenvalues --   -0.52650  -0.52471  -0.52061  -0.51914  -0.51477
 Alpha  occ. eigenvalues --   -0.51227  -0.50989  -0.50847  -0.50486  -0.50348
 Alpha  occ. eigenvalues --   -0.50044  -0.49935  -0.49687  -0.49615  -0.49427
 Alpha  occ. eigenvalues --   -0.49233  -0.48683  -0.48603  -0.48146  -0.48070
 Alpha  occ. eigenvalues --   -0.47946  -0.47782  -0.47459  -0.47334  -0.47139
 Alpha  occ. eigenvalues --   -0.46507  -0.46331  -0.46242  -0.46169  -0.45962
 Alpha  occ. eigenvalues --   -0.45748  -0.45505  -0.45426  -0.45215  -0.45016
 Alpha  occ. eigenvalues --   -0.44991  -0.44736  -0.44641  -0.44240  -0.44056
 Alpha  occ. eigenvalues --   -0.43963  -0.43701  -0.43269  -0.42999  -0.42906
 Alpha  occ. eigenvalues --   -0.42771  -0.42509  -0.42420  -0.42170  -0.41870
 Alpha  occ. eigenvalues --   -0.41842  -0.41645  -0.41511  -0.40969  -0.40922
 Alpha  occ. eigenvalues --   -0.40808  -0.40735  -0.40711  -0.40581  -0.40430
 Alpha  occ. eigenvalues --   -0.40118  -0.39790  -0.39486  -0.39044  -0.38936
 Alpha  occ. eigenvalues --   -0.38871  -0.38442  -0.38274  -0.37976  -0.37482
 Alpha  occ. eigenvalues --   -0.37363  -0.37277  -0.37106  -0.36885  -0.36358
 Alpha  occ. eigenvalues --   -0.36330  -0.36302  -0.35896  -0.35793  -0.35056
 Alpha  occ. eigenvalues --   -0.34879  -0.34649  -0.34641  -0.34154  -0.33068
 Alpha  occ. eigenvalues --   -0.32777  -0.32555  -0.32287  -0.31172  -0.30752
 Alpha  occ. eigenvalues --   -0.29207  -0.29087  -0.28512  -0.28234  -0.23664
 Alpha  occ. eigenvalues --   -0.21483
 Alpha virt. eigenvalues --   -0.06339  -0.03339   0.00498   0.03736   0.05228
 Alpha virt. eigenvalues --    0.05670   0.05871   0.06559   0.06711   0.07265
 Alpha virt. eigenvalues --    0.07937   0.09951   0.10588   0.10753   0.11086

 Mulliken charges:
               1
     1  Mg   0.834304
     2  C    0.082132
     3  C   -0.199226
     4  C   -0.179358
     5  C   -0.158915
     6  N   -0.604999
     7  C    0.231855
     8  C   -0.169625
     9  C   -0.119023
    10  C    0.374793
    11  C   -0.313293
    12  C   -0.147476
    13  C   -0.269487
    14  C    0.625334
    15  O   -0.522188
    16  O   -0.486438
    17  N   -0.692902
    18  C    0.274368
    19  C    0.054362
    20  C   -0.035200
    21  C    0.373117
    22  C   -0.376414
    23  C   -0.052833
    24  C   -0.251639
    25  N   -0.699968
    26  C    0.280617
    27  C    0.012445
    28  C    0.062605
    29  C    0.288024
    30  C   -0.356888
    31  C   -0.278564
    32  C   -0.282528
    33  N   -0.737627
    34  C    0.219983
    35  C    0.080274
    36  C    0.006333
    37  C    0.330487
    38  C   -0.409310
    39  C    0.338593
    40  O   -0.489844
    41  C   -0.335292
    42  C    0.623695
    43  O   -0.430479
    44  O   -0.449818
    45  C   -0.068405
    46  C    0.031729
    47  C   -0.154026
    48  C    0.169122
    49  C   -0.385974
    50  C   -0.196881
    51  C   -0.186782
    52  C   -0.165241
    53  C   -0.081103
    54  C   -0.286928
    55  C   -0.185610
    56  C   -0.180341
    57  C   -0.167103
    58  C   -0.067617
    59  C   -0.287795
    60  C   -0.164451
    61  C   -0.176236
    62  C   -0.109848
    63  C   -0.049342
    64  C   -0.310703
    65  C   -0.307494
    66  H    0.077470
    67  H    0.067050
    68  H    0.078633
    69  H    0.105547
    70  H    0.091524
    71  H    0.100676
    72  H    0.092485
    73  H    0.131617
    74  H    0.104539
    75  H    0.129314
    76  H    0.123543
    77  H    0.134980
    78  H    0.128466
    79  H    0.130753
    80  H    0.107333
    81  H    0.101806
    82  H    0.079714
    83  H    0.117373
    84  H    0.108158
    85  H    0.112470
    86  H    0.131145
    87  H    0.113351
    88  H    0.082292
    89  H    0.120638
    90  H    0.094237
    91  H    0.106732
    92  H    0.128737
    93  H    0.150819
    94  H    0.128814
    95  H    0.177155
    96  H    0.081915
    97  H    0.101407
    98  H    0.128068
    99  H    0.139165
   100  H    0.129171
   101  H    0.087322
   102  H    0.124811
   103  H    0.126120
   104  H    0.090205
   105  H    0.102839
   106  H    0.078273
   107  H    0.101400
   108  H    0.090813
   109  H    0.092628
   110  H    0.061791
   111  H    0.085368
   112  H    0.101207
   113  H    0.105330
   114  H    0.097814
   115  H    0.093368
   116  H    0.092153
   117  H    0.087942
   118  H    0.103115
   119  H    0.081442
   120  H    0.075216
   121  H    0.081392
   122  H    0.078483
   123  H    0.118039
   124  H    0.084364
   125  H    0.092028
   126  H    0.074243
   127  H    0.060285
   128  H    0.082819
   129  H    0.062501
   130  H    0.098794
   131  H    0.093924
   132  H    0.091742
   133  H    0.115158
   134  H    0.070376
   135  H    0.092710
   136  H    0.079839
   137  H    0.094094
 Sum of Mulliken charges =   0.00000

 Dipole moment (field-independent basis, Debye):
    X=              1.1626    Y=              6.2745    Z=              0.4787  Tot=              6.3993
 Quadrupole moment (field-independent basis, Debye-Ang):
   XX=           -328.4158   YY=           -398.8674   ZZ=           -400.7213
   XY=            -21.0132   XZ=              5.3057   YZ=             -4.1758

 Normal termination of Gaussian 09 at Mon Jul  1 00:58:48 2019.
