 Gaussian 09, Revision D.01,
 Gaussian 09:  ES64L-G09RevD.01 24-Apr-2013

 -------------------------------------
 # td=(NStates=1) CAM-B3LYP/6-31G(d,p)
 -------------------------------------

 --
 TD
 --
 Symbolic Z-matrix:
 Charge =  0 Multiplicity = 1

                         Standard orientation:
 ---------------------------------------------------------------------
 Center     Atomic      Atomic             Coordinates (Angstroms)
 Number     Number       Type             X           Y           Z
 ---------------------------------------------------------------------
      1         12           0       -7.226103    0.583419    0.147922
      2          6           0       -4.882616   -1.915593    0.535931
      3          6           0       -4.789486    2.814980    1.275433
      4          6           0       -9.488258    2.958649   -0.313985
      5          6           0       -9.531856   -1.724158   -0.795126
      6          7           0       -5.107499    0.455680    0.763931
      7          6           0       -4.422414   -0.734009    0.784799
      8          6           0       -2.946340   -0.405371    1.174160
      9          6           0       -3.010873    1.079962    1.704691
     10          6           0       -4.405703    1.465881    1.095906
     11          6           0       -2.948899    1.257860    3.207183
     12          6           0       -1.907258   -0.757720    0.039513
     13          6           0       -0.457617   -0.341994    0.571911
     14          6           0        0.503167   -0.611126   -0.583905
     15          8           0        0.183305   -1.092392   -1.641435
     16          8           0        1.793257   -0.422363   -0.064036
     17          7           0       -7.137456    2.615603    0.322257
     18          6           0       -6.075527    3.378910    0.812477
     19          6           0       -6.452350    4.697145    0.850912
     20          6           0       -7.810569    4.831383    0.428468
     21          6           0       -8.141959    3.431739    0.075742
     22          6           0       -5.664488    5.929034    1.233728
     23          6           0       -8.697084    5.935998    0.169762
     24          6           0       -8.242059    7.186983   -0.026699
     25          7           0       -9.210608    0.645812   -0.446560
     26          6           0       -9.929742    1.716204   -0.525715
     27          6           0      -11.228817    1.400321   -1.009644
     28          6           0      -11.253249    0.054782   -1.210228
     29          6           0       -9.957785   -0.425118   -0.724781
     30          6           0      -12.304286    2.409124   -1.276782
     31          6           0      -12.313069   -0.816159   -1.724151
     32          6           0      -12.091988   -1.217313   -3.223544
     33          7           0       -7.226654   -1.366542   -0.243605
     34          6           0       -8.280953   -2.265321   -0.516856
     35          6           0       -7.717647   -3.645046   -0.489274
     36          6           0       -6.452463   -3.567415   -0.128934
     37          6           0       -6.218079   -2.202808    0.060056
     38          6           0       -8.482163   -4.945904   -0.777956
     39          6           0       -5.173499   -4.344385    0.180927
     40          8           0       -5.062909   -5.509253    0.263667
     41          6           0       -4.099464   -3.252497    0.493378
     42          6           0       -3.542720   -3.579739    1.819260
     43          8           0       -3.671498   -2.979924    2.846727
     44          8           0       -2.686905   -4.661497    1.816264
     45          6           0       -2.048211   -4.999080    3.004925
     46          6           0        2.771648   -0.708037   -1.165886
     47          6           0        4.124209   -0.435008   -0.623832
     48          6           0        5.094648    0.363476   -1.067624
     49          6           0        5.032753    1.225422   -2.378359
     50          6           0        6.404099    0.503109   -0.332663
     51          6           0        7.586889   -0.051820   -1.151715
     52          6           0        8.926583    0.032651   -0.215539
     53          6           0       10.091141   -0.397181   -1.004428
     54          6           0        9.947166   -1.855334   -1.397993
     55          6           0       11.329528   -0.266832   -0.099960
     56          6           0       12.720708   -0.480465   -0.792439
     57          6           0       13.953587   -0.063435    0.171226
     58          6           0       15.326105   -0.233399   -0.478891
     59          6           0       15.787813   -1.595214   -1.037872
     60          6           0       16.403972    0.431414    0.469658
     61          6           0       17.793888    0.587052   -0.130202
     62          6           0       18.845492    1.195449    0.793412
     63          6           0       20.283416    1.271590    0.374886
     64          6           0       20.340696    1.940146   -0.956949
     65          6           0       21.073432    1.794086    1.500880
     66          1           0       -4.040807    3.594817    1.697963
     67          1           0       -9.993541    3.831346   -0.403506
     68          1           0      -10.088261   -2.440682   -1.160164
     69          1           0       -2.882349   -1.154593    2.057130
     70          1           0       -2.243597    1.819520    1.273027
     71          1           0       -1.876048    0.759684    3.616054
     72          1           0       -2.927596    2.409979    3.465174
     73          1           0       -3.832734    0.554871    3.556530
     74          1           0       -1.960742   -1.671858   -0.355243
     75          1           0       -2.164451    0.059229   -0.528986
     76          1           0       -0.501265    0.677755    1.096175
     77          1           0       -0.173487   -1.098354    1.235238
     78          1           0       -5.345540    6.301842    0.354670
     79          1           0       -6.433201    6.663071    1.902023
     80          1           0       -4.796578    5.782860    1.905904
     81          1           0       -9.835708    5.703987    0.215259
     82          1           0       -9.056481    7.948337   -0.249006
     83          1           0       -7.237418    7.591346    0.125494
     84          1           0      -12.232660    2.844737   -2.277189
     85          1           0      -13.259812    1.753822   -1.319380
     86          1           0      -12.728659    3.168301   -0.605009
     87          1           0      -12.329637   -1.736668   -1.116589
     88          1           0      -13.247650   -0.438284   -1.667267
     89          1           0      -12.759577   -1.912132   -3.748944
     90          1           0      -12.008730   -0.362033   -3.799807
     91          1           0      -11.148058   -1.841177   -3.532786
     92          1           0       -8.515129   -5.172582   -1.980232
     93          1           0       -7.755208   -5.751259   -0.312600
     94          1           0       -9.485981   -4.921423   -0.349111
     95          1           0       -3.323050   -3.534240   -0.220239
     96          1           0       -1.370369   -4.276460    3.215482
     97          1           0       -2.684355   -5.239507    3.990860
     98          1           0       -1.369924   -5.804094    2.715054
     99          1           0        2.907343   -1.771668   -1.451316
    100          1           0        2.740576   -0.209874   -2.085769
    101          1           0        4.275947   -0.758492    0.399556
    102          1           0        4.049221    0.850888   -2.775860
    103          1           0        5.325858    2.367323   -2.268082
    104          1           0        5.974230    1.051683   -3.051780
    105          1           0        6.682836    1.601424   -0.178372
    106          1           0        6.356153   -0.021093    0.666155
    107          1           0        7.473082   -0.956828   -1.505572
    108          1           0        7.893613    0.523937   -2.114126
    109          1           0        8.942727    1.007308    0.216677
    110          1           0        8.653711   -0.576224    0.722264
    111          1           0       10.403917    0.208582   -1.903866
    112          1           0        9.179742   -2.063080   -2.160873
    113          1           0       11.025222   -2.417474   -1.795093
    114          1           0        9.502067   -2.274843   -0.662857
    115          1           0       11.505470    0.770215    0.383148
    116          1           0       11.106887   -0.960389    0.867244
    117          1           0       12.871696   -1.609989   -1.112162
    118          1           0       12.834659    0.071299   -1.707202
    119          1           0       13.578037    1.086782    0.178348
    120          1           0       13.834420   -0.525200    1.210312
    121          1           0       15.320119    0.581078   -1.475984
    122          1           0       15.974037   -2.175184   -0.254601
    123          1           0       14.986011   -1.988232   -1.618883
    124          1           0       16.746604   -1.370309   -1.628383
    125          1           0       16.166061    1.409295    1.088167
    126          1           0       16.701851   -0.331347    1.303407
    127          1           0       17.996677   -0.386414   -0.448687
    128          1           0       17.884560    1.130573   -1.078619
    129          1           0       18.482415    2.209127    1.229094
    130          1           0       18.893895    0.575555    1.639965
    131          1           0       20.657851    0.186159    0.394102
    132          1           0       20.347904    3.020941   -0.823753
    133          1           0       21.470363    1.905944   -1.084364
    134          1           0       19.584872    1.821474   -1.737800
    135          1           0       21.114137    0.953963    2.332486
    136          1           0       22.238126    1.675378    1.300085
    137          1           0       20.743767    2.810868    1.876573
 ---------------------------------------------------------------------

 SCF Done:  E(RCAM-B3LYP) =  -2932.62875093     A.U. after   16 cycles

 Excitation energies and oscillator strengths:

 Excited State   1:      Singlet-A      1.9352 eV  640.68 nm  f=0.3150  <S**2>=0.000
     240 -> 243        0.19673
     241 -> 242        0.67220
 This state for optimization and/or second-order correction.
 Total Energy, E(TD-HF/TD-KS) =  -2932.55763381
 Copying the excited state density for this state as the 1-particle RhoCI density.

 The electronic state is 1-A.
 Alpha  occ. eigenvalues --  -46.84657 -19.27246 -19.25537 -19.22560 -19.22487
 Alpha  occ. eigenvalues --  -19.21309 -14.41121 -14.39861 -14.38756 -14.38701
 Alpha  occ. eigenvalues --  -10.39920 -10.39422 -10.36957 -10.31639 -10.30607
 Alpha  occ. eigenvalues --  -10.30168 -10.29767 -10.29544 -10.29323 -10.29313
 Alpha  occ. eigenvalues --  -10.29207 -10.28974 -10.28451 -10.28431 -10.28424
 Alpha  occ. eigenvalues --  -10.28266 -10.28042 -10.27980 -10.27840 -10.27734
 Alpha  occ. eigenvalues --  -10.27481 -10.27471 -10.27222 -10.27110 -10.27017
 Alpha  occ. eigenvalues --  -10.26786 -10.26774 -10.26621 -10.26601 -10.26592
 Alpha  occ. eigenvalues --  -10.26485 -10.26456 -10.26394 -10.26297 -10.26270
 Alpha  occ. eigenvalues --  -10.26194 -10.26148 -10.26086 -10.25966 -10.25956
 Alpha  occ. eigenvalues --  -10.25871 -10.25782 -10.25763 -10.25665 -10.25529
 Alpha  occ. eigenvalues --  -10.25328 -10.25266 -10.25174 -10.25173 -10.25141
 Alpha  occ. eigenvalues --  -10.24582 -10.24373 -10.24225 -10.23874 -10.23731
 Alpha  occ. eigenvalues --   -3.13665  -1.88378  -1.87898  -1.87842  -1.18860
 Alpha  occ. eigenvalues --   -1.17079  -1.15382  -1.09860  -1.09827  -1.06105
 Alpha  occ. eigenvalues --   -1.05248  -1.03943  -1.03168  -0.93439  -0.91254
 Alpha  occ. eigenvalues --   -0.90803  -0.90017  -0.89656  -0.89018  -0.88668
 Alpha  occ. eigenvalues --   -0.88577  -0.88370  -0.88343  -0.86691  -0.85804
 Alpha  occ. eigenvalues --   -0.85251  -0.84208  -0.83837  -0.83221  -0.82592
 Alpha  occ. eigenvalues --   -0.81597  -0.81052  -0.80348  -0.79491  -0.77782
 Alpha  occ. eigenvalues --   -0.77326  -0.77096  -0.76641  -0.76474  -0.75750
 Alpha  occ. eigenvalues --   -0.75257  -0.75138  -0.74076  -0.73043  -0.72415
 Alpha  occ. eigenvalues --   -0.71928  -0.71065  -0.70479  -0.68859  -0.68296
 Alpha  occ. eigenvalues --   -0.66788  -0.66667  -0.65126  -0.64836  -0.64556
 Alpha  occ. eigenvalues --   -0.64324  -0.63390  -0.62966  -0.62839  -0.61937
 Alpha  occ. eigenvalues --   -0.61216  -0.60611  -0.60192  -0.59844  -0.59460
 Alpha  occ. eigenvalues --   -0.59003  -0.58567  -0.57810  -0.57508  -0.56513
 Alpha  occ. eigenvalues --   -0.56085  -0.55815  -0.55369  -0.55093  -0.54528
 Alpha  occ. eigenvalues --   -0.54201  -0.54172  -0.53894  -0.53834  -0.53375
 Alpha  occ. eigenvalues --   -0.53001  -0.52765  -0.52400  -0.52106  -0.51989
 Alpha  occ. eigenvalues --   -0.51954  -0.51690  -0.51362  -0.51094  -0.50907
 Alpha  occ. eigenvalues --   -0.50603  -0.50568  -0.50169  -0.49916  -0.49696
 Alpha  occ. eigenvalues --   -0.49500  -0.49382  -0.49060  -0.48931  -0.48765
 Alpha  occ. eigenvalues --   -0.48291  -0.48114  -0.47550  -0.47464  -0.47191
 Alpha  occ. eigenvalues --   -0.46917  -0.46807  -0.46670  -0.46326  -0.46164
 Alpha  occ. eigenvalues --   -0.45858  -0.45609  -0.45471  -0.45305  -0.45179
 Alpha  occ. eigenvalues --   -0.44971  -0.44727  -0.44609  -0.44470  -0.44239
 Alpha  occ. eigenvalues --   -0.44099  -0.43950  -0.43753  -0.43374  -0.43228
 Alpha  occ. eigenvalues --   -0.42890  -0.42492  -0.42377  -0.42224  -0.42193
 Alpha  occ. eigenvalues --   -0.41860  -0.41770  -0.41641  -0.41456  -0.41312
 Alpha  occ. eigenvalues --   -0.41049  -0.40992  -0.40862  -0.40677  -0.40203
 Alpha  occ. eigenvalues --   -0.39790  -0.39669  -0.39529  -0.39306  -0.38904
 Alpha  occ. eigenvalues --   -0.38866  -0.38846  -0.38296  -0.37917  -0.37847
 Alpha  occ. eigenvalues --   -0.37596  -0.37331  -0.37054  -0.36945  -0.36769
 Alpha  occ. eigenvalues --   -0.36268  -0.35983  -0.35592  -0.35213  -0.34897
 Alpha  occ. eigenvalues --   -0.34889  -0.34512  -0.34392  -0.34236  -0.33939
 Alpha  occ. eigenvalues --   -0.32962  -0.32657  -0.32150  -0.31815  -0.31453
 Alpha  occ. eigenvalues --   -0.30543  -0.29319  -0.28853  -0.26756  -0.23346
 Alpha  occ. eigenvalues --   -0.20597
 Alpha virt. eigenvalues --   -0.06875  -0.02308   0.01994   0.04194   0.05590
 Alpha virt. eigenvalues --    0.05785   0.06094   0.06487   0.06912   0.07635
 Alpha virt. eigenvalues --    0.09022   0.10422   0.10930   0.11614   0.11874

 Mulliken charges:
               1
     1  Mg   0.826377
     2  C    0.072569
     3  C   -0.202965
     4  C   -0.156998
     5  C   -0.166610
     6  N   -0.615717
     7  C    0.291769
     8  C   -0.209970
     9  C   -0.152977
    10  C    0.337737
    11  C   -0.266195
    12  C   -0.142314
    13  C   -0.283470
    14  C    0.628004
    15  O   -0.450411
    16  O   -0.493895
    17  N   -0.713059
    18  C    0.304668
    19  C   -0.025640
    20  C    0.043497
    21  C    0.259219
    22  C   -0.368515
    23  C   -0.093350
    24  C   -0.248454
    25  N   -0.698424
    26  C    0.387162
    27  C    0.014399
    28  C    0.044136
    29  C    0.299015
    30  C   -0.389350
    31  C   -0.239167
    32  C   -0.327161
    33  N   -0.719654
    34  C    0.244664
    35  C   -0.054528
    36  C    0.069884
    37  C    0.279093
    38  C   -0.366942
    39  C    0.387484
    40  O   -0.401888
    41  C   -0.340288
    42  C    0.637738
    43  O   -0.456544
    44  O   -0.464814
    45  C   -0.070471
    46  C    0.016173
    47  C   -0.171879
    48  C    0.137806
    49  C   -0.350567
    50  C   -0.225773
    51  C   -0.179220
    52  C   -0.186640
    53  C   -0.051331
    54  C   -0.292191
    55  C   -0.156696
    56  C   -0.193366
    57  C   -0.168702
    58  C   -0.040608
    59  C   -0.309261
    60  C   -0.170835
    61  C   -0.179482
    62  C   -0.156187
    63  C   -0.038439
    64  C   -0.317301
    65  C   -0.307559
    66  H    0.081209
    67  H    0.056784
    68  H    0.071303
    69  H    0.126249
    70  H    0.088264
    71  H    0.081809
    72  H    0.103649
    73  H    0.120075
    74  H    0.117703
    75  H    0.126433
    76  H    0.134435
    77  H    0.148450
    78  H    0.144175
    79  H    0.099553
    80  H    0.104412
    81  H    0.107380
    82  H    0.089858
    83  H    0.117236
    84  H    0.128511
    85  H    0.095247
    86  H    0.125656
    87  H    0.106698
    88  H    0.114194
    89  H    0.103739
    90  H    0.122209
    91  H    0.089645
    92  H    0.108999
    93  H    0.137516
    94  H    0.125547
    95  H    0.182626
    96  H    0.120366
    97  H    0.113921
    98  H    0.117470
    99  H    0.132227
   100  H    0.123737
   101  H    0.090303
   102  H    0.101095
   103  H    0.112850
   104  H    0.108288
   105  H    0.095491
   106  H    0.091590
   107  H    0.111311
   108  H    0.079238
   109  H    0.100364
   110  H    0.086430
   111  H    0.084908
   112  H    0.096576
   113  H    0.075669
   114  H    0.118736
   115  H    0.074247
   116  H    0.065759
   117  H    0.069299
   118  H    0.101744
   119  H    0.082187
   120  H    0.092831
   121  H    0.039773
   122  H    0.119485
   123  H    0.112944
   124  H    0.108076
   125  H    0.081990
   126  H    0.072094
   127  H    0.096439
   128  H    0.075032
   129  H    0.067181
   130  H    0.083875
   131  H    0.076477
   132  H    0.101487
   133  H    0.091113
   134  H    0.120515
   135  H    0.095048
   136  H    0.082885
   137  H    0.103796
 Sum of Mulliken charges =   0.00000

 Dipole moment (field-independent basis, Debye):
    X=              0.6565    Y=              2.5996    Z=             -0.1434  Tot=              2.6850
 Quadrupole moment (field-independent basis, Debye-Ang):
   XX=           -347.1345   YY=           -393.5874   ZZ=           -400.2852
   XY=            -15.4353   XZ=             12.3000   YZ=             -0.0464

 Normal termination of Gaussian 09 at Mon Jul  1 09:08:55 2019.
