 Gaussian 09, Revision D.01,
 Gaussian 09:  ES64L-G09RevD.01 24-Apr-2013

 -------------------------------------
 # td=(NStates=1) CAM-B3LYP/6-31G(d,p)
 -------------------------------------

 --
 TD
 --
 Symbolic Z-matrix:
 Charge =  0 Multiplicity = 1

                         Standard orientation:
 ---------------------------------------------------------------------
 Center     Atomic      Atomic             Coordinates (Angstroms)
 Number     Number       Type             X           Y           Z
 ---------------------------------------------------------------------
      1         12           0       -7.085719    0.586377    0.092300
      2          6           0       -4.821399   -1.985727    0.622461
      3          6           0       -4.881322    2.815552    1.224763
      4          6           0       -9.502013    3.056743   -0.408764
      5          6           0       -9.498422   -1.833224   -0.967231
      6          7           0       -5.051726    0.458319    0.784358
      7          6           0       -4.334708   -0.775507    0.865683
      8          6           0       -2.871908   -0.409331    1.267707
      9          6           0       -3.053730    1.064471    1.774767
     10          6           0       -4.452022    1.551701    1.308298
     11          6           0       -2.871084    1.176625    3.230409
     12          6           0       -1.945831   -0.600896    0.139949
     13          6           0       -0.495115   -0.418913    0.565026
     14          6           0        0.541764   -0.612000   -0.538339
     15          8           0        0.239937   -0.936901   -1.688487
     16          8           0        1.750309   -0.330097   -0.102599
     17          7           0       -7.140845    2.582241    0.440815
     18          6           0       -6.126141    3.317627    0.943042
     19          6           0       -6.476313    4.741728    0.900140
     20          6           0       -7.741470    4.783709    0.355443
     21          6           0       -8.184660    3.371618    0.111755
     22          6           0       -5.665021    5.892710    1.310995
     23          6           0       -8.598889    5.967429    0.301766
     24          6           0       -8.251932    7.283068    0.010160
     25          7           0       -9.187729    0.629113   -0.477278
     26          6           0       -9.887656    1.768206   -0.642557
     27          6           0      -11.163486    1.309833   -1.088348
     28          6           0      -11.202155    0.000075   -1.292186
     29          6           0       -9.940350   -0.468740   -0.787215
     30          6           0      -12.243164    2.257804   -1.301509
     31          6           0      -12.333914   -0.740914   -1.802492
     32          6           0      -12.158336   -0.951811   -3.370584
     33          7           0       -7.280924   -1.382843   -0.080393
     34          6           0       -8.193837   -2.247190   -0.512738
     35          6           0       -7.748324   -3.614553   -0.480805
     36          6           0       -6.515846   -3.576907   -0.152394
     37          6           0       -6.188271   -2.191425    0.122558
     38          6           0       -8.574209   -4.823228   -1.038886
     39          6           0       -5.267178   -4.375166    0.095604
     40          8           0       -5.025863   -5.599482    0.143897
     41          6           0       -4.084604   -3.376520    0.536853
     42          6           0       -3.392333   -3.621543    1.872616
     43          8           0       -3.701961   -3.179060    2.972175
     44          8           0       -2.591186   -4.676548    1.767458
     45          6           0       -2.024154   -5.243752    2.897916
     46          6           0        2.648472   -0.452963   -1.220487
     47          6           0        4.043698   -0.369367   -0.565865
     48          6           0        5.033440    0.438153   -0.938025
     49          6           0        4.964443    1.418085   -2.163919
     50          6           0        6.426831    0.413283   -0.223225
     51          6           0        7.613689   -0.178408   -1.074170
     52          6           0        8.889087   -0.126555   -0.274316
     53          6           0       10.203855   -0.541248   -0.974019
     54          6           0       10.059090   -2.056741   -1.338101
     55          6           0       11.419770   -0.317500   -0.031039
     56          6           0       12.760569   -0.410189   -0.661392
     57          6           0       13.975004   -0.096587    0.174788
     58          6           0       15.357036   -0.160707   -0.555021
     59          6           0       15.689797   -1.637015   -1.058796
     60          6           0       16.389741    0.347113    0.535298
     61          6           0       17.704632    0.502806   -0.150874
     62          6           0       18.714627    1.275950    0.771371
     63          6           0       20.194361    1.373595    0.260361
     64          6           0       20.343462    1.937175   -1.196166
     65          6           0       21.089461    1.992506    1.381774
     66          1           0       -4.258920    3.514825    1.824839
     67          1           0      -10.183338    3.779719   -0.528966
     68          1           0      -10.315031   -2.398033   -1.464939
     69          1           0       -2.694254   -0.995117    2.207648
     70          1           0       -2.298654    1.562802    1.227524
     71          1           0       -1.677855    0.982610    3.531952
     72          1           0       -3.233059    1.997757    3.534193
     73          1           0       -3.449865    0.330368    3.900255
     74          1           0       -2.217448   -1.592656   -0.213529
     75          1           0       -1.984255    0.199501   -0.628129
     76          1           0       -0.383945    0.557959    0.999196
     77          1           0       -0.206903   -1.080996    1.541454
     78          1           0       -4.940311    6.476855    0.592626
     79          1           0       -6.229685    6.829517    1.542801
     80          1           0       -4.775141    5.680770    2.205281
     81          1           0       -9.735905    5.676355    0.390542
     82          1           0       -8.933610    8.152515   -0.056753
     83          1           0       -7.102068    7.419683    0.008219
     84          1           0      -12.247147    3.057759   -2.382543
     85          1           0      -13.104533    1.931824   -1.481233
     86          1           0      -12.558272    2.860679   -0.411030
     87          1           0      -12.571572   -1.629187   -1.416618
     88          1           0      -13.157817   -0.018203   -1.620766
     89          1           0      -12.775088   -1.590808   -3.916048
     90          1           0      -12.184623    0.120420   -3.881113
     91          1           0      -11.131011   -1.308409   -3.401569
     92          1           0       -8.787611   -4.546516   -2.124020
     93          1           0       -7.815717   -5.789459   -0.993283
     94          1           0       -9.365672   -5.068747   -0.347628
     95          1           0       -3.450632   -3.568976   -0.145200
     96          1           0       -1.268223   -4.449051    3.357741
     97          1           0       -2.918271   -5.544555    3.578722
     98          1           0       -1.637632   -5.969965    2.514454
     99          1           0        2.533764   -1.358570   -1.780907
    100          1           0        2.387047    0.381088   -1.840200
    101          1           0        4.239862   -1.039523    0.338394
    102          1           0        3.912153    1.433726   -2.448249
    103          1           0        5.061490    2.549746   -1.672789
    104          1           0        5.728971    1.482727   -2.877880
    105          1           0        6.758419    1.522161    0.166739
    106          1           0        6.328947   -0.308182    0.633361
    107          1           0        7.241526   -1.223354   -1.369747
    108          1           0        7.709920    0.230831   -1.881408
    109          1           0        9.109986    0.988685    0.084312
    110          1           0        8.760559   -0.628848    0.513301
    111          1           0       10.416392    0.035492   -1.866315
    112          1           0        9.493489   -2.219587   -2.373634
    113          1           0       11.104409   -2.481044   -1.675261
    114          1           0        9.871881   -2.532875   -0.295726
    115          1           0       11.526189    0.696892    0.505705
    116          1           0       11.107220   -1.161558    0.666991
    117          1           0       12.861184   -1.421809   -0.968225
    118          1           0       12.555141    0.352104   -1.542989
    119          1           0       14.003935    1.028607    0.408396
    120          1           0       14.011624   -0.707453    1.059814
    121          1           0       15.287654    0.569898   -1.439609
    122          1           0       15.594866   -2.220282   -0.195028
    123          1           0       14.869089   -1.929993   -1.760321
    124          1           0       16.659993   -1.596888   -1.326335
    125          1           0       15.963691    1.332926    0.800602
    126          1           0       16.398267   -0.134537    1.312426
    127          1           0       18.158722   -0.502882   -0.392522
    128          1           0       17.494203    0.820950   -1.143466
    129          1           0       18.342151    2.351038    0.865649
    130          1           0       18.694694    0.869027    1.786577
    131          1           0       20.452764    0.304459    0.349218
    132          1           0       19.771092    2.908122   -1.163855
    133          1           0       21.307228    1.994868   -1.503923
    134          1           0       19.876279    1.297368   -1.962094
    135          1           0       20.931621    1.680646    2.593346
    136          1           0       22.261119    1.708523    0.999609
    137          1           0       20.855613    3.020991    1.300063
 ---------------------------------------------------------------------

 SCF Done:  E(RCAM-B3LYP) =  -2932.53651586     A.U. after   16 cycles

 Excitation energies and oscillator strengths:

 Excited State   1:      Singlet-A      1.9708 eV  629.10 nm  f=0.2901  <S**2>=0.000
     240 -> 243        0.22077
     241 -> 242        0.66877
 This state for optimization and/or second-order correction.
 Total Energy, E(TD-HF/TD-KS) =  -2932.46408993
 Copying the excited state density for this state as the 1-particle RhoCI density.

 The electronic state is 1-A.
 Alpha  occ. eigenvalues --  -46.84930 -19.27685 -19.26012 -19.21505 -19.20947
 Alpha  occ. eigenvalues --  -19.20641 -14.41312 -14.40765 -14.40131 -14.38703
 Alpha  occ. eigenvalues --  -10.39419 -10.39215 -10.36919 -10.31955 -10.30640
 Alpha  occ. eigenvalues --  -10.30622 -10.30615 -10.30326 -10.30194 -10.30151
 Alpha  occ. eigenvalues --  -10.29390 -10.28760 -10.28651 -10.28621 -10.28527
 Alpha  occ. eigenvalues --  -10.28354 -10.28157 -10.28017 -10.27890 -10.27860
 Alpha  occ. eigenvalues --  -10.27727 -10.27660 -10.27546 -10.27408 -10.27306
 Alpha  occ. eigenvalues --  -10.27205 -10.27179 -10.27168 -10.26986 -10.26746
 Alpha  occ. eigenvalues --  -10.26653 -10.26631 -10.26525 -10.26337 -10.26298
 Alpha  occ. eigenvalues --  -10.26187 -10.26148 -10.26002 -10.25762 -10.25584
 Alpha  occ. eigenvalues --  -10.25497 -10.25415 -10.25393 -10.25368 -10.25357
 Alpha  occ. eigenvalues --  -10.24944 -10.24920 -10.24818 -10.24736 -10.24622
 Alpha  occ. eigenvalues --  -10.24522 -10.24298 -10.24115 -10.23343 -10.22896
 Alpha  occ. eigenvalues --   -3.13881  -1.88599  -1.88137  -1.88029  -1.20379
 Alpha  occ. eigenvalues --   -1.19452  -1.10125  -1.09133  -1.08868  -1.05872
 Alpha  occ. eigenvalues --   -1.04686  -1.03472  -1.01994  -0.92429  -0.91092
 Alpha  occ. eigenvalues --   -0.90675  -0.90109  -0.89892  -0.89213  -0.89083
 Alpha  occ. eigenvalues --   -0.88882  -0.88514  -0.87476  -0.87248  -0.86243
 Alpha  occ. eigenvalues --   -0.85679  -0.85055  -0.83716  -0.83038  -0.82418
 Alpha  occ. eigenvalues --   -0.82286  -0.81670  -0.80436  -0.79770  -0.78293
 Alpha  occ. eigenvalues --   -0.77680  -0.77273  -0.76676  -0.76117  -0.75792
 Alpha  occ. eigenvalues --   -0.75371  -0.75033  -0.73711  -0.73521  -0.73075
 Alpha  occ. eigenvalues --   -0.71774  -0.70675  -0.70256  -0.69031  -0.68652
 Alpha  occ. eigenvalues --   -0.67515  -0.67159  -0.65839  -0.65753  -0.65041
 Alpha  occ. eigenvalues --   -0.64555  -0.63789  -0.63039  -0.62559  -0.62471
 Alpha  occ. eigenvalues --   -0.61594  -0.61208  -0.60479  -0.60176  -0.59567
 Alpha  occ. eigenvalues --   -0.59359  -0.58748  -0.58644  -0.57743  -0.57298
 Alpha  occ. eigenvalues --   -0.56309  -0.56257  -0.55797  -0.55392  -0.55238
 Alpha  occ. eigenvalues --   -0.54849  -0.54474  -0.54014  -0.53859  -0.53782
 Alpha  occ. eigenvalues --   -0.53182  -0.52735  -0.52669  -0.52499  -0.52149
 Alpha  occ. eigenvalues --   -0.51844  -0.51470  -0.51021  -0.50922  -0.50763
 Alpha  occ. eigenvalues --   -0.50662  -0.50515  -0.50209  -0.50136  -0.49689
 Alpha  occ. eigenvalues --   -0.49159  -0.49115  -0.48865  -0.48663  -0.48373
 Alpha  occ. eigenvalues --   -0.48182  -0.47936  -0.47733  -0.47434  -0.47372
 Alpha  occ. eigenvalues --   -0.46921  -0.46702  -0.46516  -0.46219  -0.45834
 Alpha  occ. eigenvalues --   -0.45700  -0.45575  -0.45361  -0.45272  -0.45022
 Alpha  occ. eigenvalues --   -0.44953  -0.44657  -0.44318  -0.44195  -0.44088
 Alpha  occ. eigenvalues --   -0.43985  -0.43870  -0.43788  -0.43477  -0.43392
 Alpha  occ. eigenvalues --   -0.43047  -0.43018  -0.42773  -0.42341  -0.41932
 Alpha  occ. eigenvalues --   -0.41856  -0.41719  -0.41361  -0.41233  -0.41119
 Alpha  occ. eigenvalues --   -0.40953  -0.40824  -0.40655  -0.40542  -0.40519
 Alpha  occ. eigenvalues --   -0.40205  -0.39909  -0.39492  -0.39383  -0.39207
 Alpha  occ. eigenvalues --   -0.39203  -0.38520  -0.38209  -0.38112  -0.37858
 Alpha  occ. eigenvalues --   -0.37648  -0.37387  -0.37211  -0.37131  -0.37035
 Alpha  occ. eigenvalues --   -0.36306  -0.35897  -0.35474  -0.35362  -0.35062
 Alpha  occ. eigenvalues --   -0.34907  -0.34418  -0.34404  -0.33858  -0.33563
 Alpha  occ. eigenvalues --   -0.33014  -0.32838  -0.32376  -0.32323  -0.31253
 Alpha  occ. eigenvalues --   -0.30596  -0.30146  -0.28075  -0.27544  -0.23754
 Alpha  occ. eigenvalues --   -0.21086
 Alpha virt. eigenvalues --   -0.06849  -0.03031   0.01012   0.03367   0.04704
 Alpha virt. eigenvalues --    0.05144   0.06010   0.06477   0.06789   0.07487
 Alpha virt. eigenvalues --    0.08584   0.10079   0.10820   0.11603   0.11797

 Mulliken charges:
               1
     1  Mg   0.832108
     2  C    0.079116
     3  C   -0.177551
     4  C   -0.122749
     5  C   -0.162955
     6  N   -0.652836
     7  C    0.253974
     8  C   -0.162511
     9  C   -0.143089
    10  C    0.337925
    11  C   -0.286118
    12  C   -0.147134
    13  C   -0.285112
    14  C    0.623553
    15  O   -0.497130
    16  O   -0.444973
    17  N   -0.722750
    18  C    0.307499
    19  C    0.090968
    20  C   -0.019455
    21  C    0.307175
    22  C   -0.404225
    23  C   -0.081020
    24  C   -0.254726
    25  N   -0.700898
    26  C    0.349699
    27  C    0.009786
    28  C    0.045677
    29  C    0.249803
    30  C   -0.359300
    31  C   -0.249134
    32  C   -0.315388
    33  N   -0.694411
    34  C    0.258424
    35  C   -0.051630
    36  C    0.096758
    37  C    0.229051
    38  C   -0.360208
    39  C    0.357974
    40  O   -0.461833
    41  C   -0.246227
    42  C    0.608587
    43  O   -0.481309
    44  O   -0.435894
    45  C   -0.047300
    46  C   -0.003247
    47  C   -0.151676
    48  C    0.123455
    49  C   -0.353921
    50  C   -0.223205
    51  C   -0.157105
    52  C   -0.135444
    53  C   -0.088225
    54  C   -0.307009
    55  C   -0.154464
    56  C   -0.161120
    57  C   -0.170071
    58  C   -0.098399
    59  C   -0.308188
    60  C   -0.140683
    61  C   -0.185646
    62  C   -0.176482
    63  C   -0.068516
    64  C   -0.310838
    65  C   -0.287201
    66  H    0.079252
    67  H    0.088120
    68  H    0.108383
    69  H    0.132857
    70  H    0.104603
    71  H    0.077047
    72  H    0.115506
    73  H    0.105032
    74  H    0.117133
    75  H    0.120370
    76  H    0.137838
    77  H    0.107685
    78  H    0.116396
    79  H    0.127142
    80  H    0.082668
    81  H    0.086148
    82  H    0.119812
    83  H    0.091646
    84  H    0.054999
    85  H    0.116344
    86  H    0.107233
    87  H    0.113470
    88  H    0.103714
    89  H    0.112289
    90  H    0.095081
    91  H    0.108948
    92  H    0.128747
    93  H    0.121754
    94  H    0.136753
    95  H    0.150253
    96  H    0.104197
    97  H    0.122563
    98  H    0.128052
    99  H    0.153396
   100  H    0.130258
   101  H    0.095318
   102  H    0.110006
   103  H    0.081533
   104  H    0.136225
   105  H    0.079222
   106  H    0.091870
   107  H    0.087806
   108  H    0.098015
   109  H    0.067289
   110  H    0.096478
   111  H    0.075893
   112  H    0.107292
   113  H    0.085054
   114  H    0.101507
   115  H    0.078085
   116  H    0.064275
   117  H    0.095095
   118  H    0.072072
   119  H    0.074876
   120  H    0.093692
   121  H    0.075768
   122  H    0.103867
   123  H    0.103534
   124  H    0.109039
   125  H    0.085103
   126  H    0.093186
   127  H    0.080998
   128  H    0.099802
   129  H    0.070884
   130  H    0.092747
   131  H    0.085729
   132  H    0.100018
   133  H    0.115501
   134  H    0.109584
   135  H    0.081976
   136  H    0.070061
   137  H    0.112682
 Sum of Mulliken charges =   0.00000

 Dipole moment (field-independent basis, Debye):
    X=              1.7666    Y=              3.0801    Z=             -0.4643  Tot=              3.5810
 Quadrupole moment (field-independent basis, Debye-Ang):
   XX=           -351.6269   YY=           -393.6536   ZZ=           -400.4457
   XY=            -16.1463   XZ=              7.8384   YZ=             -1.1036

 Normal termination of Gaussian 09 at Sun Jun 30 12:46:11 2019.
