 Gaussian 09, Revision D.01,
 Gaussian 09:  ES64L-G09RevD.01 24-Apr-2013

 -------------------------------------
 # td=(NStates=1) CAM-B3LYP/6-31G(d,p)
 -------------------------------------

 --
 TD
 --
 Symbolic Z-matrix:
 Charge =  0 Multiplicity = 1

                         Standard orientation:
 ---------------------------------------------------------------------
 Center     Atomic      Atomic             Coordinates (Angstroms)
 Number     Number       Type             X           Y           Z
 ---------------------------------------------------------------------
      1         12           0       -7.173782    0.450687    0.095711
      2          6           0       -4.855139   -1.958401    0.363857
      3          6           0       -4.867427    2.791028    1.237043
      4          6           0       -9.441980    3.090500   -0.220580
      5          6           0       -9.608788   -1.721260   -0.803411
      6          7           0       -5.129687    0.417574    0.682408
      7          6           0       -4.411092   -0.718704    0.681519
      8          6           0       -2.957307   -0.404376    1.185127
      9          6           0       -3.103368    1.091351    1.647802
     10          6           0       -4.396092    1.463733    1.148966
     11          6           0       -3.000883    1.080726    3.178784
     12          6           0       -1.933486   -0.615556    0.067516
     13          6           0       -0.406744   -0.199697    0.524840
     14          6           0        0.497552   -0.458334   -0.578088
     15          8           0        0.181888   -1.087980   -1.620071
     16          8           0        1.822089   -0.300795   -0.259375
     17          7           0       -7.193118    2.535629    0.359119
     18          6           0       -6.082905    3.276901    0.676602
     19          6           0       -6.409116    4.741078    0.872051
     20          6           0       -7.793252    4.823732    0.376696
     21          6           0       -8.220141    3.490327    0.128125
     22          6           0       -5.541878    5.874312    1.272933
     23          6           0       -8.613118    5.963443    0.257219
     24          6           0       -8.267231    7.201924   -0.100476
     25          7           0       -9.179057    0.664470   -0.390812
     26          6           0       -9.868809    1.773567   -0.432260
     27          6           0      -11.272517    1.472569   -0.834016
     28          6           0      -11.312872    0.083861   -1.111593
     29          6           0      -10.010102   -0.339798   -0.755697
     30          6           0      -12.318011    2.475047   -1.264003
     31          6           0      -12.439063   -0.776313   -1.583248
     32          6           0      -12.328484   -1.143816   -3.020182
     33          7           0       -7.233487   -1.442769   -0.201869
     34          6           0       -8.266147   -2.114579   -0.547716
     35          6           0       -7.856790   -3.589670   -0.596012
     36          6           0       -6.535860   -3.553431   -0.150346
     37          6           0       -6.182520   -2.169837   -0.002838
     38          6           0       -8.605248   -4.913003   -0.753002
     39          6           0       -5.329585   -4.337974    0.193563
     40          8           0       -5.201178   -5.546240    0.175479
     41          6           0       -4.163070   -3.277402    0.451708
     42          6           0       -3.483149   -3.577989    1.835305
     43          8           0       -3.695353   -3.077484    2.917915
     44          8           0       -2.602535   -4.531717    1.633516
     45          6           0       -1.894540   -5.155910    2.669685
     46          6           0        2.716633   -0.643857   -1.224707
     47          6           0        4.079085   -0.413351   -0.622549
     48          6           0        5.151501    0.250599   -1.110335
     49          6           0        5.169897    1.075324   -2.430979
     50          6           0        6.442202    0.407932   -0.279014
     51          6           0        7.636992   -0.157556   -1.032089
     52          6           0        8.889680   -0.072247   -0.151831
     53          6           0       10.227241   -0.581529   -0.866671
     54          6           0       10.148349   -2.101664   -1.267079
     55          6           0       11.388056   -0.320346    0.118745
     56          6           0       12.881570   -0.441404   -0.610678
     57          6           0       13.991697   -0.246132    0.411773
     58          6           0       15.394202   -0.105370   -0.369225
     59          6           0       15.704894   -1.442377   -1.005738
     60          6           0       16.554826    0.323955    0.599143
     61          6           0       17.773303    0.503805   -0.136970
     62          6           0       18.872545    1.157074    0.794178
     63          6           0       20.204449    1.472297    0.141297
     64          6           0       20.333611    2.225330   -1.139384
     65          6           0       21.174751    1.898700    1.262363
     66          1           0       -4.111240    3.450703    1.389066
     67          1           0      -10.327793    3.794584   -0.170123
     68          1           0      -10.359712   -2.387270   -1.226993
     69          1           0       -2.620923   -1.145308    1.951939
     70          1           0       -2.342989    1.528874    1.335797
     71          1           0       -2.125631    0.766754    3.483373
     72          1           0       -3.073856    2.146513    3.489691
     73          1           0       -4.063197    0.342820    3.551922
     74          1           0       -1.995467   -1.498447   -0.196302
     75          1           0       -2.159003    0.009149   -0.752206
     76          1           0       -0.562433    0.889745    0.881663
     77          1           0        0.065474   -0.770249    1.243563
     78          1           0       -4.813688    6.160384    0.582638
     79          1           0       -6.407671    6.543827    1.623589
     80          1           0       -4.868837    5.896622    2.116526
     81          1           0       -9.765840    5.865449    0.526763
     82          1           0       -8.857212    8.127040   -0.154622
     83          1           0       -7.352268    7.535959   -0.623406
     84          1           0      -11.893297    2.860657   -2.274605
     85          1           0      -13.087140    1.751103   -1.789729
     86          1           0      -12.820797    3.219482   -0.493381
     87          1           0      -12.392634   -1.685037   -1.079792
     88          1           0      -13.350801   -0.121962   -1.558403
     89          1           0      -13.041504   -1.824848   -3.310759
     90          1           0      -12.495551   -0.209853   -3.563725
     91          1           0      -11.304365   -1.736155   -3.350324
     92          1           0       -8.938746   -4.891714   -1.940266
     93          1           0       -8.031622   -5.959896   -0.435971
     94          1           0       -9.489085   -4.866877   -0.095460
     95          1           0       -3.311418   -3.355741   -0.232375
     96          1           0       -0.986023   -4.343750    3.141915
     97          1           0       -2.706225   -5.348534    3.501961
     98          1           0       -1.170750   -5.952258    2.336765
     99          1           0        2.677481   -1.717307   -1.527476
    100          1           0        2.547011    0.092984   -2.087001
    101          1           0        4.376969   -0.876042    0.355940
    102          1           0        4.271295    1.378609   -2.877477
    103          1           0        5.772786    2.139279   -2.171334
    104          1           0        5.690102    0.370490   -3.074999
    105          1           0        6.544975    1.434353    0.006762
    106          1           0        6.187617   -0.019381    0.617504
    107          1           0        7.487949   -1.092692   -1.346422
    108          1           0        7.852315    0.512900   -1.805962
    109          1           0        9.031947    0.860718    0.177582
    110          1           0        8.598488   -0.906247    0.675677
    111          1           0       10.216325    0.069684   -1.826645
    112          1           0        9.381713   -2.546816   -2.012961
    113          1           0       11.144750   -2.463783   -1.526689
    114          1           0       10.182098   -2.723062   -0.407434
    115          1           0       11.263103    0.656932    0.751426
    116          1           0       11.351328   -1.080038    0.833610
    117          1           0       12.988536   -1.344154   -1.084065
    118          1           0       12.925833    0.334872   -1.392430
    119          1           0       13.805708    0.811745    0.663568
    120          1           0       14.009227   -1.055877    1.327781
    121          1           0       15.345695    0.615656   -1.136428
    122          1           0       15.676913   -2.247289   -0.203866
    123          1           0       15.015748   -1.717618   -1.902432
    124          1           0       16.968935   -1.297712   -1.178268
    125          1           0       16.244213    1.227373    1.292222
    126          1           0       16.676897   -0.413249    1.375825
    127          1           0       18.212497   -0.402735   -0.730398
    128          1           0       17.541798    1.216061   -1.044758
    129          1           0       18.518543    1.997061    1.601831
    130          1           0       19.042024    0.583650    1.807317
    131          1           0       20.521465    0.372364   -0.137235
    132          1           0       19.706322    3.095776   -0.991817
    133          1           0       21.284294    2.179396   -1.441846
    134          1           0       19.667710    1.757657   -1.900290
    135          1           0       21.059976    1.566977    2.185357
    136          1           0       22.209914    1.766018    0.783693
    137          1           0       21.217353    3.049419    1.796504
 ---------------------------------------------------------------------

 SCF Done:  E(RCAM-B3LYP) =  -2932.53931253     A.U. after   17 cycles

 Excitation energies and oscillator strengths:

 Excited State   1:      Singlet-A      2.0728 eV  598.14 nm  f=0.2309  <S**2>=0.000
     240 -> 243        0.26199
     241 -> 242        0.65059
 This state for optimization and/or second-order correction.
 Total Energy, E(TD-HF/TD-KS) =  -2932.46313782
 Copying the excited state density for this state as the 1-particle RhoCI density.

 The electronic state is 1-A.
 Alpha  occ. eigenvalues --  -46.84254 -19.27114 -19.26448 -19.21072 -19.20956
 Alpha  occ. eigenvalues --  -19.20758 -14.41514 -14.39701 -14.39458 -14.38887
 Alpha  occ. eigenvalues --  -10.39772 -10.39735 -10.35691 -10.34659 -10.31994
 Alpha  occ. eigenvalues --  -10.30422 -10.30274 -10.30078 -10.30009 -10.29034
 Alpha  occ. eigenvalues --  -10.28775 -10.28651 -10.28628 -10.28601 -10.28396
 Alpha  occ. eigenvalues --  -10.28171 -10.28095 -10.28073 -10.28055 -10.27991
 Alpha  occ. eigenvalues --  -10.27991 -10.27343 -10.27228 -10.26980 -10.26924
 Alpha  occ. eigenvalues --  -10.26903 -10.26877 -10.26728 -10.26670 -10.26400
 Alpha  occ. eigenvalues --  -10.26383 -10.26366 -10.26351 -10.26181 -10.26174
 Alpha  occ. eigenvalues --  -10.26144 -10.26051 -10.26000 -10.25671 -10.25549
 Alpha  occ. eigenvalues --  -10.25418 -10.25369 -10.25343 -10.25334 -10.25282
 Alpha  occ. eigenvalues --  -10.25204 -10.25204 -10.25017 -10.24931 -10.24917
 Alpha  occ. eigenvalues --  -10.24817 -10.24679 -10.24583 -10.23756 -10.23570
 Alpha  occ. eigenvalues --   -3.13461  -1.88157  -1.87690  -1.87666  -1.20118
 Alpha  occ. eigenvalues --   -1.19080  -1.11259  -1.09873  -1.08128  -1.07593
 Alpha  occ. eigenvalues --   -1.04509  -1.04282  -1.01347  -0.93405  -0.90865
 Alpha  occ. eigenvalues --   -0.90687  -0.90468  -0.89708  -0.89263  -0.88808
 Alpha  occ. eigenvalues --   -0.88503  -0.87989  -0.87647  -0.86518  -0.86357
 Alpha  occ. eigenvalues --   -0.85143  -0.84463  -0.83861  -0.83203  -0.83041
 Alpha  occ. eigenvalues --   -0.82124  -0.81350  -0.80096  -0.79404  -0.78306
 Alpha  occ. eigenvalues --   -0.78190  -0.77272  -0.77253  -0.76101  -0.75931
 Alpha  occ. eigenvalues --   -0.74670  -0.74517  -0.73714  -0.73388  -0.71875
 Alpha  occ. eigenvalues --   -0.71800  -0.70516  -0.69656  -0.69255  -0.68470
 Alpha  occ. eigenvalues --   -0.67771  -0.67142  -0.65917  -0.64905  -0.64672
 Alpha  occ. eigenvalues --   -0.64574  -0.63367  -0.63219  -0.62890  -0.62568
 Alpha  occ. eigenvalues --   -0.61917  -0.61053  -0.60915  -0.59549  -0.59159
 Alpha  occ. eigenvalues --   -0.58849  -0.58399  -0.57841  -0.57421  -0.57025
 Alpha  occ. eigenvalues --   -0.56474  -0.56292  -0.55997  -0.55751  -0.55225
 Alpha  occ. eigenvalues --   -0.55097  -0.54530  -0.54385  -0.53882  -0.53415
 Alpha  occ. eigenvalues --   -0.53091  -0.52928  -0.52672  -0.52428  -0.52047
 Alpha  occ. eigenvalues --   -0.51647  -0.51566  -0.51071  -0.50709  -0.50584
 Alpha  occ. eigenvalues --   -0.50395  -0.50047  -0.49911  -0.49821  -0.49524
 Alpha  occ. eigenvalues --   -0.49481  -0.49231  -0.48954  -0.48680  -0.48322
 Alpha  occ. eigenvalues --   -0.48154  -0.47937  -0.47868  -0.47536  -0.47177
 Alpha  occ. eigenvalues --   -0.46931  -0.46727  -0.46500  -0.46242  -0.46131
 Alpha  occ. eigenvalues --   -0.46103  -0.45800  -0.45538  -0.45164  -0.45042
 Alpha  occ. eigenvalues --   -0.44855  -0.44755  -0.44669  -0.44231  -0.43934
 Alpha  occ. eigenvalues --   -0.43757  -0.43595  -0.43519  -0.43249  -0.43150
 Alpha  occ. eigenvalues --   -0.43084  -0.42572  -0.42316  -0.42264  -0.42025
 Alpha  occ. eigenvalues --   -0.41763  -0.41620  -0.41483  -0.41151  -0.40915
 Alpha  occ. eigenvalues --   -0.40871  -0.40719  -0.40563  -0.40364  -0.40296
 Alpha  occ. eigenvalues --   -0.39963  -0.39899  -0.39662  -0.39575  -0.39146
 Alpha  occ. eigenvalues --   -0.38901  -0.38455  -0.38369  -0.38198  -0.37923
 Alpha  occ. eigenvalues --   -0.37915  -0.37739  -0.37074  -0.36159  -0.35902
 Alpha  occ. eigenvalues --   -0.35848  -0.35680  -0.35527  -0.35341  -0.35149
 Alpha  occ. eigenvalues --   -0.35101  -0.34091  -0.34072  -0.33735  -0.32908
 Alpha  occ. eigenvalues --   -0.32868  -0.32300  -0.31759  -0.30748  -0.30416
 Alpha  occ. eigenvalues --   -0.29852  -0.29178  -0.27912  -0.26627  -0.23014
 Alpha  occ. eigenvalues --   -0.20853
 Alpha virt. eigenvalues --   -0.05897  -0.03107   0.01484   0.03839   0.04348
 Alpha virt. eigenvalues --    0.06057   0.06158   0.06385   0.06848   0.07715
 Alpha virt. eigenvalues --    0.08519   0.10052   0.10889   0.11159   0.11256

 Mulliken charges:
               1
     1  Mg   0.823729
     2  C    0.102187
     3  C   -0.162449
     4  C   -0.179910
     5  C   -0.150096
     6  N   -0.655169
     7  C    0.326348
     8  C   -0.195018
     9  C   -0.125036
    10  C    0.327058
    11  C   -0.267470
    12  C   -0.140945
    13  C   -0.289083
    14  C    0.610701
    15  O   -0.485105
    16  O   -0.456405
    17  N   -0.667003
    18  C    0.269676
    19  C    0.005115
    20  C    0.041869
    21  C    0.322393
    22  C   -0.376765
    23  C   -0.114705
    24  C   -0.250105
    25  N   -0.683147
    26  C    0.313405
    27  C   -0.040616
    28  C    0.060793
    29  C    0.269694
    30  C   -0.375613
    31  C   -0.242189
    32  C   -0.294079
    33  N   -0.756343
    34  C    0.287052
    35  C   -0.039972
    36  C    0.016177
    37  C    0.287977
    38  C   -0.359613
    39  C    0.384344
    40  O   -0.455800
    41  C   -0.325684
    42  C    0.594020
    43  O   -0.472070
    44  O   -0.407836
    45  C   -0.068213
    46  C    0.034798
    47  C   -0.151051
    48  C    0.081549
    49  C   -0.341720
    50  C   -0.218715
    51  C   -0.173401
    52  C   -0.164312
    53  C   -0.048013
    54  C   -0.333560
    55  C   -0.189202
    56  C   -0.190863
    57  C   -0.167826
    58  C   -0.064695
    59  C   -0.286943
    60  C   -0.170102
    61  C   -0.172456
    62  C   -0.184272
    63  C   -0.040748
    64  C   -0.294339
    65  C   -0.292197
    66  H    0.067765
    67  H    0.094436
    68  H    0.098008
    69  H    0.121829
    70  H    0.083410
    71  H    0.119445
    72  H    0.098454
    73  H    0.091710
    74  H    0.114588
    75  H    0.118999
    76  H    0.128831
    77  H    0.153079
    78  H    0.132063
    79  H    0.125978
    80  H    0.115172
    81  H    0.093244
    82  H    0.105208
    83  H    0.107325
    84  H    0.129978
    85  H    0.089303
    86  H    0.118003
    87  H    0.114180
    88  H    0.108221
    89  H    0.115147
    90  H    0.103940
    91  H    0.080291
    92  H    0.100787
    93  H    0.141431
    94  H    0.129207
    95  H    0.169579
    96  H    0.066373
    97  H    0.137850
    98  H    0.143609
    99  H    0.126364
   100  H    0.103453
   101  H    0.076292
   102  H    0.117558
   103  H    0.079956
   104  H    0.130517
   105  H    0.103353
   106  H    0.097233
   107  H    0.108312
   108  H    0.101728
   109  H    0.095110
   110  H    0.061902
   111  H    0.070643
   112  H    0.102873
   113  H    0.099719
   114  H    0.106667
   115  H    0.080144
   116  H    0.105550
   117  H    0.103981
   118  H    0.094567
   119  H    0.093336
   120  H    0.075967
   121  H    0.092043
   122  H    0.095899
   123  H    0.099920
   124  H    0.054504
   125  H    0.086080
   126  H    0.097080
   127  H    0.105925
   128  H    0.081554
   129  H    0.061259
   130  H    0.082211
   131  H    0.073193
   132  H    0.113401
   133  H    0.115791
   134  H    0.094526
   135  H    0.117898
   136  H    0.089560
   137  H    0.048454
 Sum of Mulliken charges =   0.00000

 Dipole moment (field-independent basis, Debye):
    X=              1.8435    Y=              3.3934    Z=              0.1328  Tot=              3.8641
 Quadrupole moment (field-independent basis, Debye-Ang):
   XX=           -355.3126   YY=           -391.6327   ZZ=           -401.7122
   XY=            -20.1333   XZ=             17.1676   YZ=             -3.2688

 Normal termination of Gaussian 09 at Sat Jun 29 16:51:18 2019.
