 Gaussian 09, Revision D.01,
 Gaussian 09:  ES64L-G09RevD.01 24-Apr-2013

 -------------------------------------
 # td=(NStates=1) CAM-B3LYP/6-31G(d,p)
 -------------------------------------

 --
 TD
 --
 Symbolic Z-matrix:
 Charge =  0 Multiplicity = 1

                         Standard orientation:
 ---------------------------------------------------------------------
 Center     Atomic      Atomic             Coordinates (Angstroms)
 Number     Number       Type             X           Y           Z
 ---------------------------------------------------------------------
      1         12           0       -7.220204    0.593844    0.115831
      2          6           0       -4.986712   -1.986403    0.463424
      3          6           0       -4.784379    2.781379    1.150391
      4          6           0       -9.286405    3.223040   -0.385255
      5          6           0       -9.638448   -1.651178   -0.965779
      6          7           0       -5.156818    0.405197    0.800275
      7          6           0       -4.389596   -0.775127    0.898970
      8          6           0       -2.969301   -0.484821    1.283672
      9          6           0       -3.011436    1.013068    1.622909
     10          6           0       -4.475841    1.461395    1.292361
     11          6           0       -2.988734    1.164205    3.290846
     12          6           0       -1.880287   -0.718737    0.155861
     13          6           0       -0.425867   -0.652151    0.586529
     14          6           0        0.527231   -0.745959   -0.553975
     15          8           0        0.274797   -1.207405   -1.657038
     16          8           0        1.716435   -0.560224   -0.183322
     17          7           0       -7.108951    2.565939    0.381812
     18          6           0       -5.988505    3.365440    0.769467
     19          6           0       -6.358942    4.772370    0.965922
     20          6           0       -7.629339    4.863832    0.484910
     21          6           0       -8.078979    3.441965    0.167103
     22          6           0       -5.448016    5.885035    1.339068
     23          6           0       -8.403574    6.147320    0.320818
     24          6           0       -7.962242    7.334836    0.156855
     25          7           0       -9.065228    0.796881   -0.588249
     26          6           0       -9.822864    1.907112   -0.682627
     27          6           0      -11.159820    1.578850   -1.143393
     28          6           0      -11.132559    0.146631   -1.271274
     29          6           0       -9.888386   -0.317306   -0.971213
     30          6           0      -12.183579    2.609978   -1.561883
     31          6           0      -12.376546   -0.609559   -1.659434
     32          6           0      -12.347260   -1.185201   -3.092753
     33          7           0       -7.275332   -1.404803   -0.078666
     34          6           0       -8.334340   -2.163583   -0.527737
     35          6           0       -7.932079   -3.510355   -0.560468
     36          6           0       -6.554385   -3.607879   -0.182907
     37          6           0       -6.178577   -2.254781    0.029552
     38          6           0       -8.734940   -4.766037   -0.978427
     39          6           0       -5.376458   -4.397330    0.115390
     40          8           0       -5.295587   -5.614796    0.030375
     41          6           0       -4.173179   -3.317751    0.563959
     42          6           0       -3.630683   -3.787912    1.891795
     43          8           0       -3.876875   -3.232953    2.926078
     44          8           0       -2.851539   -4.766020    1.722512
     45          6           0       -2.372666   -5.295050    2.934056
     46          6           0        2.773559   -0.641821   -1.279873
     47          6           0        4.069052   -0.351732   -0.541433
     48          6           0        5.033306    0.485419   -0.892248
     49          6           0        5.033999    1.284749   -2.094149
     50          6           0        6.323050    0.489289   -0.220607
     51          6           0        7.660944   -0.135817   -1.021124
     52          6           0        8.932929   -0.102549   -0.071188
     53          6           0       10.174645   -0.487178   -0.848926
     54          6           0       10.141681   -1.981989   -1.304105
     55          6           0       11.475777   -0.225644    0.030711
     56          6           0       12.743232   -0.392390   -0.711175
     57          6           0       13.926552    0.073050    0.093243
     58          6           0       15.335800    0.002250   -0.533213
     59          6           0       15.641458   -1.457112   -1.083050
     60          6           0       16.505893    0.506594    0.400876
     61          6           0       17.738955    0.723542   -0.266056
     62          6           0       18.886412    1.089606    0.763618
     63          6           0       20.298549    1.110078    0.280464
     64          6           0       20.573508    1.811906   -0.957522
     65          6           0       21.180970    1.661832    1.374792
     66          1           0       -4.063307    3.591971    1.490339
     67          1           0      -10.093701    4.089858   -0.204384
     68          1           0      -10.386352   -2.330163   -1.128283
     69          1           0       -2.603829   -1.185885    2.333082
     70          1           0       -2.402956    1.611871    1.395789
     71          1           0       -1.878425    0.846718    3.525197
     72          1           0       -3.307838    2.302548    3.625895
     73          1           0       -3.733285    0.636310    3.788738
     74          1           0       -2.006867   -1.752405   -0.338320
     75          1           0       -1.855113   -0.203172   -0.829992
     76          1           0       -0.195374    0.249077    1.253026
     77          1           0       -0.168224   -1.646960    1.183658
     78          1           0       -4.851096    6.187183    0.324199
     79          1           0       -5.898758    6.526649    1.855337
     80          1           0       -4.663847    5.493100    2.116153
     81          1           0       -9.510463    5.850417    0.486429
     82          1           0       -8.676235    8.204849    0.309714
     83          1           0       -6.960681    7.652741    0.210706
     84          1           0      -12.082003    3.127934   -2.601974
     85          1           0      -13.336311    2.099798   -1.426310
     86          1           0      -12.288726    3.414325   -0.729590
     87          1           0      -12.553273   -1.496059   -1.008191
     88          1           0      -13.085564    0.070603   -1.672030
     89          1           0      -13.203854   -1.948312   -3.417071
     90          1           0      -12.357833   -0.234676   -3.653500
     91          1           0      -11.299303   -1.544027   -3.397291
     92          1           0       -8.991778   -4.650203   -2.152791
     93          1           0       -8.147924   -5.504304   -0.771535
     94          1           0       -9.706737   -4.697928   -0.387384
     95          1           0       -3.327334   -3.490651   -0.233534
     96          1           0       -1.959132   -4.623525    3.525651
     97          1           0       -3.098887   -6.015439    3.476731
     98          1           0       -1.661041   -6.032229    2.464622
     99          1           0        2.762430   -1.584145   -1.686852
    100          1           0        2.601659   -0.029753   -2.166439
    101          1           0        4.122164   -1.132311    0.249620
    102          1           0        4.217986    1.397471   -2.842410
    103          1           0        5.332945    2.358575   -2.032877
    104          1           0        5.992351    0.820749   -2.698566
    105          1           0        6.699828    1.598086   -0.057856
    106          1           0        6.191422    0.041763    0.871447
    107          1           0        7.462555   -1.281042   -1.330929
    108          1           0        7.816647    0.456929   -1.959056
    109          1           0        9.044263    1.083363    0.044251
    110          1           0        8.524341   -0.586102    0.888019
    111          1           0       10.351758   -0.086602   -1.796302
    112          1           0        9.247119   -2.111924   -2.002578
    113          1           0       11.095841   -2.328254   -1.897277
    114          1           0        9.883412   -2.704924   -0.302735
    115          1           0       11.392833    0.815455    0.270837
    116          1           0       11.230769   -0.791529    0.806144
    117          1           0       12.979853   -1.473934   -0.779343
    118          1           0       12.790687    0.246759   -1.557289
    119          1           0       13.763985    1.071110    0.456517
    120          1           0       14.015114   -0.636252    0.912750
    121          1           0       15.395961    0.722710   -1.254731
    122          1           0       15.694792   -2.275410   -0.436427
    123          1           0       14.914218   -1.780148   -1.703443
    124          1           0       16.576938   -1.434859   -1.548429
    125          1           0       16.030208    1.437729    0.978825
    126          1           0       16.469504   -0.166165    1.014366
    127          1           0       18.300706   -0.098813   -0.604132
    128          1           0       17.640786    1.515160   -0.957441
    129          1           0       18.826824    2.120511    0.919782
    130          1           0       18.907977    0.617228    1.814017
    131          1           0       20.455235    0.094251    0.109776
    132          1           0       20.588257    2.976446   -0.726169
    133          1           0       21.532180    1.651422   -1.444481
    134          1           0       19.879084    1.528834   -1.820219
    135          1           0       21.121119    0.941763    2.319241
    136          1           0       22.327417    1.686362    0.853836
    137          1           0       20.888302    2.513512    1.583831
 ---------------------------------------------------------------------

 SCF Done:  E(RCAM-B3LYP) =  -2932.49916440     A.U. after   18 cycles

 Excitation energies and oscillator strengths:

 Excited State   1:      Singlet-A      2.1410 eV  579.08 nm  f=0.1838  <S**2>=0.000
     240 -> 242       -0.19066
     240 -> 243        0.24827
     241 -> 242        0.59780
     241 -> 243        0.19757
 This state for optimization and/or second-order correction.
 Total Energy, E(TD-HF/TD-KS) =  -2932.42048252
 Copying the excited state density for this state as the 1-particle RhoCI density.

 The electronic state is 1-A.
 Alpha  occ. eigenvalues --  -46.82876 -19.27311 -19.26547 -19.19577 -19.19431
 Alpha  occ. eigenvalues --  -19.18908 -14.41735 -14.39670 -14.38908 -14.38460
 Alpha  occ. eigenvalues --  -10.38003 -10.37825 -10.34703 -10.31939 -10.30995
 Alpha  occ. eigenvalues --  -10.30919 -10.30853 -10.30843 -10.30063 -10.29659
 Alpha  occ. eigenvalues --  -10.29579 -10.28967 -10.28486 -10.28465 -10.28462
 Alpha  occ. eigenvalues --  -10.28369 -10.28328 -10.28056 -10.27894 -10.27861
 Alpha  occ. eigenvalues --  -10.27690 -10.27690 -10.27689 -10.27470 -10.27424
 Alpha  occ. eigenvalues --  -10.27397 -10.27342 -10.27297 -10.27186 -10.27123
 Alpha  occ. eigenvalues --  -10.26909 -10.26830 -10.26480 -10.26399 -10.26385
 Alpha  occ. eigenvalues --  -10.26362 -10.26149 -10.26097 -10.26095 -10.26082
 Alpha  occ. eigenvalues --  -10.26055 -10.25545 -10.25212 -10.25186 -10.25034
 Alpha  occ. eigenvalues --  -10.24800 -10.24438 -10.24417 -10.24173 -10.24155
 Alpha  occ. eigenvalues --  -10.23991 -10.23785 -10.23466 -10.23124 -10.22468
 Alpha  occ. eigenvalues --   -3.12164  -1.86854  -1.86401  -1.86365  -1.22308
 Alpha  occ. eigenvalues --   -1.20175  -1.09827  -1.09685  -1.07465  -1.03983
 Alpha  occ. eigenvalues --   -1.02947  -1.02491  -1.01520  -0.92193  -0.92034
 Alpha  occ. eigenvalues --   -0.92002  -0.90919  -0.90319  -0.89344  -0.89231
 Alpha  occ. eigenvalues --   -0.89093  -0.88118  -0.86694  -0.86390  -0.86035
 Alpha  occ. eigenvalues --   -0.85585  -0.84917  -0.84296  -0.83529  -0.82445
 Alpha  occ. eigenvalues --   -0.82153  -0.81981  -0.80284  -0.79669  -0.78837
 Alpha  occ. eigenvalues --   -0.77338  -0.77038  -0.76453  -0.76107  -0.75966
 Alpha  occ. eigenvalues --   -0.75534  -0.74967  -0.74160  -0.73044  -0.71843
 Alpha  occ. eigenvalues --   -0.71436  -0.70770  -0.69835  -0.69293  -0.68109
 Alpha  occ. eigenvalues --   -0.67392  -0.66746  -0.66242  -0.65420  -0.65246
 Alpha  occ. eigenvalues --   -0.64556  -0.63891  -0.63596  -0.63183  -0.62710
 Alpha  occ. eigenvalues --   -0.62403  -0.60925  -0.60381  -0.60053  -0.59301
 Alpha  occ. eigenvalues --   -0.58541  -0.57825  -0.57626  -0.57026  -0.56678
 Alpha  occ. eigenvalues --   -0.56627  -0.56033  -0.55785  -0.55539  -0.54866
 Alpha  occ. eigenvalues --   -0.54800  -0.54339  -0.53968  -0.53677  -0.53580
 Alpha  occ. eigenvalues --   -0.52894  -0.52526  -0.52430  -0.52020  -0.51825
 Alpha  occ. eigenvalues --   -0.51591  -0.51478  -0.51296  -0.51029  -0.50839
 Alpha  occ. eigenvalues --   -0.50607  -0.50237  -0.49795  -0.49601  -0.49447
 Alpha  occ. eigenvalues --   -0.49261  -0.48687  -0.48625  -0.48474  -0.48273
 Alpha  occ. eigenvalues --   -0.47994  -0.47893  -0.47657  -0.47540  -0.47052
 Alpha  occ. eigenvalues --   -0.46969  -0.46671  -0.46495  -0.46233  -0.46098
 Alpha  occ. eigenvalues --   -0.45540  -0.45397  -0.45221  -0.45113  -0.44917
 Alpha  occ. eigenvalues --   -0.44745  -0.44566  -0.44345  -0.44260  -0.43865
 Alpha  occ. eigenvalues --   -0.43792  -0.43510  -0.43411  -0.43125  -0.42912
 Alpha  occ. eigenvalues --   -0.42858  -0.42482  -0.42357  -0.42175  -0.41979
 Alpha  occ. eigenvalues --   -0.41928  -0.41865  -0.41684  -0.41365  -0.41294
 Alpha  occ. eigenvalues --   -0.41050  -0.40861  -0.40726  -0.40559  -0.40180
 Alpha  occ. eigenvalues --   -0.39948  -0.39889  -0.39680  -0.39441  -0.39371
 Alpha  occ. eigenvalues --   -0.38943  -0.38787  -0.38635  -0.38508  -0.38387
 Alpha  occ. eigenvalues --   -0.37836  -0.37583  -0.37486  -0.37199  -0.36450
 Alpha  occ. eigenvalues --   -0.36215  -0.36174  -0.35925  -0.35567  -0.35535
 Alpha  occ. eigenvalues --   -0.35322  -0.34751  -0.34278  -0.33428  -0.32995
 Alpha  occ. eigenvalues --   -0.32791  -0.32592  -0.32415  -0.31098  -0.29848
 Alpha  occ. eigenvalues --   -0.28997  -0.28900  -0.28268  -0.27293  -0.23400
 Alpha  occ. eigenvalues --   -0.20869
 Alpha virt. eigenvalues --   -0.05831  -0.04042   0.01303   0.04624   0.05055
 Alpha virt. eigenvalues --    0.06321   0.06883   0.07126   0.07283   0.07889
 Alpha virt. eigenvalues --    0.08729   0.10554   0.11171   0.11308   0.11449

 Mulliken charges:
               1
     1  Mg   0.816590
     2  C    0.066062
     3  C   -0.210619
     4  C   -0.190162
     5  C   -0.132990
     6  N   -0.615283
     7  C    0.296849
     8  C   -0.138019
     9  C   -0.071248
    10  C    0.353811
    11  C   -0.326092
    12  C   -0.192879
    13  C   -0.255935
    14  C    0.593634
    15  O   -0.510778
    16  O   -0.441951
    17  N   -0.710814
    18  C    0.276589
    19  C    0.023874
    20  C   -0.019237
    21  C    0.376966
    22  C   -0.339589
    23  C   -0.027059
    24  C   -0.264291
    25  N   -0.727168
    26  C    0.305127
    27  C    0.004242
    28  C    0.005404
    29  C    0.325574
    30  C   -0.369022
    31  C   -0.211715
    32  C   -0.316397
    33  N   -0.737743
    34  C    0.308182
    35  C   -0.082375
    36  C    0.076076
    37  C    0.248083
    38  C   -0.330205
    39  C    0.329239
    40  O   -0.467430
    41  C   -0.340345
    42  C    0.621789
    43  O   -0.493718
    44  O   -0.386081
    45  C   -0.095545
    46  C   -0.002829
    47  C   -0.146333
    48  C    0.184160
    49  C   -0.379896
    50  C   -0.241591
    51  C   -0.185543
    52  C   -0.164265
    53  C   -0.073756
    54  C   -0.302987
    55  C   -0.147902
    56  C   -0.174578
    57  C   -0.186865
    58  C   -0.078222
    59  C   -0.342518
    60  C   -0.142061
    61  C   -0.177979
    62  C   -0.184062
    63  C   -0.067620
    64  C   -0.302112
    65  C   -0.273337
    66  H    0.079405
    67  H    0.077877
    68  H    0.102759
    69  H    0.110916
    70  H    0.071572
    71  H    0.095327
    72  H    0.076284
    73  H    0.145653
    74  H    0.110472
    75  H    0.128451
    76  H    0.116484
    77  H    0.127582
    78  H    0.121830
    79  H    0.133816
    80  H    0.095644
    81  H    0.087576
    82  H    0.100546
    83  H    0.110956
    84  H    0.129909
    85  H    0.082876
    86  H    0.111123
    87  H    0.101862
    88  H    0.107430
    89  H    0.096878
    90  H    0.106916
    91  H    0.103859
    92  H    0.104792
    93  H    0.148462
    94  H    0.109209
    95  H    0.151284
    96  H    0.143745
    97  H    0.126554
    98  H    0.118392
    99  H    0.149912
   100  H    0.129567
   101  H    0.096741
   102  H    0.116145
   103  H    0.116512
   104  H    0.099917
   105  H    0.087067
   106  H    0.089282
   107  H    0.086170
   108  H    0.101347
   109  H    0.079894
   110  H    0.108053
   111  H    0.098642
   112  H    0.096711
   113  H    0.098657
   114  H    0.061332
   115  H    0.085005
   116  H    0.100545
   117  H    0.099108
   118  H    0.094919
   119  H    0.079765
   120  H    0.083312
   121  H    0.081183
   122  H    0.101387
   123  H    0.111526
   124  H    0.105708
   125  H    0.064375
   126  H    0.098040
   127  H    0.105757
   128  H    0.105525
   129  H    0.086050
   130  H    0.081734
   131  H    0.087884
   132  H    0.074504
   133  H    0.108341
   134  H    0.091956
   135  H    0.082428
   136  H    0.067609
   137  H    0.117844
 Sum of Mulliken charges =   0.00000

 Dipole moment (field-independent basis, Debye):
    X=              3.6801    Y=              5.7585    Z=              0.7099  Tot=              6.8708
 Quadrupole moment (field-independent basis, Debye-Ang):
   XX=           -352.1415   YY=           -389.5661   ZZ=           -398.7392
   XY=            -30.5582   XZ=             -5.4830   YZ=             -3.3561

 Normal termination of Gaussian 09 at Fri Jun 28 00:52:26 2019.
