 Gaussian 09, Revision D.01,
 Gaussian 09:  ES64L-G09RevD.01 24-Apr-2013

 -------------------------------------
 # td=(NStates=1) CAM-B3LYP/6-31G(d,p)
 -------------------------------------

 --
 TD
 --
 Symbolic Z-matrix:
 Charge =  0 Multiplicity = 1

                         Standard orientation:
 ---------------------------------------------------------------------
 Center     Atomic      Atomic             Coordinates (Angstroms)
 Number     Number       Type             X           Y           Z
 ---------------------------------------------------------------------
      1         12           0       -7.179136    0.626177    0.052966
      2          6           0       -4.815312   -1.968110    0.458231
      3          6           0       -4.838244    2.840151    1.152518
      4          6           0       -9.437213    3.112856   -0.319954
      5          6           0       -9.438106   -1.732680   -0.924735
      6          7           0       -5.053989    0.426723    0.697212
      7          6           0       -4.246199   -0.755524    0.836331
      8          6           0       -2.891471   -0.306380    1.283614
      9          6           0       -3.035386    1.072100    1.764007
     10          6           0       -4.323757    1.529995    1.135193
     11          6           0       -3.096947    1.184289    3.302294
     12          6           0       -1.947721   -0.552516    0.145123
     13          6           0       -0.398585   -0.313326    0.523172
     14          6           0        0.585840   -0.545361   -0.632932
     15          8           0        0.220170   -0.783148   -1.778947
     16          8           0        1.778983   -0.471975   -0.166209
     17          7           0       -7.089869    2.622708    0.373101
     18          6           0       -6.071524    3.310756    0.863750
     19          6           0       -6.550131    4.649904    1.014575
     20          6           0       -7.812047    4.761179    0.477775
     21          6           0       -8.158610    3.373608    0.150059
     22          6           0       -5.781971    5.706257    1.605996
     23          6           0       -8.644113    5.868935    0.267153
     24          6           0       -8.289529    7.126558   -0.013171
     25          7           0       -9.116944    0.691822   -0.518601
     26          6           0       -9.848609    1.758305   -0.603985
     27          6           0      -11.242648    1.418993   -1.059051
     28          6           0      -11.330999    0.038346   -1.329241
     29          6           0       -9.957602   -0.415094   -0.919391
     30          6           0      -12.383316    2.442449   -1.270699
     31          6           0      -12.438341   -0.823594   -1.772083
     32          6           0      -12.391347   -1.009789   -3.240741
     33          7           0       -7.227205   -1.372696   -0.335986
     34          6           0       -8.237518   -2.343173   -0.586857
     35          6           0       -7.840898   -3.591511   -0.570245
     36          6           0       -6.405927   -3.488761   -0.146654
     37          6           0       -6.141127   -2.122851   -0.024498
     38          6           0       -8.506917   -4.853957   -1.075185
     39          6           0       -5.305062   -4.381276    0.193517
     40          8           0       -5.143400   -5.587659    0.247457
     41          6           0       -4.075159   -3.352910    0.530429
     42          6           0       -3.433304   -3.694650    1.939183
     43          8           0       -3.738635   -3.228570    3.055549
     44          8           0       -2.602095   -4.749492    1.711560
     45          6           0       -2.122218   -5.096081    2.977827
     46          6           0        2.775671   -0.653110   -1.137766
     47          6           0        4.186173   -0.325549   -0.493100
     48          6           0        5.112180    0.494317   -0.966601
     49          6           0        5.114139    1.232020   -2.190259
     50          6           0        6.397541    0.501954   -0.227611
     51          6           0        7.607611   -0.121635   -0.981006
     52          6           0        8.931261   -0.071634   -0.224661
     53          6           0       10.165040   -0.521494   -1.035700
     54          6           0       10.088861   -1.984609   -1.287522
     55          6           0       11.447670   -0.237685   -0.120696
     56          6           0       12.852147   -0.591602   -0.728115
     57          6           0       13.981175   -0.237345    0.236709
     58          6           0       15.407454   -0.226887   -0.469101
     59          6           0       15.618705   -1.667728   -0.863271
     60          6           0       16.417073    0.342254    0.546568
     61          6           0       17.806130    0.503961   -0.195177
     62          6           0       18.824433    1.236862    0.686832
     63          6           0       20.278696    1.361771    0.181938
     64          6           0       20.295786    2.262678   -1.023961
     65          6           0       21.219441    1.876342    1.239247
     66          1           0       -4.335011    3.466389    1.614272
     67          1           0      -10.061095    3.973246   -0.560653
     68          1           0      -10.208823   -2.493135   -1.147839
     69          1           0       -2.738507   -1.048291    2.136965
     70          1           0       -2.051760    1.515979    1.253385
     71          1           0       -2.220611    0.816713    3.737507
     72          1           0       -3.000275    2.284819    3.599859
     73          1           0       -4.065668    0.744322    3.663386
     74          1           0       -2.099240   -1.567631   -0.136451
     75          1           0       -2.258849    0.359075   -0.627743
     76          1           0       -0.340416    0.825994    0.860480
     77          1           0       -0.300068   -0.987311    1.490776
     78          1           0       -5.039722    6.298985    0.880020
     79          1           0       -6.331949    6.420057    1.950484
     80          1           0       -4.924864    5.407807    2.320539
     81          1           0       -9.672081    5.557940    0.424457
     82          1           0       -8.849081    7.953661   -0.039145
     83          1           0       -7.320727    7.343027   -0.559237
     84          1           0      -12.109555    3.030767   -2.237686
     85          1           0      -13.457095    1.860941   -1.484193
     86          1           0      -12.444494    3.239980   -0.454008
     87          1           0      -12.576287   -1.662551   -0.968716
     88          1           0      -13.424205   -0.311170   -1.335023
     89          1           0      -13.134073   -1.607494   -3.663757
     90          1           0      -12.302116   -0.048263   -3.778493
     91          1           0      -11.482189   -1.486000   -3.499105
     92          1           0       -8.801078   -4.692785   -2.123601
     93          1           0       -7.830434   -5.596385   -0.919976
     94          1           0       -9.381699   -5.119735   -0.240517
     95          1           0       -3.484959   -3.547712   -0.233882
     96          1           0       -1.457217   -4.469945    3.541028
     97          1           0       -2.940548   -5.533843    3.501130
     98          1           0       -1.484847   -6.010033    2.730597
     99          1           0        2.547618   -1.627555   -1.710153
    100          1           0        2.541077    0.068848   -1.950368
    101          1           0        4.373003   -0.909376    0.321720
    102          1           0        4.248475    1.357882   -2.522981
    103          1           0        5.476525    2.380553   -2.176579
    104          1           0        5.806042    0.908912   -2.960151
    105          1           0        6.632384    1.600677   -0.011384
    106          1           0        6.354434   -0.066046    0.687377
    107          1           0        7.197857   -1.094999   -1.118520
    108          1           0        7.745889    0.309929   -1.949642
    109          1           0        8.996068    1.040128    0.071763
    110          1           0        8.781875   -0.436471    0.829791
    111          1           0       10.196287    0.079443   -2.032691
    112          1           0        9.156342   -2.310403   -1.796667
    113          1           0       10.947081   -2.381931   -1.585745
    114          1           0        9.910708   -2.385526   -0.354540
    115          1           0       11.358768    0.690581    0.128648
    116          1           0       11.235415   -0.667267    0.826286
    117          1           0       12.987326   -1.649444   -0.974058
    118          1           0       12.985875   -0.168570   -1.687513
    119          1           0       13.840063    0.953190    0.600222
    120          1           0       13.888693   -0.903586    0.981930
    121          1           0       15.438109    0.514589   -1.399537
    122          1           0       15.410011   -2.293839   -0.189973
    123          1           0       14.955041   -1.883189   -1.735640
    124          1           0       16.582879   -1.747596   -1.209069
    125          1           0       16.041389    1.292191    0.779275
    126          1           0       16.476095   -0.305842    1.474607
    127          1           0       18.201862   -0.603073   -0.452705
    128          1           0       17.797349    1.176043   -1.055961
    129          1           0       18.530486    2.138836    1.080911
    130          1           0       18.740792    0.589500    1.648250
    131          1           0       20.563479    0.355005   -0.068343
    132          1           0       19.752960    3.287734   -0.890882
    133          1           0       21.458380    2.523424   -1.304298
    134          1           0       19.908385    1.775005   -1.852960
    135          1           0       21.170716    1.248684    2.152508
    136          1           0       22.273119    1.781262    0.865609
    137          1           0       21.015196    2.797480    1.677215
 ---------------------------------------------------------------------

 SCF Done:  E(RCAM-B3LYP) =  -2932.66389717     A.U. after   17 cycles

 Excitation energies and oscillator strengths:

 Excited State   1:      Singlet-A      2.2741 eV  545.21 nm  f=0.1801  <S**2>=0.000
     240 -> 242       -0.35521
     240 -> 243        0.17371
     241 -> 242        0.53804
     241 -> 243        0.20142
 This state for optimization and/or second-order correction.
 Total Energy, E(TD-HF/TD-KS) =  -2932.58032681
 Copying the excited state density for this state as the 1-particle RhoCI density.

 The electronic state is 1-A.
 Alpha  occ. eigenvalues --  -46.84447 -19.27870 -19.26998 -19.21315 -19.20707
 Alpha  occ. eigenvalues --  -19.19263 -14.41691 -14.40187 -14.39124 -14.38295
 Alpha  occ. eigenvalues --  -10.39726 -10.39405 -10.34169 -10.32772 -10.31947
 Alpha  occ. eigenvalues --  -10.30349 -10.29886 -10.29823 -10.29807 -10.29804
 Alpha  occ. eigenvalues --  -10.29773 -10.29107 -10.28678 -10.28344 -10.28329
 Alpha  occ. eigenvalues --  -10.28043 -10.27692 -10.27663 -10.27499 -10.27449
 Alpha  occ. eigenvalues --  -10.27368 -10.27257 -10.27055 -10.26967 -10.26947
 Alpha  occ. eigenvalues --  -10.26841 -10.26780 -10.26682 -10.26551 -10.26461
 Alpha  occ. eigenvalues --  -10.26446 -10.26437 -10.26425 -10.26309 -10.26176
 Alpha  occ. eigenvalues --  -10.26166 -10.26010 -10.26001 -10.25764 -10.25661
 Alpha  occ. eigenvalues --  -10.25371 -10.25302 -10.25294 -10.25128 -10.25032
 Alpha  occ. eigenvalues --  -10.24947 -10.24909 -10.24686 -10.24185 -10.24093
 Alpha  occ. eigenvalues --  -10.24080 -10.23724 -10.23637 -10.22202 -10.22176
 Alpha  occ. eigenvalues --   -3.13443  -1.88154  -1.87711  -1.87589  -1.21739
 Alpha  occ. eigenvalues --   -1.18663  -1.09604  -1.09486  -1.08285  -1.06301
 Alpha  occ. eigenvalues --   -1.03297  -1.02641  -1.01753  -0.92602  -0.91464
 Alpha  occ. eigenvalues --   -0.90717  -0.90615  -0.90085  -0.89769  -0.89714
 Alpha  occ. eigenvalues --   -0.89013  -0.88730  -0.86719  -0.86399  -0.85847
 Alpha  occ. eigenvalues --   -0.84887  -0.84587  -0.83467  -0.83213  -0.83061
 Alpha  occ. eigenvalues --   -0.82537  -0.81090  -0.80938  -0.80261  -0.78674
 Alpha  occ. eigenvalues --   -0.78172  -0.77083  -0.76973  -0.76406  -0.75856
 Alpha  occ. eigenvalues --   -0.75465  -0.75327  -0.74729  -0.73796  -0.73016
 Alpha  occ. eigenvalues --   -0.71708  -0.71161  -0.69903  -0.69711  -0.68939
 Alpha  occ. eigenvalues --   -0.67580  -0.66869  -0.65508  -0.65297  -0.64608
 Alpha  occ. eigenvalues --   -0.64367  -0.63749  -0.63272  -0.63166  -0.62782
 Alpha  occ. eigenvalues --   -0.62514  -0.61362  -0.60684  -0.60441  -0.59636
 Alpha  occ. eigenvalues --   -0.58190  -0.57996  -0.57717  -0.57049  -0.56942
 Alpha  occ. eigenvalues --   -0.56413  -0.55873  -0.55769  -0.55067  -0.54846
 Alpha  occ. eigenvalues --   -0.54499  -0.54353  -0.54106  -0.53950  -0.53732
 Alpha  occ. eigenvalues --   -0.53473  -0.53269  -0.52748  -0.52690  -0.52223
 Alpha  occ. eigenvalues --   -0.51871  -0.51611  -0.51420  -0.51065  -0.50611
 Alpha  occ. eigenvalues --   -0.50504  -0.50420  -0.50181  -0.50116  -0.49962
 Alpha  occ. eigenvalues --   -0.49439  -0.49072  -0.48938  -0.48751  -0.48380
 Alpha  occ. eigenvalues --   -0.48152  -0.47730  -0.47581  -0.47339  -0.47205
 Alpha  occ. eigenvalues --   -0.47162  -0.47046  -0.46930  -0.46706  -0.46254
 Alpha  occ. eigenvalues --   -0.45675  -0.45412  -0.45377  -0.45108  -0.45019
 Alpha  occ. eigenvalues --   -0.44934  -0.44722  -0.44387  -0.44346  -0.44181
 Alpha  occ. eigenvalues --   -0.44021  -0.43869  -0.43763  -0.43547  -0.43177
 Alpha  occ. eigenvalues --   -0.43096  -0.42953  -0.42498  -0.42424  -0.42152
 Alpha  occ. eigenvalues --   -0.42057  -0.42027  -0.41791  -0.41775  -0.41190
 Alpha  occ. eigenvalues --   -0.41077  -0.40830  -0.40662  -0.40611  -0.40417
 Alpha  occ. eigenvalues --   -0.40231  -0.39903  -0.39810  -0.39530  -0.39298
 Alpha  occ. eigenvalues --   -0.39164  -0.38816  -0.38452  -0.38207  -0.38004
 Alpha  occ. eigenvalues --   -0.37932  -0.37736  -0.37587  -0.37155  -0.36694
 Alpha  occ. eigenvalues --   -0.36597  -0.36502  -0.36283  -0.36145  -0.35653
 Alpha  occ. eigenvalues --   -0.35464  -0.35245  -0.35218  -0.33761  -0.33697
 Alpha  occ. eigenvalues --   -0.33286  -0.32646  -0.32443  -0.31030  -0.30439
 Alpha  occ. eigenvalues --   -0.28821  -0.28554  -0.27489  -0.27376  -0.23011
 Alpha  occ. eigenvalues --   -0.21900
 Alpha virt. eigenvalues --   -0.06410  -0.02571   0.01484   0.03532   0.05319
 Alpha virt. eigenvalues --    0.05350   0.06061   0.06341   0.06715   0.07109
 Alpha virt. eigenvalues --    0.08867   0.10526   0.11192   0.11658   0.12259

 Mulliken charges:
               1
     1  Mg   0.815019
     2  C   -0.005142
     3  C   -0.135009
     4  C   -0.191294
     5  C   -0.206265
     6  N   -0.616410
     7  C    0.283498
     8  C   -0.157005
     9  C   -0.140364
    10  C    0.333605
    11  C   -0.303823
    12  C   -0.144059
    13  C   -0.278275
    14  C    0.617920
    15  O   -0.489897
    16  O   -0.405932
    17  N   -0.775604
    18  C    0.368415
    19  C    0.007692
    20  C    0.030910
    21  C    0.364567
    22  C   -0.378629
    23  C   -0.087389
    24  C   -0.252693
    25  N   -0.688832
    26  C    0.368412
    27  C   -0.027944
    28  C    0.079835
    29  C    0.228369
    30  C   -0.366083
    31  C   -0.244957
    32  C   -0.314637
    33  N   -0.752015
    34  C    0.283932
    35  C    0.038712
    36  C   -0.076849
    37  C    0.397946
    38  C   -0.350292
    39  C    0.343509
    40  O   -0.475014
    41  C   -0.280101
    42  C    0.621300
    43  O   -0.494655
    44  O   -0.419836
    45  C   -0.092435
    46  C   -0.026513
    47  C   -0.145467
    48  C    0.160796
    49  C   -0.357851
    50  C   -0.237151
    51  C   -0.176506
    52  C   -0.184511
    53  C   -0.072679
    54  C   -0.291942
    55  C   -0.168049
    56  C   -0.196829
    57  C   -0.162713
    58  C   -0.066403
    59  C   -0.299348
    60  C   -0.162740
    61  C   -0.182839
    62  C   -0.175510
    63  C   -0.046615
    64  C   -0.295103
    65  C   -0.309919
    66  H    0.027823
    67  H    0.100468
    68  H    0.080840
    69  H    0.121894
    70  H    0.085547
    71  H    0.125653
    72  H    0.098022
    73  H    0.135033
    74  H    0.124240
    75  H    0.091678
    76  H    0.113320
    77  H    0.118514
    78  H    0.098386
    79  H    0.129335
    80  H    0.105128
    81  H    0.097957
    82  H    0.110371
    83  H    0.104724
    84  H    0.114999
    85  H    0.099541
    86  H    0.114868
    87  H    0.114459
    88  H    0.089326
    89  H    0.115490
    90  H    0.119450
    91  H    0.125203
    92  H    0.128938
    93  H    0.158137
    94  H    0.095606
    95  H    0.157535
    96  H    0.128865
    97  H    0.140221
    98  H    0.098097
    99  H    0.131752
   100  H    0.121520
   101  H    0.095240
   102  H    0.118801
   103  H    0.088085
   104  H    0.134695
   105  H    0.084162
   106  H    0.097363
   107  H    0.100399
   108  H    0.094867
   109  H    0.076958
   110  H    0.086924
   111  H    0.071192
   112  H    0.093724
   113  H    0.106229
   114  H    0.104767
   115  H    0.099747
   116  H    0.087126
   117  H    0.092995
   118  H    0.098026
   119  H    0.046939
   120  H    0.105244
   121  H    0.069487
   122  H    0.112267
   123  H    0.095853
   124  H    0.099838
   125  H    0.101922
   126  H    0.087074
   127  H    0.078353
   128  H    0.097175
   129  H    0.095230
   130  H    0.061417
   131  H    0.090952
   132  H    0.090188
   133  H    0.069871
   134  H    0.114521
   135  H    0.091143
   136  H    0.095193
   137  H    0.108786
 Sum of Mulliken charges =   0.00000

 Dipole moment (field-independent basis, Debye):
    X=              1.6546    Y=              5.9496    Z=              0.2598  Tot=              6.1808
 Quadrupole moment (field-independent basis, Debye-Ang):
   XX=           -336.1372   YY=           -397.0586   ZZ=           -396.1563
   XY=            -35.1972   XZ=             13.1778   YZ=              0.0966

 Normal termination of Gaussian 09 at Fri Jun 28 15:09:32 2019.
