 Gaussian 09, Revision D.01,
 Gaussian 09:  ES64L-G09RevD.01 24-Apr-2013

 -------------------------------------
 # td=(NStates=1) CAM-B3LYP/6-31G(d,p)
 -------------------------------------

 --
 TD
 --
 Symbolic Z-matrix:
 Charge =  0 Multiplicity = 1

                         Standard orientation:
 ---------------------------------------------------------------------
 Center     Atomic      Atomic             Coordinates (Angstroms)
 Number     Number       Type             X           Y           Z
 ---------------------------------------------------------------------
      1         12           0       -7.125759    0.594910    0.092963
      2          6           0       -4.910341   -2.003652    0.523713
      3          6           0       -4.961643    2.767602    1.254085
      4          6           0       -9.385583    3.059526   -0.572030
      5          6           0       -9.528235   -1.767464   -1.007032
      6          7           0       -5.115798    0.440794    0.727855
      7          6           0       -4.410312   -0.770199    0.877867
      8          6           0       -2.990276   -0.377721    1.211961
      9          6           0       -3.014259    1.115502    1.672352
     10          6           0       -4.441973    1.534292    1.281491
     11          6           0       -2.911789    1.119353    3.179642
     12          6           0       -1.986188   -0.661258    0.026402
     13          6           0       -0.527207   -0.694735    0.608914
     14          6           0        0.509467   -0.820982   -0.516923
     15          8           0        0.271114   -1.230241   -1.614297
     16          8           0        1.769944   -0.522882    0.014206
     17          7           0       -7.242328    2.676408    0.394216
     18          6           0       -6.182816    3.360547    0.859849
     19          6           0       -6.539343    4.744406    0.893669
     20          6           0       -7.854224    4.839688    0.380607
     21          6           0       -8.193941    3.456806    0.047407
     22          6           0       -5.677412    5.827708    1.447776
     23          6           0       -8.689425    6.088331    0.346542
     24          6           0       -8.218521    7.288888   -0.059631
     25          7           0       -8.993121    0.580347   -0.554860
     26          6           0       -9.884354    1.811574   -0.708529
     27          6           0      -11.155445    1.443377   -1.118319
     28          6           0      -11.191149    0.124200   -1.321497
     29          6           0       -9.925431   -0.366249   -0.966659
     30          6           0      -12.260484    2.452242   -1.316810
     31          6           0      -12.418174   -0.805455   -1.717496
     32          6           0      -12.438705   -1.108488   -3.163520
     33          7           0       -7.253745   -1.325775   -0.200417
     34          6           0       -8.221317   -2.216879   -0.535394
     35          6           0       -7.842909   -3.550104   -0.595940
     36          6           0       -6.511069   -3.589515   -0.151958
     37          6           0       -6.229307   -2.184953    0.099958
     38          6           0       -8.684721   -4.710697   -0.885708
     39          6           0       -5.399050   -4.388334    0.160040
     40          8           0       -5.201837   -5.578821    0.106203
     41          6           0       -4.234416   -3.365857    0.536547
     42          6           0       -3.611682   -3.655494    1.941742
     43          8           0       -3.700534   -3.092257    3.002053
     44          8           0       -2.668633   -4.709999    1.667692
     45          6           0       -1.978715   -5.059647    2.869117
     46          6           0        2.874594   -0.676220   -1.008023
     47          6           0        4.201108   -0.357078   -0.279041
     48          6           0        5.171953    0.369998   -0.916610
     49          6           0        5.033756    1.298618   -2.085894
     50          6           0        6.513127    0.284762   -0.176563
     51          6           0        7.752272   -0.095007   -0.939910
     52          6           0        9.081183   -0.058631   -0.132376
     53          6           0       10.301072   -0.571122   -0.945553
     54          6           0       10.200773   -1.908442   -1.354949
     55          6           0       11.532073   -0.292727   -0.000515
     56          6           0       12.833163   -0.605694   -0.724964
     57          6           0       14.011802   -0.197239    0.057782
     58          6           0       15.283003   -0.193080   -0.597278
     59          6           0       15.740776   -1.747073   -0.948650
     60          6           0       16.350647    0.565441    0.276746
     61          6           0       17.840366    0.618385   -0.222878
     62          6           0       18.821118    1.304049    0.735081
     63          6           0       20.189838    1.359854    0.296113
     64          6           0       20.398839    2.154109   -1.086258
     65          6           0       21.129330    2.082614    1.317385
     66          1           0       -4.133113    3.428608    1.489202
     67          1           0      -10.017370    4.008309   -0.898340
     68          1           0      -10.228858   -2.465733   -1.070816
     69          1           0       -2.572882   -0.879740    2.020617
     70          1           0       -2.395271    1.789002    1.205235
     71          1           0       -2.026164    0.954670    3.400931
     72          1           0       -3.093318    2.214139    3.490508
     73          1           0       -3.677336    0.815161    3.753614
     74          1           0       -2.111169   -1.605900   -0.530781
     75          1           0       -1.943503    0.273417   -0.619161
     76          1           0       -0.433100    0.314449    1.290057
     77          1           0       -0.529766   -1.590484    1.286413
     78          1           0       -5.173997    6.423628    0.583437
     79          1           0       -6.378830    6.529610    1.861520
     80          1           0       -4.830371    5.337187    1.976075
     81          1           0       -9.745056    6.268694    0.399935
     82          1           0       -8.986965    8.222874   -0.365612
     83          1           0       -7.230091    7.498589   -0.047435
     84          1           0      -11.959843    3.353546   -2.090747
     85          1           0      -13.254062    1.810928   -1.609266
     86          1           0      -12.615533    2.951067   -0.453278
     87          1           0      -12.525997   -1.641699   -1.137302
     88          1           0      -13.393454   -0.350659   -1.518256
     89          1           0      -13.306609   -1.789837   -3.473582
     90          1           0      -12.534094   -0.071270   -3.557941
     91          1           0      -11.534301   -1.366376   -3.333091
     92          1           0       -9.309197   -4.875259   -1.885105
     93          1           0       -8.125844   -5.583967   -0.758279
     94          1           0       -9.654081   -4.476614   -0.312964
     95          1           0       -3.322895   -3.411055   -0.029639
     96          1           0       -1.720131   -3.999029    3.355718
     97          1           0       -2.611872   -5.656883    3.693738
     98          1           0       -1.035280   -5.656597    2.627755
     99          1           0        2.651523   -1.797598   -1.511167
    100          1           0        2.523300    0.027719   -1.807557
    101          1           0        4.578411   -1.093642    0.677912
    102          1           0        4.160681    1.246911   -2.551777
    103          1           0        5.385054    2.348389   -1.740299
    104          1           0        5.944886    1.008123   -3.198687
    105          1           0        6.666037    1.384207    0.155232
    106          1           0        6.682886   -0.241326    0.703555
    107          1           0        7.662090   -1.319254   -1.235468
    108          1           0        7.853097    0.584568   -1.812216
    109          1           0        9.168758    1.044464    0.048820
    110          1           0        8.994399   -0.587054    0.752440
    111          1           0       10.571773   -0.046624   -1.722456
    112          1           0        9.301295   -2.231608   -1.770631
    113          1           0       11.108140   -2.238336   -1.775763
    114          1           0       10.024569   -2.671413   -0.445311
    115          1           0       11.509103    0.824320    0.262572
    116          1           0       11.373332   -0.725320    0.966832
    117          1           0       13.079626   -1.691691   -0.829985
    118          1           0       12.823519   -0.152102   -1.818321
    119          1           0       13.828205    0.789434    0.516845
    120          1           0       14.130853   -0.761802    0.800189
    121          1           0       15.196738    0.364712   -1.606435
    122          1           0       16.032933   -2.537839   -0.231840
    123          1           0       14.905555   -2.467311   -1.565987
    124          1           0       16.673499   -1.711746   -1.551231
    125          1           0       15.818087    1.554035    0.440399
    126          1           0       16.322256    0.136566    1.371013
    127          1           0       18.321962   -0.338916   -0.171979
    128          1           0       17.963340    0.878066   -1.335757
    129          1           0       18.392564    2.391810    1.031570
    130          1           0       18.867330    0.722998    1.683324
    131          1           0       20.383336    0.459349    0.031435
    132          1           0       19.786886    3.057804   -1.180098
    133          1           0       21.415423    2.331314   -1.483035
    134          1           0       19.935381    1.596227   -1.873753
    135          1           0       21.346716    1.357887    2.217090
    136          1           0       22.205487    2.387170    0.939900
    137          1           0       20.645857    3.045720    1.712217
 ---------------------------------------------------------------------

 SCF Done:  E(RCAM-B3LYP) =  -2932.52335132     A.U. after   16 cycles

 Excitation energies and oscillator strengths:

 Excited State   1:      Singlet-A      1.9181 eV  646.39 nm  f=0.2765  <S**2>=0.000
     240 -> 243        0.21475
     241 -> 242        0.66394
 This state for optimization and/or second-order correction.
 Total Energy, E(TD-HF/TD-KS) =  -2932.45286193
 Copying the excited state density for this state as the 1-particle RhoCI density.

 The electronic state is 1-A.
 Alpha  occ. eigenvalues --  -46.83555 -19.25695 -19.25272 -19.23170 -19.22145
 Alpha  occ. eigenvalues --  -19.20530 -14.41389 -14.39904 -14.39660 -14.38761
 Alpha  occ. eigenvalues --  -10.40177 -10.39517 -10.35325 -10.33824 -10.32186
 Alpha  occ. eigenvalues --  -10.31228 -10.30120 -10.29775 -10.29718 -10.29613
 Alpha  occ. eigenvalues --  -10.29495 -10.29236 -10.29229 -10.28858 -10.28834
 Alpha  occ. eigenvalues --  -10.28815 -10.28791 -10.28537 -10.28381 -10.28148
 Alpha  occ. eigenvalues --  -10.27820 -10.27399 -10.27347 -10.27318 -10.27306
 Alpha  occ. eigenvalues --  -10.27297 -10.27223 -10.27142 -10.27087 -10.27052
 Alpha  occ. eigenvalues --  -10.26859 -10.26725 -10.26690 -10.26639 -10.26582
 Alpha  occ. eigenvalues --  -10.26565 -10.26437 -10.26208 -10.26163 -10.26092
 Alpha  occ. eigenvalues --  -10.26001 -10.25880 -10.25854 -10.25743 -10.25603
 Alpha  occ. eigenvalues --  -10.25533 -10.25102 -10.25044 -10.25014 -10.23952
 Alpha  occ. eigenvalues --  -10.23941 -10.23870 -10.23564 -10.23354 -10.22123
 Alpha  occ. eigenvalues --   -3.12821  -1.87505  -1.87065  -1.87029  -1.17040
 Alpha  occ. eigenvalues --   -1.16680  -1.11693  -1.09588  -1.08917  -1.05679
 Alpha  occ. eigenvalues --   -1.05185  -1.01973  -1.01124  -0.93152  -0.92232
 Alpha  occ. eigenvalues --   -0.91108  -0.90481  -0.89846  -0.89667  -0.89599
 Alpha  occ. eigenvalues --   -0.88923  -0.88637  -0.88342  -0.87929  -0.86055
 Alpha  occ. eigenvalues --   -0.84952  -0.84319  -0.83523  -0.83267  -0.83222
 Alpha  occ. eigenvalues --   -0.81270  -0.80381  -0.80167  -0.79956  -0.78408
 Alpha  occ. eigenvalues --   -0.77914  -0.76946  -0.76834  -0.75904  -0.75376
 Alpha  occ. eigenvalues --   -0.74923  -0.74328  -0.74275  -0.73784  -0.72956
 Alpha  occ. eigenvalues --   -0.72147  -0.70302  -0.69878  -0.68847  -0.68756
 Alpha  occ. eigenvalues --   -0.66700  -0.66309  -0.65881  -0.65599  -0.64977
 Alpha  occ. eigenvalues --   -0.63962  -0.63648  -0.63565  -0.62857  -0.61863
 Alpha  occ. eigenvalues --   -0.61469  -0.61052  -0.60844  -0.60327  -0.59898
 Alpha  occ. eigenvalues --   -0.59425  -0.58893  -0.57566  -0.57064  -0.56829
 Alpha  occ. eigenvalues --   -0.56003  -0.55624  -0.55450  -0.55291  -0.54706
 Alpha  occ. eigenvalues --   -0.54674  -0.54159  -0.53894  -0.53806  -0.53360
 Alpha  occ. eigenvalues --   -0.53297  -0.52926  -0.52604  -0.52334  -0.51803
 Alpha  occ. eigenvalues --   -0.51618  -0.51224  -0.51193  -0.51112  -0.50732
 Alpha  occ. eigenvalues --   -0.50534  -0.50212  -0.50136  -0.49802  -0.49569
 Alpha  occ. eigenvalues --   -0.49297  -0.49177  -0.49108  -0.48800  -0.48401
 Alpha  occ. eigenvalues --   -0.48275  -0.48185  -0.47859  -0.47617  -0.47408
 Alpha  occ. eigenvalues --   -0.47047  -0.46690  -0.46506  -0.46348  -0.45997
 Alpha  occ. eigenvalues --   -0.45481  -0.45353  -0.45209  -0.44910  -0.44777
 Alpha  occ. eigenvalues --   -0.44511  -0.44404  -0.44035  -0.43900  -0.43770
 Alpha  occ. eigenvalues --   -0.43742  -0.43542  -0.43314  -0.43116  -0.43049
 Alpha  occ. eigenvalues --   -0.42928  -0.42744  -0.42613  -0.42535  -0.42306
 Alpha  occ. eigenvalues --   -0.42108  -0.41824  -0.41576  -0.41323  -0.41162
 Alpha  occ. eigenvalues --   -0.41105  -0.40938  -0.40875  -0.40813  -0.40672
 Alpha  occ. eigenvalues --   -0.40501  -0.40290  -0.40085  -0.39935  -0.39701
 Alpha  occ. eigenvalues --   -0.39249  -0.38936  -0.38783  -0.38374  -0.37808
 Alpha  occ. eigenvalues --   -0.37713  -0.37276  -0.37129  -0.36961  -0.36774
 Alpha  occ. eigenvalues --   -0.36417  -0.36368  -0.36128  -0.35574  -0.35416
 Alpha  occ. eigenvalues --   -0.35253  -0.34867  -0.34631  -0.34562  -0.34429
 Alpha  occ. eigenvalues --   -0.33536  -0.33124  -0.32113  -0.31685  -0.30664
 Alpha  occ. eigenvalues --   -0.30047  -0.29681  -0.29125  -0.26926  -0.23182
 Alpha  occ. eigenvalues --   -0.21410
 Alpha virt. eigenvalues --   -0.07504  -0.03145   0.00904   0.03180   0.04240
 Alpha virt. eigenvalues --    0.05102   0.05709   0.06284   0.06742   0.07099
 Alpha virt. eigenvalues --    0.08327   0.09295   0.10710   0.10863   0.11141

 Mulliken charges:
               1
     1  Mg   0.813451
     2  C    0.047387
     3  C   -0.203607
     4  C   -0.188410
     5  C   -0.144442
     6  N   -0.642983
     7  C    0.311480
     8  C   -0.146492
     9  C   -0.157402
    10  C    0.310543
    11  C   -0.287740
    12  C   -0.173872
    13  C   -0.273541
    14  C    0.617367
    15  O   -0.450065
    16  O   -0.506385
    17  N   -0.686952
    18  C    0.324623
    19  C    0.017334
    20  C   -0.015694
    21  C    0.310449
    22  C   -0.367890
    23  C   -0.103921
    24  C   -0.228542
    25  N   -0.661972
    26  C    0.253416
    27  C    0.064579
    28  C    0.012842
    29  C    0.271358
    30  C   -0.367752
    31  C   -0.233417
    32  C   -0.287260
    33  N   -0.707364
    34  C    0.252625
    35  C    0.068349
    36  C    0.039958
    37  C    0.274548
    38  C   -0.387532
    39  C    0.352117
    40  O   -0.450171
    41  C   -0.318699
    42  C    0.612379
    43  O   -0.439772
    44  O   -0.471051
    45  C   -0.076707
    46  C   -0.000541
    47  C   -0.126345
    48  C    0.141651
    49  C   -0.312642
    50  C   -0.213519
    51  C   -0.166795
    52  C   -0.180661
    53  C   -0.033086
    54  C   -0.301094
    55  C   -0.178462
    56  C   -0.182000
    57  C   -0.144588
    58  C   -0.049511
    59  C   -0.336841
    60  C   -0.172228
    61  C   -0.187589
    62  C   -0.163117
    63  C   -0.026740
    64  C   -0.336596
    65  C   -0.300015
    66  H    0.070792
    67  H    0.095155
    68  H    0.072697
    69  H    0.121317
    70  H    0.111558
    71  H    0.115654
    72  H    0.078890
    73  H    0.140402
    74  H    0.127235
    75  H    0.106902
    76  H    0.107241
    77  H    0.138968
    78  H    0.107684
    79  H    0.131916
    80  H    0.112333
    81  H    0.100130
    82  H    0.084581
    83  H    0.100299
    84  H    0.106032
    85  H    0.092999
    86  H    0.138425
    87  H    0.110494
    88  H    0.097549
    89  H    0.097695
    90  H    0.103354
    91  H    0.121791
    92  H    0.116151
    93  H    0.152823
    94  H    0.124581
    95  H    0.171753
    96  H    0.110180
    97  H    0.108939
    98  H    0.117185
    99  H    0.121334
   100  H    0.127853
   101  H    0.096269
   102  H    0.132469
   103  H    0.126019
   104  H    0.047728
   105  H    0.075483
   106  H    0.106480
   107  H    0.053102
   108  H    0.091894
   109  H    0.084974
   110  H    0.097988
   111  H    0.093736
   112  H    0.114493
   113  H    0.111877
   114  H    0.054850
   115  H    0.078687
   116  H    0.093939
   117  H    0.098343
   118  H    0.073472
   119  H    0.070229
   120  H    0.108949
   121  H    0.078669
   122  H    0.107115
   123  H    0.066356
   124  H    0.102482
   125  H    0.092528
   126  H    0.077316
   127  H    0.102614
   128  H    0.093126
   129  H    0.061971
   130  H    0.092659
   131  H    0.095420
   132  H    0.100557
   133  H    0.100142
   134  H    0.093203
   135  H    0.080976
   136  H    0.092279
   137  H    0.104269
 Sum of Mulliken charges =   0.00000

 Dipole moment (field-independent basis, Debye):
    X=              1.0566    Y=              3.9333    Z=              0.3072  Tot=              4.0843
 Quadrupole moment (field-independent basis, Debye-Ang):
   XX=           -325.1400   YY=           -401.6061   ZZ=           -403.1047
   XY=            -19.0369   XZ=              8.7650   YZ=             -4.3977

 Normal termination of Gaussian 09 at Sun Jun 30 21:57:30 2019.
