 Gaussian 09, Revision D.01,
 Gaussian 09:  ES64L-G09RevD.01 24-Apr-2013

 -------------------------------------
 # td=(NStates=1) CAM-B3LYP/6-31G(d,p)
 -------------------------------------

 --
 TD
 --
 Symbolic Z-matrix:
 Charge =  0 Multiplicity = 1

                         Standard orientation:
 ---------------------------------------------------------------------
 Center     Atomic      Atomic             Coordinates (Angstroms)
 Number     Number       Type             X           Y           Z
 ---------------------------------------------------------------------
      1         12           0       -7.253562    0.583956    0.065886
      2          6           0       -4.767300   -1.860355    0.481272
      3          6           0       -4.782043    2.883026    1.215319
      4          6           0       -9.327224    3.134688   -0.395079
      5          6           0       -9.614702   -1.803377   -0.906294
      6          7           0       -5.093407    0.511014    0.757323
      7          6           0       -4.320603   -0.634260    0.866060
      8          6           0       -2.883786   -0.455868    1.299160
      9          6           0       -2.949364    1.102859    1.761141
     10          6           0       -4.313247    1.499159    1.139179
     11          6           0       -2.887593    1.152976    3.317100
     12          6           0       -2.008338   -0.583947    0.057198
     13          6           0       -0.574006   -0.403219    0.419128
     14          6           0        0.430031   -0.651388   -0.672312
     15          8           0        0.137018   -1.002537   -1.791567
     16          8           0        1.783972   -0.363648   -0.274460
     17          7           0       -7.105094    2.626981    0.354823
     18          6           0       -6.084372    3.346165    0.801182
     19          6           0       -6.501247    4.730189    0.951754
     20          6           0       -7.764281    4.804851    0.379528
     21          6           0       -8.142214    3.401608    0.108415
     22          6           0       -5.530080    5.885224    1.364031
     23          6           0       -8.649315    5.958010    0.281616
     24          6           0       -8.253834    7.318284    0.055942
     25          7           0       -9.142104    0.631402   -0.433465
     26          6           0       -9.840205    1.771167   -0.555038
     27          6           0      -11.245693    1.429251   -1.015696
     28          6           0      -11.182315    0.026467   -1.115838
     29          6           0       -9.942140   -0.429690   -0.811917
     30          6           0      -12.382571    2.372540   -1.459240
     31          6           0      -12.378190   -0.863959   -1.547180
     32          6           0      -12.317762   -1.162563   -3.126131
     33          7           0       -7.214333   -1.387271   -0.178109
     34          6           0       -8.276474   -2.238058   -0.597475
     35          6           0       -7.806573   -3.606296   -0.617218
     36          6           0       -6.552665   -3.497197   -0.265414
     37          6           0       -6.172462   -2.119118    0.064714
     38          6           0       -8.505408   -4.875522   -0.997258
     39          6           0       -5.376240   -4.321549    0.145915
     40          8           0       -5.243441   -5.491529    0.134187
     41          6           0       -4.161336   -3.265842    0.501890
     42          6           0       -3.615117   -3.648007    1.914967
     43          8           0       -3.810808   -3.038058    2.954430
     44          8           0       -2.848460   -4.771330    1.847397
     45          6           0       -2.228272   -5.096653    3.085548
     46          6           0        2.716857   -0.641364   -1.331695
     47          6           0        4.150745   -0.602798   -0.708111
     48          6           0        5.090006    0.315386   -1.059719
     49          6           0        5.009261    1.285448   -2.252316
     50          6           0        6.398927    0.358405   -0.244457
     51          6           0        7.647162   -0.038067   -1.104367
     52          6           0        9.019035   -0.039239   -0.083007
     53          6           0       10.161773   -0.428195   -0.899816
     54          6           0       10.149619   -1.862000   -1.340337
     55          6           0       11.454267   -0.095550   -0.025670
     56          6           0       12.872800   -0.444486   -0.549995
     57          6           0       14.016378   -0.205280    0.351625
     58          6           0       15.392008   -0.238548   -0.313275
     59          6           0       15.661148   -1.739417   -0.790923
     60          6           0       16.502333    0.359347    0.593824
     61          6           0       17.846641    0.432142   -0.110052
     62          6           0       18.862963    1.284445    0.798474
     63          6           0       20.325006    1.285577    0.180476
     64          6           0       20.325975    1.900534   -1.293944
     65          6           0       21.329236    2.018176    1.168328
     66          1           0       -4.147132    3.567932    1.767361
     67          1           0       -9.945541    3.873415   -0.529922
     68          1           0      -10.461908   -2.473692   -1.361014
     69          1           0       -2.200881   -1.303412    2.038782
     70          1           0       -2.173679    1.738591    1.315182
     71          1           0       -1.854905    0.711819    3.497880
     72          1           0       -3.193412    2.138703    3.648705
     73          1           0       -3.664443    0.676936    3.746153
     74          1           0       -1.988105   -1.602197   -0.293600
     75          1           0       -2.343615    0.152780   -0.689030
     76          1           0       -0.533557    0.476929    1.081120
     77          1           0       -0.243087   -1.091092    1.285853
     78          1           0       -4.921919    6.116242    0.649268
     79          1           0       -6.159850    6.628696    1.898042
     80          1           0       -4.923117    5.244194    2.014661
     81          1           0       -9.715500    5.685224    0.137568
     82          1           0       -8.854607    8.184650    0.079184
     83          1           0       -7.103515    7.648827   -0.113199
     84          1           0      -11.746963    3.230436   -2.143530
     85          1           0      -13.180988    1.825650   -1.959754
     86          1           0      -13.185911    2.969286   -0.625325
     87          1           0      -12.221638   -1.727505   -0.753708
     88          1           0      -13.382736   -0.384437   -1.393787
     89          1           0      -13.129472   -1.846686   -3.376517
     90          1           0      -12.672129    0.000225   -3.819116
     91          1           0      -11.413875   -1.510334   -3.621914
     92          1           0       -8.728073   -4.839742   -2.140998
     93          1           0       -7.699652   -5.741595   -0.777304
     94          1           0       -9.334331   -4.990877   -0.545615
     95          1           0       -3.447286   -3.476374   -0.219439
     96          1           0       -1.591227   -4.209702    3.539435
     97          1           0       -3.099963   -5.265309    3.977732
     98          1           0       -1.706803   -6.017539    2.989741
     99          1           0        2.674908   -1.872289   -1.496533
    100          1           0        2.895247    0.024385   -2.253691
    101          1           0        4.535872   -1.260834    0.197894
    102          1           0        4.120187    1.307225   -2.909137
    103          1           0        5.089536    2.335243   -1.841702
    104          1           0        5.973218    0.857362   -3.049632
    105          1           0        6.365494    1.375705    0.246209
    106          1           0        6.084699   -0.154727    0.702666
    107          1           0        7.665995   -1.160217   -1.672024
    108          1           0        7.832101    0.686293   -2.036240
    109          1           0        9.031030    0.852703    0.125896
    110          1           0        8.724580   -0.570841    0.618347
    111          1           0       10.284933    0.251259   -1.692952
    112          1           0        9.253730   -1.987569   -1.952769
    113          1           0       10.882509   -2.149665   -2.250874
    114          1           0        9.998877   -2.741737   -0.450398
    115          1           0       11.496219    1.031890    0.452619
    116          1           0       11.128987   -0.809280    0.867630
    117          1           0       12.829445   -1.437142   -0.772108
    118          1           0       13.057192    0.168670   -1.407216
    119          1           0       14.102926    0.823564    0.813867
    120          1           0       14.037986   -0.889138    1.235115
    121          1           0       15.346919    0.325882   -1.201925
    122          1           0       15.719367   -2.658731   -0.111633
    123          1           0       14.886439   -1.984373   -1.769004
    124          1           0       16.690603   -1.828820   -1.210598
    125          1           0       16.330606    1.373795    0.948718
    126          1           0       16.655225   -0.298074    1.392792
    127          1           0       18.422573   -0.614966   -0.157848
    128          1           0       17.725534    0.897128   -1.098526
    129          1           0       18.766183    2.302051    0.858598
    130          1           0       18.723433    0.956167    1.878210
    131          1           0       20.704508    0.222236    0.088529
    132          1           0       20.092597    3.029642   -0.879379
    133          1           0       21.474884    1.643308   -1.749551
    134          1           0       19.677702    1.527608   -1.885440
    135          1           0       20.952124    1.583590    2.297059
    136          1           0       22.445738    1.788721    0.798851
    137          1           0       20.919556    3.093736    1.084698
 ---------------------------------------------------------------------

 SCF Done:  E(RCAM-B3LYP) =  -2932.43476999     A.U. after   15 cycles

 Excitation energies and oscillator strengths:

 Excited State   1:      Singlet-A      2.1815 eV  568.35 nm  f=0.1579  <S**2>=0.000
     240 -> 243       -0.27088
     241 -> 242        0.63100
 This state for optimization and/or second-order correction.
 Total Energy, E(TD-HF/TD-KS) =  -2932.35460240
 Copying the excited state density for this state as the 1-particle RhoCI density.

 The electronic state is 1-A.
 Alpha  occ. eigenvalues --  -46.84657 -19.26813 -19.26091 -19.22320 -19.21186
 Alpha  occ. eigenvalues --  -19.21112 -14.42319 -14.40286 -14.39387 -14.39372
 Alpha  occ. eigenvalues --  -10.40264 -10.39523 -10.35416 -10.33278 -10.32723
 Alpha  occ. eigenvalues --  -10.32080 -10.30837 -10.30711 -10.29979 -10.29861
 Alpha  occ. eigenvalues --  -10.29752 -10.29457 -10.29434 -10.29414 -10.29047
 Alpha  occ. eigenvalues --  -10.28950 -10.28837 -10.28695 -10.28633 -10.28626
 Alpha  occ. eigenvalues --  -10.28538 -10.28537 -10.28415 -10.28405 -10.27895
 Alpha  occ. eigenvalues --  -10.27633 -10.27410 -10.27197 -10.27153 -10.27122
 Alpha  occ. eigenvalues --  -10.27064 -10.27062 -10.26974 -10.26584 -10.26495
 Alpha  occ. eigenvalues --  -10.26475 -10.26419 -10.26413 -10.26397 -10.26288
 Alpha  occ. eigenvalues --  -10.26183 -10.26147 -10.26080 -10.25847 -10.25845
 Alpha  occ. eigenvalues --  -10.25646 -10.25397 -10.25385 -10.25346 -10.25062
 Alpha  occ. eigenvalues --  -10.24422 -10.24361 -10.24356 -10.23581 -10.22270
 Alpha  occ. eigenvalues --   -3.13834  -1.88525  -1.88106  -1.87986  -1.18160
 Alpha  occ. eigenvalues --   -1.16599  -1.13681  -1.09296  -1.08990  -1.06023
 Alpha  occ. eigenvalues --   -1.05115  -1.04386  -1.03086  -0.91770  -0.91084
 Alpha  occ. eigenvalues --   -0.90739  -0.89870  -0.89507  -0.88833  -0.88648
 Alpha  occ. eigenvalues --   -0.88461  -0.87453  -0.87448  -0.86421  -0.85668
 Alpha  occ. eigenvalues --   -0.84375  -0.83970  -0.82701  -0.81850  -0.81163
 Alpha  occ. eigenvalues --   -0.80412  -0.80301  -0.79755  -0.78940  -0.77988
 Alpha  occ. eigenvalues --   -0.77719  -0.77029  -0.76189  -0.76092  -0.74766
 Alpha  occ. eigenvalues --   -0.74160  -0.73909  -0.73613  -0.73201  -0.72256
 Alpha  occ. eigenvalues --   -0.71283  -0.70164  -0.69339  -0.68726  -0.68264
 Alpha  occ. eigenvalues --   -0.67213  -0.66096  -0.65419  -0.65009  -0.64605
 Alpha  occ. eigenvalues --   -0.63989  -0.63211  -0.62752  -0.62408  -0.62348
 Alpha  occ. eigenvalues --   -0.61242  -0.60408  -0.60299  -0.59587  -0.58971
 Alpha  occ. eigenvalues --   -0.58063  -0.57913  -0.57557  -0.57208  -0.56466
 Alpha  occ. eigenvalues --   -0.56279  -0.55836  -0.55483  -0.54858  -0.54387
 Alpha  occ. eigenvalues --   -0.54306  -0.54132  -0.53936  -0.53711  -0.53462
 Alpha  occ. eigenvalues --   -0.52826  -0.52516  -0.52098  -0.51933  -0.51383
 Alpha  occ. eigenvalues --   -0.51225  -0.51188  -0.50943  -0.50641  -0.50375
 Alpha  occ. eigenvalues --   -0.50293  -0.50065  -0.49804  -0.49645  -0.49307
 Alpha  occ. eigenvalues --   -0.49000  -0.48776  -0.48751  -0.48498  -0.48253
 Alpha  occ. eigenvalues --   -0.48219  -0.47862  -0.47639  -0.47464  -0.47238
 Alpha  occ. eigenvalues --   -0.47097  -0.46507  -0.46341  -0.46197  -0.45895
 Alpha  occ. eigenvalues --   -0.45690  -0.45544  -0.45157  -0.45099  -0.44899
 Alpha  occ. eigenvalues --   -0.44880  -0.44448  -0.44302  -0.43909  -0.43708
 Alpha  occ. eigenvalues --   -0.43661  -0.43420  -0.43336  -0.42921  -0.42853
 Alpha  occ. eigenvalues --   -0.42716  -0.42396  -0.42279  -0.42149  -0.42108
 Alpha  occ. eigenvalues --   -0.41989  -0.41490  -0.41170  -0.41077  -0.40985
 Alpha  occ. eigenvalues --   -0.40936  -0.40764  -0.40405  -0.40149  -0.40023
 Alpha  occ. eigenvalues --   -0.39935  -0.39769  -0.39698  -0.39518  -0.39054
 Alpha  occ. eigenvalues --   -0.38895  -0.38317  -0.38021  -0.38007  -0.37615
 Alpha  occ. eigenvalues --   -0.37186  -0.37074  -0.37003  -0.36798  -0.36539
 Alpha  occ. eigenvalues --   -0.36135  -0.36063  -0.35704  -0.35542  -0.35366
 Alpha  occ. eigenvalues --   -0.35299  -0.34754  -0.34526  -0.34212  -0.33923
 Alpha  occ. eigenvalues --   -0.33412  -0.32497  -0.31948  -0.31384  -0.30568
 Alpha  occ. eigenvalues --   -0.29723  -0.28674  -0.27773  -0.27195  -0.23302
 Alpha  occ. eigenvalues --   -0.21480
 Alpha virt. eigenvalues --   -0.05755  -0.03490   0.01697   0.03450   0.04690
 Alpha virt. eigenvalues --    0.05701   0.05918   0.06147   0.06791   0.07117
 Alpha virt. eigenvalues --    0.07849   0.09352   0.10100   0.10355   0.10823

 Mulliken charges:
               1
     1  Mg   0.848871
     2  C    0.072216
     3  C   -0.241603
     4  C   -0.121874
     5  C   -0.159022
     6  N   -0.597096
     7  C    0.314849
     8  C   -0.151351
     9  C   -0.164768
    10  C    0.317400
    11  C   -0.282106
    12  C   -0.147363
    13  C   -0.291031
    14  C    0.629703
    15  O   -0.443978
    16  O   -0.497848
    17  N   -0.722532
    18  C    0.337413
    19  C   -0.052046
    20  C    0.016126
    21  C    0.371527
    22  C   -0.336075
    23  C   -0.107929
    24  C   -0.250304
    25  N   -0.739385
    26  C    0.266172
    27  C    0.001551
    28  C    0.007925
    29  C    0.328660
    30  C   -0.341819
    31  C   -0.236967
    32  C   -0.289717
    33  N   -0.734546
    34  C    0.204475
    35  C    0.041019
    36  C   -0.040698
    37  C    0.303834
    38  C   -0.358490
    39  C    0.376271
    40  O   -0.422583
    41  C   -0.325974
    42  C    0.618755
    43  O   -0.472633
    44  O   -0.438562
    45  C   -0.075244
    46  C    0.046200
    47  C   -0.144950
    48  C    0.101919
    49  C   -0.340720
    50  C   -0.223732
    51  C   -0.201469
    52  C   -0.117683
    53  C   -0.062998
    54  C   -0.305070
    55  C   -0.174932
    56  C   -0.163676
    57  C   -0.158387
    58  C   -0.059590
    59  C   -0.319460
    60  C   -0.177294
    61  C   -0.178925
    62  C   -0.177575
    63  C   -0.092873
    64  C   -0.265016
    65  C   -0.280208
    66  H    0.080759
    67  H    0.059072
    68  H    0.124254
    69  H    0.093784
    70  H    0.114047
    71  H    0.109504
    72  H    0.104477
    73  H    0.141042
    74  H    0.124091
    75  H    0.120993
    76  H    0.136202
    77  H    0.122011
    78  H    0.141647
    79  H    0.127666
    80  H    0.105710
    81  H    0.102265
    82  H    0.119716
    83  H    0.098023
    84  H    0.096213
    85  H    0.123883
    86  H    0.072683
    87  H    0.098795
    88  H    0.110526
    89  H    0.114918
    90  H    0.048731
    91  H    0.125646
    92  H    0.113909
    93  H    0.139132
    94  H    0.132618
    95  H    0.163441
    96  H    0.112079
    97  H    0.102093
    98  H    0.131763
    99  H    0.097061
   100  H    0.112224
   101  H    0.075375
   102  H    0.116396
   103  H    0.117602
   104  H    0.084150
   105  H    0.102001
   106  H    0.099970
   107  H    0.078227
   108  H    0.088752
   109  H    0.105296
   110  H    0.102982
   111  H    0.094557
   112  H    0.105429
   113  H    0.091434
   114  H    0.084525
   115  H    0.057571
   116  H    0.059744
   117  H    0.115832
   118  H    0.087306
   119  H    0.070946
   120  H    0.084741
   121  H    0.090844
   122  H    0.099836
   123  H    0.071373
   124  H    0.097184
   125  H    0.099261
   126  H    0.104668
   127  H    0.084751
   128  H    0.094975
   129  H    0.092042
   130  H    0.082603
   131  H    0.072896
   132  H    0.075295
   133  H    0.073782
   134  H    0.124150
   135  H    0.081438
   136  H    0.102089
   137  H    0.092220
 Sum of Mulliken charges =   0.00000

 Dipole moment (field-independent basis, Debye):
    X=              0.6128    Y=              3.6312    Z=              0.2342  Tot=              3.6900
 Quadrupole moment (field-independent basis, Debye-Ang):
   XX=           -365.4517   YY=           -394.5779   ZZ=           -400.1670
   XY=            -16.0976   XZ=              7.2779   YZ=             -1.0121

 Normal termination of Gaussian 09 at Fri Jun 28 15:08:48 2019.
