 Gaussian 09, Revision D.01,
 Gaussian 09:  ES64L-G09RevD.01 24-Apr-2013

 -------------------------------------
 # td=(NStates=1) CAM-B3LYP/6-31G(d,p)
 -------------------------------------

 --
 TD
 --
 Symbolic Z-matrix:
 Charge =  0 Multiplicity = 1

                         Standard orientation:
 ---------------------------------------------------------------------
 Center     Atomic      Atomic             Coordinates (Angstroms)
 Number     Number       Type             X           Y           Z
 ---------------------------------------------------------------------
      1         12           0       -7.116760    0.546861    0.163988
      2          6           0       -4.838674   -2.016458    0.485160
      3          6           0       -4.815062    2.738556    1.270230
      4          6           0       -9.390286    3.047492   -0.333211
      5          6           0       -9.546263   -1.861736   -0.775145
      6          7           0       -5.140217    0.367096    0.695740
      7          6           0       -4.291412   -0.759245    0.810056
      8          6           0       -2.914478   -0.454595    1.279446
      9          6           0       -3.045221    1.056339    1.650686
     10          6           0       -4.452242    1.418401    1.202811
     11          6           0       -2.952389    1.305143    3.240529
     12          6           0       -1.818499   -0.723213    0.191355
     13          6           0       -0.395518   -0.478527    0.526918
     14          6           0        0.516348   -0.487917   -0.640308
     15          8           0        0.223014   -0.750083   -1.788432
     16          8           0        1.764818   -0.337128   -0.266963
     17          7           0       -7.125877    2.633946    0.420047
     18          6           0       -6.069262    3.409099    0.832949
     19          6           0       -6.456547    4.791982    0.917841
     20          6           0       -7.739051    4.781142    0.428323
     21          6           0       -8.094093    3.411666    0.074037
     22          6           0       -5.625877    6.006974    1.413112
     23          6           0       -8.670759    6.004869    0.203743
     24          6           0       -8.129224    7.201893    0.197225
     25          7           0       -9.103753    0.681972   -0.484563
     26          6           0       -9.904489    1.826544   -0.661504
     27          6           0      -11.227293    1.538017   -1.166149
     28          6           0      -11.271030    0.057241   -1.234756
     29          6           0       -9.903362   -0.382699   -0.756505
     30          6           0      -12.319676    2.478026   -1.487978
     31          6           0      -12.434122   -0.794624   -1.638868
     32          6           0      -12.298952   -1.229116   -3.118863
     33          7           0       -7.235437   -1.408497   -0.013687
     34          6           0       -8.311720   -2.312181   -0.507858
     35          6           0       -7.826129   -3.714667   -0.563238
     36          6           0       -6.431219   -3.538594   -0.214795
     37          6           0       -6.113314   -2.228837    0.052786
     38          6           0       -8.596415   -4.794683   -0.909121
     39          6           0       -5.280175   -4.398242    0.016704
     40          8           0       -5.167084   -5.530059   -0.060846
     41          6           0       -4.193571   -3.384677    0.504855
     42          6           0       -3.555632   -3.709577    1.798474
     43          8           0       -3.853594   -3.201776    2.869601
     44          8           0       -2.830129   -4.810969    1.759066
     45          6           0       -2.252231   -5.298125    2.889037
     46          6           0        2.766867   -0.457853   -1.312893
     47          6           0        4.052843   -0.325141   -0.673079
     48          6           0        5.096981    0.564841   -0.926631
     49          6           0        5.020710    1.692689   -2.127078
     50          6           0        6.438654    0.547919   -0.199897
     51          6           0        7.637731   -0.062358   -0.992875
     52          6           0        8.927935   -0.061330   -0.092657
     53          6           0       10.173464   -0.490568   -0.940785
     54          6           0       10.068200   -1.951805   -1.392113
     55          6           0       11.430987   -0.206658    0.061379
     56          6           0       12.816702   -0.393246   -0.611898
     57          6           0       13.977178   -0.133476    0.193299
     58          6           0       15.289636   -0.270955   -0.488853
     59          6           0       15.731122   -1.753807   -0.935885
     60          6           0       16.480931    0.297764    0.452803
     61          6           0       17.836937    0.527698   -0.197190
     62          6           0       18.924529    1.055317    0.812137
     63          6           0       20.236208    1.253059    0.240170
     64          6           0       20.302612    2.143097   -1.001331
     65          6           0       21.259167    1.679294    1.276836
     66          1           0       -4.062368    3.364804    1.694045
     67          1           0      -10.090185    3.853257   -0.549689
     68          1           0      -10.444034   -2.520288   -0.808050
     69          1           0       -2.831478   -0.933130    2.257755
     70          1           0       -2.184130    1.707783    1.170476
     71          1           0       -1.850360    1.119047    3.521951
     72          1           0       -3.069405    2.292249    3.547356
     73          1           0       -3.682518    0.607369    3.678135
     74          1           0       -1.869698   -1.755702   -0.314028
     75          1           0       -1.901108   -0.241697   -0.771431
     76          1           0       -0.369449    0.611279    0.961747
     77          1           0       -0.086727   -1.293814    1.289517
     78          1           0       -5.147228    6.570115    0.620133
     79          1           0       -6.443012    6.571560    2.111870
     80          1           0       -5.128927    5.466733    2.219234
     81          1           0       -9.698948    5.653812    0.121351
     82          1           0       -8.728472    8.129612   -0.046220
     83          1           0       -7.047177    7.383644    0.155742
     84          1           0      -12.228509    2.997180   -2.472236
     85          1           0      -13.285106    2.007335   -1.502517
     86          1           0      -12.311140    3.322474   -0.664977
     87          1           0      -12.431663   -1.603885   -0.949109
     88          1           0      -13.371869   -0.363453   -1.674875
     89          1           0      -13.081099   -1.816476   -3.375551
     90          1           0      -12.422423   -0.209853   -3.622104
     91          1           0      -11.243892   -1.456883   -3.322137
     92          1           0       -8.900233   -5.097640   -1.952097
     93          1           0       -7.953546   -5.784011   -0.734668
     94          1           0       -9.549627   -4.847008   -0.309773
     95          1           0       -3.435522   -3.666747   -0.411950
     96          1           0       -1.820300   -4.479319    3.525944
     97          1           0       -2.889158   -5.792876    3.470870
     98          1           0       -1.423425   -6.099275    2.669828
     99          1           0        2.671389   -1.360716   -1.908583
    100          1           0        2.664199    0.461290   -2.071432
    101          1           0        4.308340   -0.936107    0.312281
    102          1           0        4.038178    2.016491   -2.433857
    103          1           0        5.413115    2.675742   -1.687385
    104          1           0        5.542776    1.459563   -3.111097
    105          1           0        6.737383    1.602842    0.000734
    106          1           0        6.196081    0.147549    0.593077
    107          1           0        7.333610   -1.280892   -1.235173
    108          1           0        7.756498    0.379799   -2.040001
    109          1           0        8.971985    0.888967    0.356987
    110          1           0        8.788018   -0.812702    0.854535
    111          1           0       10.202418    0.340694   -1.533209
    112          1           0        9.043717   -2.141519   -1.885834
    113          1           0       10.940340   -2.320119   -2.028786
    114          1           0       10.017152   -2.579621   -0.385265
    115          1           0       11.478613    0.805975    0.329429
    116          1           0       11.339625   -0.956600    0.823043
    117          1           0       12.923199   -1.410183   -0.984780
    118          1           0       12.979489    0.043863   -1.538710
    119          1           0       14.000150    0.873506    0.410882
    120          1           0       13.881236   -0.743696    1.109920
    121          1           0       15.287344    0.435208   -1.332761
    122          1           0       16.131506   -2.324295    0.002720
    123          1           0       15.115692   -2.259830   -1.606217
    124          1           0       16.728457   -1.827216   -1.517663
    125          1           0       16.254852    1.215942    1.058615
    126          1           0       16.423501   -0.339310    1.438508
    127          1           0       18.233718   -0.493361   -0.758930
    128          1           0       17.602541    1.081306   -0.977220
    129          1           0       18.411360    1.860027    1.155633
    130          1           0       19.081575    0.275361    1.692886
    131          1           0       20.673130    0.249357   -0.214710
    132          1           0       20.077081    3.318051   -0.836276
    133          1           0       21.310966    2.249170   -1.452830
    134          1           0       19.465912    1.824236   -1.764092
    135          1           0       21.419474    0.876473    2.177423
    136          1           0       22.205914    1.870690    0.758979
    137          1           0       20.944786    2.733121    1.575965
 ---------------------------------------------------------------------

 SCF Done:  E(RCAM-B3LYP) =  -2932.68335934     A.U. after   18 cycles

 Excitation energies and oscillator strengths:

 Excited State   1:      Singlet-A      1.9877 eV  623.77 nm  f=0.2415  <S**2>=0.000
     240 -> 242       -0.12345
     240 -> 243        0.21484
     241 -> 242        0.64717
     241 -> 243        0.11358
 This state for optimization and/or second-order correction.
 Total Energy, E(TD-HF/TD-KS) =  -2932.61031448
 Copying the excited state density for this state as the 1-particle RhoCI density.

 The electronic state is 1-A.
 Alpha  occ. eigenvalues --  -46.83604 -19.26695 -19.26409 -19.21281 -19.20567
 Alpha  occ. eigenvalues --  -19.20162 -14.41550 -14.39396 -14.39209 -14.38521
 Alpha  occ. eigenvalues --  -10.39089 -10.38904 -10.34919 -10.32906 -10.31691
 Alpha  occ. eigenvalues --  -10.30680 -10.30176 -10.29671 -10.29642 -10.29599
 Alpha  occ. eigenvalues --  -10.29433 -10.29234 -10.28816 -10.28783 -10.28467
 Alpha  occ. eigenvalues --  -10.28423 -10.28337 -10.28303 -10.28110 -10.27982
 Alpha  occ. eigenvalues --  -10.27596 -10.27462 -10.27327 -10.27061 -10.27025
 Alpha  occ. eigenvalues --  -10.27002 -10.26965 -10.26884 -10.26864 -10.26850
 Alpha  occ. eigenvalues --  -10.26790 -10.26762 -10.26725 -10.26442 -10.26394
 Alpha  occ. eigenvalues --  -10.26298 -10.26277 -10.26140 -10.26015 -10.25838
 Alpha  occ. eigenvalues --  -10.25792 -10.25696 -10.25627 -10.25624 -10.25622
 Alpha  occ. eigenvalues --  -10.25341 -10.25260 -10.25173 -10.25153 -10.25114
 Alpha  occ. eigenvalues --  -10.25033 -10.24809 -10.24518 -10.23180 -10.22928
 Alpha  occ. eigenvalues --   -3.12702  -1.87402  -1.86942  -1.86891  -1.20344
 Alpha  occ. eigenvalues --   -1.19714  -1.16324  -1.09166  -1.09033  -1.04428
 Alpha  occ. eigenvalues --   -1.03277  -1.01575  -1.00732  -0.92980  -0.91077
 Alpha  occ. eigenvalues --   -0.90601  -0.90155  -0.89751  -0.88676  -0.88192
 Alpha  occ. eigenvalues --   -0.88107  -0.87816  -0.87608  -0.86661  -0.86224
 Alpha  occ. eigenvalues --   -0.84957  -0.84624  -0.84043  -0.83654  -0.82436
 Alpha  occ. eigenvalues --   -0.81841  -0.80819  -0.80307  -0.79329  -0.78287
 Alpha  occ. eigenvalues --   -0.77002  -0.76607  -0.75934  -0.75879  -0.75337
 Alpha  occ. eigenvalues --   -0.75002  -0.74649  -0.74406  -0.73623  -0.72191
 Alpha  occ. eigenvalues --   -0.71259  -0.70757  -0.69557  -0.69211  -0.67557
 Alpha  occ. eigenvalues --   -0.66800  -0.65980  -0.65154  -0.64955  -0.64706
 Alpha  occ. eigenvalues --   -0.64041  -0.63911  -0.63165  -0.63153  -0.61940
 Alpha  occ. eigenvalues --   -0.61846  -0.60675  -0.60374  -0.59956  -0.59185
 Alpha  occ. eigenvalues --   -0.58637  -0.58097  -0.57501  -0.57472  -0.56777
 Alpha  occ. eigenvalues --   -0.56049  -0.55765  -0.55593  -0.55238  -0.54957
 Alpha  occ. eigenvalues --   -0.54865  -0.54262  -0.54006  -0.53613  -0.53257
 Alpha  occ. eigenvalues --   -0.53147  -0.52801  -0.52503  -0.52345  -0.52101
 Alpha  occ. eigenvalues --   -0.51768  -0.51435  -0.51132  -0.50848  -0.50601
 Alpha  occ. eigenvalues --   -0.50297  -0.50107  -0.49907  -0.49613  -0.49331
 Alpha  occ. eigenvalues --   -0.48998  -0.48902  -0.48617  -0.48389  -0.48165
 Alpha  occ. eigenvalues --   -0.48099  -0.47964  -0.47632  -0.47364  -0.47285
 Alpha  occ. eigenvalues --   -0.47113  -0.46876  -0.46848  -0.46290  -0.46125
 Alpha  occ. eigenvalues --   -0.45907  -0.45680  -0.45349  -0.44862  -0.44605
 Alpha  occ. eigenvalues --   -0.44515  -0.44314  -0.44150  -0.44102  -0.44064
 Alpha  occ. eigenvalues --   -0.43773  -0.43392  -0.43222  -0.42902  -0.42763
 Alpha  occ. eigenvalues --   -0.42474  -0.42300  -0.42179  -0.42020  -0.41949
 Alpha  occ. eigenvalues --   -0.41788  -0.41581  -0.41482  -0.41447  -0.41346
 Alpha  occ. eigenvalues --   -0.41284  -0.41199  -0.40778  -0.40696  -0.40399
 Alpha  occ. eigenvalues --   -0.40223  -0.40156  -0.40017  -0.39557  -0.39171
 Alpha  occ. eigenvalues --   -0.38868  -0.38363  -0.37688  -0.37556  -0.37446
 Alpha  occ. eigenvalues --   -0.37202  -0.36972  -0.36796  -0.36559  -0.36289
 Alpha  occ. eigenvalues --   -0.36237  -0.36115  -0.36023  -0.35736  -0.35567
 Alpha  occ. eigenvalues --   -0.35081  -0.35022  -0.34846  -0.33915  -0.33531
 Alpha  occ. eigenvalues --   -0.33462  -0.33298  -0.32096  -0.30670  -0.30065
 Alpha  occ. eigenvalues --   -0.29592  -0.28798  -0.27578  -0.26699  -0.23092
 Alpha  occ. eigenvalues --   -0.20532
 Alpha virt. eigenvalues --   -0.06402  -0.03169   0.02016   0.04740   0.05110
 Alpha virt. eigenvalues --    0.05632   0.06308   0.06820   0.06967   0.08116
 Alpha virt. eigenvalues --    0.08491   0.10345   0.11060   0.11551   0.11803

 Mulliken charges:
               1
     1  Mg   0.813363
     2  C    0.065591
     3  C   -0.211721
     4  C   -0.175363
     5  C   -0.197952
     6  N   -0.659843
     7  C    0.287282
     8  C   -0.135397
     9  C   -0.175492
    10  C    0.391451
    11  C   -0.312146
    12  C   -0.195982
    13  C   -0.257305
    14  C    0.612566
    15  O   -0.487169
    16  O   -0.456599
    17  N   -0.672129
    18  C    0.260306
    19  C   -0.013425
    20  C   -0.041879
    21  C    0.337385
    22  C   -0.366385
    23  C   -0.015898
    24  C   -0.265980
    25  N   -0.672567
    26  C    0.278200
    27  C    0.048986
    28  C   -0.027287
    29  C    0.282354
    30  C   -0.379419
    31  C   -0.237130
    32  C   -0.310484
    33  N   -0.744058
    34  C    0.263587
    35  C    0.153943
    36  C   -0.059903
    37  C    0.342765
    38  C   -0.450572
    39  C    0.361899
    40  O   -0.391692
    41  C   -0.352135
    42  C    0.629261
    43  O   -0.491969
    44  O   -0.412613
    45  C   -0.083836
    46  C    0.016575
    47  C   -0.123964
    48  C    0.072807
    49  C   -0.371815
    50  C   -0.180338
    51  C   -0.170340
    52  C   -0.170889
    53  C   -0.054029
    54  C   -0.301287
    55  C   -0.174657
    56  C   -0.200494
    57  C   -0.142447
    58  C   -0.066787
    59  C   -0.318295
    60  C   -0.197291
    61  C   -0.170893
    62  C   -0.139015
    63  C   -0.040391
    64  C   -0.309038
    65  C   -0.295302
    66  H    0.070110
    67  H    0.078107
    68  H    0.106228
    69  H    0.151098
    70  H    0.096299
    71  H    0.092136
    72  H    0.122091
    73  H    0.128965
    74  H    0.107279
    75  H    0.137260
    76  H    0.120186
    77  H    0.134597
    78  H    0.139145
    79  H    0.117608
    80  H    0.122883
    81  H    0.092594
    82  H    0.090593
    83  H    0.109585
    84  H    0.125289
    85  H    0.122899
    86  H    0.103098
    87  H    0.102954
    88  H    0.109980
    89  H    0.112729
    90  H    0.095368
    91  H    0.118998
    92  H    0.146810
    93  H    0.137592
    94  H    0.130131
    95  H    0.141152
    96  H    0.114467
    97  H    0.134714
    98  H    0.103954
    99  H    0.146850
   100  H    0.111691
   101  H    0.080216
   102  H    0.115762
   103  H    0.102588
   104  H    0.117043
   105  H    0.094710
   106  H    0.102538
   107  H    0.060903
   108  H    0.100332
   109  H    0.101115
   110  H    0.066766
   111  H    0.097585
   112  H    0.105369
   113  H    0.108917
   114  H    0.091430
   115  H    0.095233
   116  H    0.095187
   117  H    0.082576
   118  H    0.083576
   119  H    0.094327
   120  H    0.082741
   121  H    0.081718
   122  H    0.098657
   123  H    0.110985
   124  H    0.089017
   125  H    0.077911
   126  H    0.068769
   127  H    0.059182
   128  H    0.112055
   129  H    0.103147
   130  H    0.080994
   131  H    0.076032
   132  H    0.067787
   133  H    0.106016
   134  H    0.097087
   135  H    0.085824
   136  H    0.099870
   137  H    0.093874
 Sum of Mulliken charges =   0.00000

 Dipole moment (field-independent basis, Debye):
    X=              1.6714    Y=              2.2844    Z=             -0.2901  Tot=              2.8454
 Quadrupole moment (field-independent basis, Debye-Ang):
   XX=           -345.3731   YY=           -388.6267   ZZ=           -400.3697
   XY=              4.2834   XZ=              9.2022   YZ=             -2.3806

 Normal termination of Gaussian 09 at Fri Jun 28 16:48:27 2019.
