 Gaussian 09, Revision D.01,
 Gaussian 09:  ES64L-G09RevD.01 24-Apr-2013

 -------------------------------------
 # td=(NStates=1) CAM-B3LYP/6-31G(d,p)
 -------------------------------------

 --
 TD
 --
 Symbolic Z-matrix:
 Charge =  0 Multiplicity = 1

                         Standard orientation:
 ---------------------------------------------------------------------
 Center     Atomic      Atomic             Coordinates (Angstroms)
 Number     Number       Type             X           Y           Z
 ---------------------------------------------------------------------
      1         12           0       -7.183640    0.574729    0.196819
      2          6           0       -4.805426   -1.965035    0.542313
      3          6           0       -4.889063    2.910317    1.302460
      4          6           0       -9.364837    3.189977   -0.414976
      5          6           0       -9.489864   -1.731562   -0.805759
      6          7           0       -5.125101    0.488145    0.695819
      7          6           0       -4.370973   -0.681040    0.824606
      8          6           0       -2.925147   -0.480270    1.228269
      9          6           0       -3.018198    1.065699    1.651059
     10          6           0       -4.406938    1.534430    1.053597
     11          6           0       -2.832310    1.204557    3.106610
     12          6           0       -2.018324   -0.745095    0.114097
     13          6           0       -0.520092   -0.574243    0.500668
     14          6           0        0.502940   -0.810022   -0.617385
     15          8           0        0.253923   -1.219416   -1.774852
     16          8           0        1.818568   -0.621066   -0.164019
     17          7           0       -7.080696    2.610320    0.431034
     18          6           0       -6.110060    3.402584    0.848122
     19          6           0       -6.483176    4.768542    0.960494
     20          6           0       -7.751517    4.886114    0.436857
     21          6           0       -8.124756    3.531940    0.170919
     22          6           0       -5.523784    5.919246    1.481724
     23          6           0       -8.658854    6.058154    0.101028
     24          6           0       -8.213643    7.362420    0.335508
     25          7           0       -9.037260    0.698418   -0.399770
     26          6           0       -9.789764    1.846064   -0.662290
     27          6           0      -10.985627    1.478661   -1.193169
     28          6           0      -11.094938    0.153180   -1.329138
     29          6           0       -9.940657   -0.417919   -0.757498
     30          6           0      -12.055182    2.491370   -1.603237
     31          6           0      -12.312114   -0.691100   -1.762260
     32          6           0      -12.166164   -1.076335   -3.198891
     33          7           0       -7.228427   -1.362409   -0.106872
     34          6           0       -8.263742   -2.200196   -0.407571
     35          6           0       -7.841857   -3.657746   -0.469804
     36          6           0       -6.553541   -3.528731   -0.022433
     37          6           0       -6.183744   -2.215494    0.082439
     38          6           0       -8.669908   -4.819913   -0.780310
     39          6           0       -5.271485   -4.407001    0.214079
     40          8           0       -5.165606   -5.647689    0.014197
     41          6           0       -4.165262   -3.318470    0.521650
     42          6           0       -3.463875   -3.729746    1.875054
     43          8           0       -3.684440   -3.058664    2.936300
     44          8           0       -2.615667   -4.740559    1.713188
     45          6           0       -2.092524   -5.274970    2.945179
     46          6           0        2.849645   -0.843635   -1.201875
     47          6           0        4.141298   -0.427279   -0.514373
     48          6           0        4.998849    0.331497   -1.091180
     49          6           0        4.907296    1.123429   -2.406008
     50          6           0        6.343092    0.445304   -0.410528
     51          6           0        7.600791   -0.106958   -1.118724
     52          6           0        8.902304   -0.030591   -0.277575
     53          6           0       10.204050   -0.468418   -0.945781
     54          6           0        9.985427   -2.010126   -1.165697
     55          6           0       11.447041   -0.225918   -0.048977
     56          6           0       12.802356   -0.520415   -0.665137
     57          6           0       13.942333   -0.104905    0.227787
     58          6           0       15.284436   -0.273814   -0.403950
     59          6           0       15.729259   -1.811968   -0.647780
     60          6           0       16.356401    0.411807    0.453877
     61          6           0       17.753916    0.556939   -0.153484
     62          6           0       18.748096    1.319922    0.594303
     63          6           0       20.201529    1.484810    0.245852
     64          6           0       20.298634    2.182846   -1.134019
     65          6           0       20.993406    2.084426    1.350383
     66          1           0       -4.203937    3.548761    1.609281
     67          1           0      -10.165657    3.945242   -0.412257
     68          1           0      -10.390627   -2.452093   -0.895603
     69          1           0       -2.846568   -0.996194    2.204998
     70          1           0       -2.288080    1.536211    1.033521
     71          1           0       -1.898585    0.858901    3.613432
     72          1           0       -2.820761    2.293607    3.525652
     73          1           0       -3.602177    0.690871    3.637218
     74          1           0       -2.186408   -1.703586   -0.530286
     75          1           0       -2.286920   -0.052616   -0.998840
     76          1           0       -0.327816    0.354873    0.892979
     77          1           0       -0.186522   -1.262631    1.169711
     78          1           0       -4.695245    6.268054    0.763538
     79          1           0       -5.982399    6.862206    1.743931
     80          1           0       -5.021992    5.553815    2.435152
     81          1           0       -9.700308    5.654685   -0.115068
     82          1           0       -8.832932    8.113360    0.107329
     83          1           0       -7.068077    7.716196    0.188012
     84          1           0      -11.311701    3.451968   -2.218402
     85          1           0      -12.890900    2.075815   -2.246714
     86          1           0      -12.258090    2.869419   -0.479157
     87          1           0      -12.533690   -1.544773   -1.086726
     88          1           0      -13.142334   -0.143342   -1.580912
     89          1           0      -13.218204   -1.623325   -3.726876
     90          1           0      -12.286430   -0.132378   -3.948524
     91          1           0      -11.271364   -1.467448   -3.363144
     92          1           0       -9.108913   -4.731768   -1.797201
     93          1           0       -8.035640   -5.762629   -0.723157
     94          1           0       -9.679709   -4.937074   -0.115291
     95          1           0       -3.401130   -3.312056   -0.147907
     96          1           0       -1.622248   -4.482296    3.415008
     97          1           0       -2.974812   -5.420680    3.652715
     98          1           0       -1.557056   -6.091052    2.438024
     99          1           0        2.819368   -2.037698   -1.389955
    100          1           0        2.519227   -0.312271   -1.960285
    101          1           0        4.204325   -0.774786    0.514739
    102          1           0        3.999579    1.165822   -2.738553
    103          1           0        5.257626    2.117118   -2.159157
    104          1           0        5.564713    0.865111   -3.210252
    105          1           0        6.737039    1.584893   -0.301111
    106          1           0        6.411355    0.140314    0.584194
    107          1           0        7.265802   -1.089506   -1.536608
    108          1           0        7.778626    0.378504   -2.099766
    109          1           0        8.867042    0.938570    0.115704
    110          1           0        8.717747   -0.621590    0.704129
    111          1           0       10.188180    0.030261   -1.892137
    112          1           0        9.057537   -2.331001   -1.672289
    113          1           0       10.854497   -2.436231   -1.894559
    114          1           0        9.953279   -2.361447   -0.060654
    115          1           0       11.371145    0.634312    0.258060
    116          1           0       11.174753   -0.819700    0.852452
    117          1           0       12.921282   -1.403694   -0.978211
    118          1           0       12.864985    0.062490   -1.670196
    119          1           0       13.599442    0.799737    0.666970
    120          1           0       13.869269   -0.720232    1.109215
    121          1           0       15.399484    0.315918   -1.298759
    122          1           0       15.654182   -2.274595    0.336002
    123          1           0       14.612166   -2.269030   -1.137762
    124          1           0       16.510253   -1.938645   -1.389957
    125          1           0       16.135820    1.480383    0.590173
    126          1           0       16.336743    0.079374    1.603757
    127          1           0       18.182348   -0.499877   -0.411482
    128          1           0       17.590091    1.142511   -1.057146
    129          1           0       18.358207    2.414451    0.944288
    130          1           0       18.948602    0.937375    1.615083
    131          1           0       20.612189    0.554858    0.275011
    132          1           0       19.672647    3.094842   -1.097679
    133          1           0       21.304511    2.100862   -1.544552
    134          1           0       19.669720    1.559213   -1.893376
    135          1           0       20.569177    1.533891    2.330167
    136          1           0       22.219056    1.925005    1.124139
    137          1           0       20.860552    3.145612    1.469366
 ---------------------------------------------------------------------

 SCF Done:  E(RCAM-B3LYP) =  -2932.56998940     A.U. after   18 cycles

 Excitation energies and oscillator strengths:

 Excited State   1:      Singlet-A      2.0894 eV  593.39 nm  f=0.1960  <S**2>=0.000
     240 -> 243        0.27148
     241 -> 242        0.64418
 This state for optimization and/or second-order correction.
 Total Energy, E(TD-HF/TD-KS) =  -2932.49320406
 Copying the excited state density for this state as the 1-particle RhoCI density.

 The electronic state is 1-A.
 Alpha  occ. eigenvalues --  -46.82571 -19.28187 -19.25628 -19.21817 -19.21557
 Alpha  occ. eigenvalues --  -19.21229 -14.42111 -14.39418 -14.38946 -14.38249
 Alpha  occ. eigenvalues --  -10.40691 -10.39843 -10.37060 -10.32159 -10.31884
 Alpha  occ. eigenvalues --  -10.31719 -10.30542 -10.29757 -10.29731 -10.29507
 Alpha  occ. eigenvalues --  -10.29234 -10.29160 -10.29136 -10.28659 -10.28647
 Alpha  occ. eigenvalues --  -10.28258 -10.27979 -10.27784 -10.27665 -10.27464
 Alpha  occ. eigenvalues --  -10.27408 -10.27398 -10.27327 -10.27324 -10.27290
 Alpha  occ. eigenvalues --  -10.27244 -10.27231 -10.27212 -10.27087 -10.27062
 Alpha  occ. eigenvalues --  -10.27032 -10.26644 -10.26420 -10.26296 -10.26062
 Alpha  occ. eigenvalues --  -10.26046 -10.26032 -10.25969 -10.25831 -10.25787
 Alpha  occ. eigenvalues --  -10.25723 -10.25633 -10.25503 -10.25449 -10.25332
 Alpha  occ. eigenvalues --  -10.25150 -10.25095 -10.25019 -10.24813 -10.24609
 Alpha  occ. eigenvalues --  -10.24538 -10.24480 -10.24193 -10.23745 -10.23648
 Alpha  occ. eigenvalues --   -3.11978  -1.86654  -1.86221  -1.86190  -1.19247
 Alpha  occ. eigenvalues --   -1.15409  -1.09352  -1.07836  -1.07159  -1.04683
 Alpha  occ. eigenvalues --   -1.04019  -1.03381  -1.00733  -0.92607  -0.91798
 Alpha  occ. eigenvalues --   -0.91377  -0.90621  -0.90465  -0.88980  -0.88957
 Alpha  occ. eigenvalues --   -0.88319  -0.87400  -0.87292  -0.86569  -0.86226
 Alpha  occ. eigenvalues --   -0.85638  -0.84516  -0.83609  -0.83279  -0.82246
 Alpha  occ. eigenvalues --   -0.81939  -0.81465  -0.80911  -0.80334  -0.78732
 Alpha  occ. eigenvalues --   -0.77678  -0.77493  -0.76648  -0.75854  -0.75586
 Alpha  occ. eigenvalues --   -0.75145  -0.74377  -0.73678  -0.73106  -0.71829
 Alpha  occ. eigenvalues --   -0.71283  -0.70407  -0.69964  -0.69527  -0.68400
 Alpha  occ. eigenvalues --   -0.67371  -0.66767  -0.66365  -0.65510  -0.65107
 Alpha  occ. eigenvalues --   -0.64125  -0.64031  -0.63322  -0.62870  -0.62694
 Alpha  occ. eigenvalues --   -0.62305  -0.60875  -0.60610  -0.59695  -0.58865
 Alpha  occ. eigenvalues --   -0.58425  -0.58273  -0.57821  -0.56864  -0.56465
 Alpha  occ. eigenvalues --   -0.56094  -0.55984  -0.55593  -0.55053  -0.54792
 Alpha  occ. eigenvalues --   -0.54594  -0.54210  -0.53879  -0.53686  -0.53229
 Alpha  occ. eigenvalues --   -0.52835  -0.52575  -0.52462  -0.52299  -0.51619
 Alpha  occ. eigenvalues --   -0.51611  -0.51292  -0.50778  -0.50413  -0.50204
 Alpha  occ. eigenvalues --   -0.50011  -0.49811  -0.49365  -0.49345  -0.49241
 Alpha  occ. eigenvalues --   -0.49164  -0.48918  -0.48760  -0.48617  -0.48411
 Alpha  occ. eigenvalues --   -0.48151  -0.47796  -0.47722  -0.47505  -0.47320
 Alpha  occ. eigenvalues --   -0.47200  -0.47018  -0.46653  -0.46214  -0.46029
 Alpha  occ. eigenvalues --   -0.45908  -0.45555  -0.45409  -0.45376  -0.45145
 Alpha  occ. eigenvalues --   -0.44881  -0.44749  -0.44580  -0.44405  -0.44342
 Alpha  occ. eigenvalues --   -0.44271  -0.43967  -0.43887  -0.43306  -0.42999
 Alpha  occ. eigenvalues --   -0.42919  -0.42743  -0.42626  -0.42525  -0.42408
 Alpha  occ. eigenvalues --   -0.42114  -0.42087  -0.41848  -0.41645  -0.41462
 Alpha  occ. eigenvalues --   -0.41241  -0.41065  -0.40688  -0.40564  -0.40142
 Alpha  occ. eigenvalues --   -0.39946  -0.39903  -0.39402  -0.39271  -0.38753
 Alpha  occ. eigenvalues --   -0.38511  -0.38242  -0.38198  -0.37572  -0.37306
 Alpha  occ. eigenvalues --   -0.37176  -0.37173  -0.36761  -0.36624  -0.36530
 Alpha  occ. eigenvalues --   -0.36179  -0.36118  -0.35928  -0.35603  -0.35440
 Alpha  occ. eigenvalues --   -0.35371  -0.35176  -0.34671  -0.34443  -0.33912
 Alpha  occ. eigenvalues --   -0.33750  -0.33335  -0.32122  -0.30768  -0.30671
 Alpha  occ. eigenvalues --   -0.30547  -0.29552  -0.27939  -0.27282  -0.22984
 Alpha  occ. eigenvalues --   -0.21179
 Alpha virt. eigenvalues --   -0.06094  -0.03361   0.00754   0.02405   0.04925
 Alpha virt. eigenvalues --    0.05782   0.06065   0.06447   0.06872   0.07448
 Alpha virt. eigenvalues --    0.08386   0.09758   0.10678   0.11448   0.11898

 Mulliken charges:
               1
     1  Mg   0.817004
     2  C    0.112228
     3  C   -0.180926
     4  C   -0.197086
     5  C   -0.163416
     6  N   -0.593115
     7  C    0.259065
     8  C   -0.152532
     9  C   -0.136064
    10  C    0.291673
    11  C   -0.319819
    12  C   -0.187246
    13  C   -0.237177
    14  C    0.582605
    15  O   -0.488551
    16  O   -0.515828
    17  N   -0.676601
    18  C    0.347436
    19  C   -0.013942
    20  C    0.039298
    21  C    0.264739
    22  C   -0.373643
    23  C   -0.048513
    24  C   -0.250688
    25  N   -0.719297
    26  C    0.342656
    27  C    0.004835
    28  C    0.020584
    29  C    0.217965
    30  C   -0.338161
    31  C   -0.217604
    32  C   -0.283624
    33  N   -0.699434
    34  C    0.249567
    35  C    0.059427
    36  C   -0.026123
    37  C    0.261565
    38  C   -0.397174
    39  C    0.401724
    40  O   -0.468663
    41  C   -0.312284
    42  C    0.600651
    43  O   -0.501989
    44  O   -0.434358
    45  C   -0.091737
    46  C    0.035870
    47  C   -0.139207
    48  C    0.133500
    49  C   -0.355239
    50  C   -0.227155
    51  C   -0.180286
    52  C   -0.172770
    53  C   -0.089059
    54  C   -0.286555
    55  C   -0.145159
    56  C   -0.158910
    57  C   -0.180008
    58  C   -0.054917
    59  C   -0.303331
    60  C   -0.172369
    61  C   -0.166338
    62  C   -0.161778
    63  C   -0.043825
    64  C   -0.311533
    65  C   -0.289976
    66  H    0.063043
    67  H    0.090263
    68  H    0.094914
    69  H    0.155015
    70  H    0.106536
    71  H    0.111320
    72  H    0.093835
    73  H    0.133144
    74  H    0.124854
    75  H    0.080439
    76  H    0.145399
    77  H    0.150730
    78  H    0.113947
    79  H    0.126204
    80  H    0.111587
    81  H    0.100603
    82  H    0.107746
    83  H    0.108391
    84  H    0.071437
    85  H    0.119790
    86  H    0.114748
    87  H    0.106552
    88  H    0.107630
    89  H    0.062156
    90  H    0.086143
    91  H    0.131732
    92  H    0.130976
    93  H    0.147756
    94  H    0.110973
    95  H    0.168668
    96  H    0.146236
    97  H    0.139710
    98  H    0.145566
    99  H    0.111728
   100  H    0.130558
   101  H    0.108848
   102  H    0.117734
   103  H    0.123549
   104  H    0.126040
   105  H    0.058152
   106  H    0.104356
   107  H    0.088990
   108  H    0.086298
   109  H    0.093031
   110  H    0.069809
   111  H    0.087530
   112  H    0.107846
   113  H    0.075843
   114  H    0.090716
   115  H    0.094471
   116  H    0.077204
   117  H    0.104688
   118  H    0.067685
   119  H    0.098424
   120  H    0.091474
   121  H    0.087693
   122  H    0.124020
   123  H    0.050348
   124  H    0.126745
   125  H    0.087962
   126  H    0.062284
   127  H    0.077459
   128  H    0.096099
   129  H    0.052307
   130  H    0.074418
   131  H    0.101624
   132  H    0.106149
   133  H    0.103932
   134  H    0.085136
   135  H    0.083358
   136  H    0.071628
   137  H    0.107436
 Sum of Mulliken charges =   0.00000

 Dipole moment (field-independent basis, Debye):
    X=              2.1404    Y=              3.3967    Z=              1.1282  Tot=              4.1703
 Quadrupole moment (field-independent basis, Debye-Ang):
   XX=           -366.2001   YY=           -391.2527   ZZ=           -397.8628
   XY=            -15.3221   XZ=              1.1495   YZ=             -8.1455

 Normal termination of Gaussian 09 at Thu Jun 27 02:22:32 2019.
