 Gaussian 09, Revision D.01,
 Gaussian 09:  ES64L-G09RevD.01 24-Apr-2013

 -------------------------------------
 # td=(NStates=1) CAM-B3LYP/6-31G(d,p)
 -------------------------------------

 --
 TD
 --
 Symbolic Z-matrix:
 Charge =  0 Multiplicity = 1

                         Standard orientation:
 ---------------------------------------------------------------------
 Center     Atomic      Atomic             Coordinates (Angstroms)
 Number     Number       Type             X           Y           Z
 ---------------------------------------------------------------------
      1         12           0       -7.191246    0.611989    0.126527
      2          6           0       -4.840117   -1.949441    0.421201
      3          6           0       -4.809368    2.765703    1.258707
      4          6           0       -9.259529    3.063664   -0.428583
      5          6           0       -9.488110   -1.679299   -0.920745
      6          7           0       -5.114574    0.348819    0.832057
      7          6           0       -4.406526   -0.695110    0.801903
      8          6           0       -2.937707   -0.486798    1.293163
      9          6           0       -3.140319    0.968486    1.864624
     10          6           0       -4.337537    1.489883    1.215085
     11          6           0       -3.064151    1.122146    3.457782
     12          6           0       -1.935737   -0.567434    0.149247
     13          6           0       -0.480929   -0.380837    0.479922
     14          6           0        0.429051   -0.658679   -0.571774
     15          8           0        0.218626   -0.965828   -1.801576
     16          8           0        1.727124   -0.487223   -0.198103
     17          7           0       -7.133311    2.623422    0.327219
     18          6           0       -6.060950    3.307518    0.843254
     19          6           0       -6.397136    4.706221    0.912588
     20          6           0       -7.692260    4.892122    0.419985
     21          6           0       -8.077595    3.507693   -0.019020
     22          6           0       -5.465481    5.778003    1.399760
     23          6           0       -8.497790    6.079408    0.143374
     24          6           0       -8.197379    7.299246    0.094669
     25          7           0       -9.010977    0.667486   -0.490567
     26          6           0       -9.851428    1.859753   -0.657162
     27          6           0      -11.214658    1.494879   -1.055276
     28          6           0      -11.177270    0.121680   -1.243559
     29          6           0       -9.857185   -0.356714   -0.830037
     30          6           0      -12.241867    2.481095   -1.168539
     31          6           0      -12.271876   -0.757668   -1.704091
     32          6           0      -12.282333   -1.018207   -3.213708
     33          7           0       -7.242952   -1.395072   -0.163155
     34          6           0       -8.239500   -2.163537   -0.513753
     35          6           0       -7.860074   -3.606926   -0.610905
     36          6           0       -6.519676   -3.561120   -0.251408
     37          6           0       -6.167052   -2.168050    0.075512
     38          6           0       -8.679193   -4.782679   -0.954325
     39          6           0       -5.297693   -4.405945    0.094135
     40          8           0       -5.062034   -5.627712    0.191011
     41          6           0       -4.199612   -3.350673    0.466095
     42          6           0       -3.562800   -3.753775    1.883003
     43          8           0       -3.927345   -3.305476    2.919053
     44          8           0       -2.607064   -4.728896    1.735544
     45          6           0       -2.097672   -5.239652    2.958482
     46          6           0        2.801747   -0.596696   -1.149898
     47          6           0        4.080785   -0.221232   -0.565116
     48          6           0        5.073684    0.415617   -1.128698
     49          6           0        4.947384    1.051701   -2.564157
     50          6           0        6.399119    0.624901   -0.391697
     51          6           0        7.610165   -0.190163   -1.034954
     52          6           0        8.930511   -0.115034   -0.230429
     53          6           0       10.146820   -0.599854   -0.940612
     54          6           0       10.091051   -2.039617   -1.271523
     55          6           0       11.318182   -0.196447   -0.014003
     56          6           0       12.666593   -0.465224   -0.716121
     57          6           0       13.827657   -0.041039    0.131827
     58          6           0       15.303345   -0.142863   -0.539721
     59          6           0       15.693274   -1.566299   -0.931499
     60          6           0       16.371937    0.540165    0.422970
     61          6           0       17.812997    0.438766   -0.043578
     62          6           0       18.818830    1.288514    0.839755
     63          6           0       20.228246    1.325166    0.292123
     64          6           0       20.338850    1.979401   -1.055034
     65          6           0       21.280840    1.879742    1.372499
     66          1           0       -4.321933    3.632458    1.784022
     67          1           0      -10.061943    3.976954   -0.483270
     68          1           0      -10.378078   -2.365860   -0.997145
     69          1           0       -2.815249   -1.019231    2.200360
     70          1           0       -2.235736    1.689481    1.597785
     71          1           0       -2.074310    0.617787    3.808974
     72          1           0       -3.140068    2.229306    3.718302
     73          1           0       -3.845648    0.699036    3.877956
     74          1           0       -2.025464   -1.486969   -0.282279
     75          1           0       -2.222184    0.356465   -0.678578
     76          1           0       -0.186879    0.467939    0.803615
     77          1           0       -0.090855   -0.971719    1.410532
     78          1           0       -4.568927    5.947942    0.660572
     79          1           0       -5.824718    6.723355    1.752449
     80          1           0       -4.933509    5.373679    2.258649
     81          1           0       -9.443886    6.032007    0.313993
     82          1           0       -9.052110    7.989326   -0.128706
     83          1           0       -7.099805    7.697079    0.144991
     84          1           0      -12.305576    3.142092   -2.017392
     85          1           0      -13.160670    1.956003   -1.576593
     86          1           0      -12.255265    3.048399   -0.066632
     87          1           0      -12.084087   -1.734402   -1.014184
     88          1           0      -13.173180   -0.368279   -1.107931
     89          1           0      -13.013339   -1.707143   -3.395561
     90          1           0      -12.350516   -0.148118   -3.967564
     91          1           0      -11.469761   -1.635440   -3.542960
     92          1           0       -8.944148   -4.711502   -1.858773
     93          1           0       -8.018805   -5.686160   -1.213979
     94          1           0       -9.489204   -4.954355   -0.311025
     95          1           0       -3.306114   -3.439221   -0.174422
     96          1           0       -1.471435   -4.508537    3.266904
     97          1           0       -2.778216   -5.624055    3.702931
     98          1           0       -1.462089   -6.079561    2.629980
     99          1           0        2.796689   -1.691168   -1.270583
    100          1           0        2.469186    0.077979   -2.039185
    101          1           0        4.065726   -0.638431    0.339112
    102          1           0        3.873440    0.973866   -2.905257
    103          1           0        5.306957    2.029717   -2.307888
    104          1           0        5.573273    0.601866   -3.410439
    105          1           0        6.546679    1.705902   -0.228695
    106          1           0        6.254777    0.328049    0.697840
    107          1           0        7.517910   -1.204757   -1.066870
    108          1           0        7.660451    0.286815   -2.089720
    109          1           0        8.986693    0.890881    0.062792
    110          1           0        8.804828   -0.597913    0.719442
    111          1           0       10.320545   -0.036455   -1.792880
    112          1           0        9.223625   -2.231927   -2.082210
    113          1           0       11.114690   -2.381939   -1.499077
    114          1           0        9.828100   -2.641288   -0.306201
    115          1           0       11.354564    0.759412    0.281172
    116          1           0       11.538819   -0.866262    0.974859
    117          1           0       12.594182   -1.542814   -0.827886
    118          1           0       12.868242    0.105221   -1.676053
    119          1           0       13.649939    0.989869    0.490192
    120          1           0       13.813866   -0.707911    1.156884
    121          1           0       15.285436    0.394451   -1.354101
    122          1           0       16.140369   -1.970598    0.023658
    123          1           0       14.828907   -2.224310   -1.341994
    124          1           0       16.550588   -1.727300   -1.674112
    125          1           0       16.205432    1.624365    0.538201
    126          1           0       16.173479    0.204912    1.549203
    127          1           0       18.152413   -0.693816    0.027347
    128          1           0       17.737753    0.827477   -1.275060
    129          1           0       18.335229    2.319161    1.020027
    130          1           0       18.812151    0.771840    1.792136
    131          1           0       20.817920    0.308886    0.368958
    132          1           0       19.868289    2.955390   -0.787369
    133          1           0       21.382421    1.976451   -1.520654
    134          1           0       19.813581    1.427373   -1.785510
    135          1           0       21.403974    1.358113    2.372989
    136          1           0       22.266898    1.582160    0.999664
    137          1           0       21.303529    3.035848    1.457187
 ---------------------------------------------------------------------

 SCF Done:  E(RCAM-B3LYP) =  -2932.64199082     A.U. after   17 cycles

 Excitation energies and oscillator strengths:

 Excited State   1:      Singlet-A      2.0212 eV  613.42 nm  f=0.2962  <S**2>=0.000
     240 -> 243        0.22500
     241 -> 242        0.66653
 This state for optimization and/or second-order correction.
 Total Energy, E(TD-HF/TD-KS) =  -2932.56771267
 Copying the excited state density for this state as the 1-particle RhoCI density.

 The electronic state is 1-A.
 Alpha  occ. eigenvalues --  -46.83532 -19.26016 -19.24918 -19.21478 -19.21014
 Alpha  occ. eigenvalues --  -19.19503 -14.41657 -14.39316 -14.39057 -14.38904
 Alpha  occ. eigenvalues --  -10.39390 -10.39016 -10.36331 -10.31451 -10.30506
 Alpha  occ. eigenvalues --  -10.30184 -10.30014 -10.29526 -10.29302 -10.29064
 Alpha  occ. eigenvalues --  -10.28992 -10.28891 -10.28469 -10.28373 -10.28214
 Alpha  occ. eigenvalues --  -10.28135 -10.27951 -10.27798 -10.27740 -10.27368
 Alpha  occ. eigenvalues --  -10.27359 -10.27273 -10.27127 -10.26959 -10.26861
 Alpha  occ. eigenvalues --  -10.26732 -10.26669 -10.26635 -10.26570 -10.26525
 Alpha  occ. eigenvalues --  -10.26522 -10.26503 -10.26446 -10.26285 -10.26278
 Alpha  occ. eigenvalues --  -10.26253 -10.26219 -10.26200 -10.25950 -10.25924
 Alpha  occ. eigenvalues --  -10.25918 -10.25629 -10.25621 -10.25550 -10.25528
 Alpha  occ. eigenvalues --  -10.25478 -10.25414 -10.25039 -10.25018 -10.24881
 Alpha  occ. eigenvalues --  -10.24778 -10.24717 -10.24251 -10.23995 -10.23794
 Alpha  occ. eigenvalues --   -3.12845  -1.87526  -1.87099  -1.87033  -1.18242
 Alpha  occ. eigenvalues --   -1.16374  -1.10374  -1.09579  -1.05945  -1.05030
 Alpha  occ. eigenvalues --   -1.04851  -1.03353  -1.00704  -0.92191  -0.91844
 Alpha  occ. eigenvalues --   -0.91548  -0.90212  -0.89486  -0.89336  -0.89308
 Alpha  occ. eigenvalues --   -0.88681  -0.88224  -0.87917  -0.87770  -0.86703
 Alpha  occ. eigenvalues --   -0.85368  -0.84864  -0.83628  -0.83438  -0.83008
 Alpha  occ. eigenvalues --   -0.81544  -0.81155  -0.80730  -0.80080  -0.79237
 Alpha  occ. eigenvalues --   -0.78241  -0.77496  -0.76747  -0.76100  -0.75758
 Alpha  occ. eigenvalues --   -0.75722  -0.74740  -0.74183  -0.73897  -0.72691
 Alpha  occ. eigenvalues --   -0.72312  -0.71170  -0.70237  -0.69121  -0.68249
 Alpha  occ. eigenvalues --   -0.66736  -0.66534  -0.65034  -0.64784  -0.63902
 Alpha  occ. eigenvalues --   -0.63618  -0.63513  -0.62440  -0.62269  -0.62084
 Alpha  occ. eigenvalues --   -0.61173  -0.61097  -0.60221  -0.60094  -0.59226
 Alpha  occ. eigenvalues --   -0.58783  -0.58337  -0.57638  -0.56949  -0.56820
 Alpha  occ. eigenvalues --   -0.56503  -0.56101  -0.55408  -0.55281  -0.55263
 Alpha  occ. eigenvalues --   -0.54707  -0.54340  -0.54104  -0.54034  -0.53357
 Alpha  occ. eigenvalues --   -0.53043  -0.52711  -0.52385  -0.52238  -0.52125
 Alpha  occ. eigenvalues --   -0.51697  -0.51199  -0.50844  -0.50763  -0.50506
 Alpha  occ. eigenvalues --   -0.50212  -0.50160  -0.49820  -0.49683  -0.49608
 Alpha  occ. eigenvalues --   -0.49398  -0.49297  -0.49056  -0.48724  -0.48602
 Alpha  occ. eigenvalues --   -0.47978  -0.47788  -0.47712  -0.47572  -0.47411
 Alpha  occ. eigenvalues --   -0.47079  -0.46676  -0.46519  -0.46284  -0.46214
 Alpha  occ. eigenvalues --   -0.45588  -0.45515  -0.45375  -0.45103  -0.44883
 Alpha  occ. eigenvalues --   -0.44818  -0.44645  -0.44472  -0.44354  -0.44194
 Alpha  occ. eigenvalues --   -0.44155  -0.43856  -0.43825  -0.43300  -0.43122
 Alpha  occ. eigenvalues --   -0.42850  -0.42622  -0.42524  -0.42350  -0.42203
 Alpha  occ. eigenvalues --   -0.41919  -0.41612  -0.41542  -0.41218  -0.41147
 Alpha  occ. eigenvalues --   -0.41035  -0.41003  -0.40492  -0.40294  -0.39805
 Alpha  occ. eigenvalues --   -0.39713  -0.39512  -0.39494  -0.39298  -0.39123
 Alpha  occ. eigenvalues --   -0.38690  -0.38489  -0.38115  -0.37964  -0.37808
 Alpha  occ. eigenvalues --   -0.37508  -0.37328  -0.37143  -0.36854  -0.36734
 Alpha  occ. eigenvalues --   -0.36708  -0.36261  -0.36232  -0.35796  -0.35691
 Alpha  occ. eigenvalues --   -0.35157  -0.34599  -0.34103  -0.33840  -0.33234
 Alpha  occ. eigenvalues --   -0.33102  -0.32228  -0.32158  -0.31028  -0.30469
 Alpha  occ. eigenvalues --   -0.30328  -0.30077  -0.28311  -0.27394  -0.23333
 Alpha  occ. eigenvalues --   -0.20589
 Alpha virt. eigenvalues --   -0.06234  -0.02623   0.01505   0.04352   0.05401
 Alpha virt. eigenvalues --    0.06259   0.06658   0.06915   0.07254   0.07365
 Alpha virt. eigenvalues --    0.08761   0.10371   0.11528   0.11801   0.11888

 Mulliken charges:
               1
     1  Mg   0.832069
     2  C    0.068267
     3  C   -0.188063
     4  C   -0.215850
     5  C   -0.178384
     6  N   -0.620947
     7  C    0.337832
     8  C   -0.163402
     9  C   -0.173756
    10  C    0.332144
    11  C   -0.299358
    12  C   -0.144457
    13  C   -0.246170
    14  C    0.606720
    15  O   -0.525055
    16  O   -0.512599
    17  N   -0.709825
    18  C    0.313225
    19  C   -0.010161
    20  C    0.013072
    21  C    0.295611
    22  C   -0.385349
    23  C   -0.019517
    24  C   -0.257078
    25  N   -0.720989
    26  C    0.265176
    27  C    0.104676
    28  C    0.003530
    29  C    0.335265
    30  C   -0.384075
    31  C   -0.258541
    32  C   -0.308825
    33  N   -0.703250
    34  C    0.281330
    35  C    0.007080
    36  C   -0.028406
    37  C    0.279329
    38  C   -0.367861
    39  C    0.408834
    40  O   -0.470629
    41  C   -0.309901
    42  C    0.601366
    43  O   -0.447741
    44  O   -0.458531
    45  C   -0.081786
    46  C    0.037131
    47  C   -0.103346
    48  C    0.104737
    49  C   -0.353848
    50  C   -0.247473
    51  C   -0.172078
    52  C   -0.184474
    53  C   -0.033748
    54  C   -0.309994
    55  C   -0.176436
    56  C   -0.180316
    57  C   -0.177125
    58  C   -0.038203
    59  C   -0.317199
    60  C   -0.181994
    61  C   -0.156449
    62  C   -0.163665
    63  C   -0.053034
    64  C   -0.294571
    65  C   -0.325982
    66  H    0.076355
    67  H    0.063320
    68  H    0.081058
    69  H    0.130600
    70  H    0.082013
    71  H    0.096512
    72  H    0.103413
    73  H    0.136130
    74  H    0.133019
    75  H    0.100782
    76  H    0.154502
    77  H    0.130739
    78  H    0.112031
    79  H    0.126603
    80  H    0.114540
    81  H    0.089200
    82  H    0.092550
    83  H    0.089481
    84  H    0.134946
    85  H    0.102483
    86  H    0.113514
    87  H    0.085235
    88  H    0.109335
    89  H    0.118011
    90  H    0.109956
    91  H    0.121603
    92  H    0.143125
    93  H    0.130911
    94  H    0.137823
    95  H    0.155613
    96  H    0.124559
    97  H    0.137867
    98  H    0.121712
    99  H    0.125506
   100  H    0.115386
   101  H    0.085657
   102  H    0.107138
   103  H    0.120565
   104  H    0.117056
   105  H    0.102307
   106  H    0.090643
   107  H    0.114106
   108  H    0.081655
   109  H    0.090282
   110  H    0.094947
   111  H    0.099333
   112  H    0.096538
   113  H    0.106802
   114  H    0.089724
   115  H    0.100322
   116  H    0.065954
   117  H    0.101276
   118  H    0.079825
   119  H    0.089224
   120  H    0.055905
   121  H    0.096477
   122  H    0.099585
   123  H    0.095051
   124  H    0.099182
   125  H    0.089062
   126  H    0.069802
   127  H    0.084107
   128  H    0.054024
   129  H    0.082030
   130  H    0.104601
   131  H    0.073873
   132  H    0.101170
   133  H    0.094581
   134  H    0.118423
   135  H    0.098673
   136  H    0.098780
   137  H    0.083930
 Sum of Mulliken charges =   0.00000

 Dipole moment (field-independent basis, Debye):
    X=              0.7995    Y=              3.2494    Z=              1.2184  Tot=              3.5612
 Quadrupole moment (field-independent basis, Debye-Ang):
   XX=           -329.0449   YY=           -398.2391   ZZ=           -395.1630
   XY=            -11.8553   XZ=             11.3846   YZ=              0.2227

 Normal termination of Gaussian 09 at Sun Jun 30 05:47:47 2019.
