 Gaussian 09, Revision D.01,
 Gaussian 09:  ES64L-G09RevD.01 24-Apr-2013

 -------------------------------------
 # td=(NStates=1) CAM-B3LYP/6-31G(d,p)
 -------------------------------------

 --
 TD
 --
 Symbolic Z-matrix:
 Charge =  0 Multiplicity = 1

                         Standard orientation:
 ---------------------------------------------------------------------
 Center     Atomic      Atomic             Coordinates (Angstroms)
 Number     Number       Type             X           Y           Z
 ---------------------------------------------------------------------
      1         12           0       -7.130243    0.539423    0.038601
      2          6           0       -4.888937   -2.017168    0.487913
      3          6           0       -4.761265    2.776123    1.109138
      4          6           0       -9.419862    3.057389   -0.333533
      5          6           0       -9.576782   -1.810384   -0.850645
      6          7           0       -5.051904    0.363159    0.709145
      7          6           0       -4.390438   -0.744832    0.792541
      8          6           0       -2.870426   -0.388526    1.101843
      9          6           0       -3.068403    1.016937    1.554350
     10          6           0       -4.399807    1.456263    1.095427
     11          6           0       -2.748296    1.203337    3.094246
     12          6           0       -1.904949   -0.703104    0.031490
     13          6           0       -0.546853   -0.506709    0.574616
     14          6           0        0.485036   -0.709860   -0.538855
     15          8           0        0.301950   -1.002984   -1.749806
     16          8           0        1.765005   -0.520942   -0.151722
     17          7           0       -7.152138    2.588665    0.466563
     18          6           0       -6.139161    3.318670    0.913219
     19          6           0       -6.441930    4.713826    0.936737
     20          6           0       -7.785121    4.757064    0.453459
     21          6           0       -8.224976    3.399031    0.174542
     22          6           0       -5.628332    5.826804    1.392548
     23          6           0       -8.676968    5.962275    0.343628
     24          6           0       -8.296470    7.285996    0.195114
     25          7           0       -9.141191    0.640871   -0.585919
     26          6           0       -9.859135    1.813592   -0.708289
     27          6           0      -11.192922    1.396937   -1.100070
     28          6           0      -11.329371    0.177731   -1.266936
     29          6           0       -9.969645   -0.423880   -0.917314
     30          6           0      -12.344595    2.432610   -1.055061
     31          6           0      -12.438234   -0.676216   -1.691065
     32          6           0      -12.374780   -0.829846   -3.205574
     33          7           0       -7.190481   -1.453855   -0.203772
     34          6           0       -8.303268   -2.319646   -0.519454
     35          6           0       -7.764145   -3.679773   -0.537617
     36          6           0       -6.453600   -3.577459   -0.088879
     37          6           0       -6.131318   -2.198113    0.043717
     38          6           0       -8.603537   -4.874466   -0.822627
     39          6           0       -5.294219   -4.381979    0.047151
     40          8           0       -5.109347   -5.560864    0.137258
     41          6           0       -4.201467   -3.348458    0.374300
     42          6           0       -3.503120   -3.850137    1.736318
     43          8           0       -3.681501   -3.269119    2.858964
     44          8           0       -2.714389   -4.781584    1.538973
     45          6           0       -2.156461   -5.349400    2.804006
     46          6           0        2.950394   -0.435143   -1.138814
     47          6           0        4.251691   -0.153743   -0.395355
     48          6           0        5.168803    0.744734   -0.859031
     49          6           0        5.042853    1.424000   -2.181945
     50          6           0        6.470034    0.688605   -0.016623
     51          6           0        7.620760    0.189378   -0.708694
     52          6           0        8.925047    0.155059   -0.020431
     53          6           0       10.136940   -0.374534   -0.787716
     54          6           0        9.989907   -1.797563   -1.370272
     55          6           0       11.410845   -0.083401    0.115829
     56          6           0       12.791697   -0.409218   -0.593645
     57          6           0       14.030827   -0.148258    0.246450
     58          6           0       15.290850   -0.314077   -0.441224
     59          6           0       15.543427   -1.757398   -0.971713
     60          6           0       16.441952    0.239076    0.459304
     61          6           0       17.819558    0.381216   -0.177673
     62          6           0       18.794785    1.155683    0.710354
     63          6           0       20.256306    1.172497    0.130336
     64          6           0       20.297578    2.070735   -1.148753
     65          6           0       21.262523    1.753211    1.232338
     66          1           0       -4.063643    3.468748    1.329275
     67          1           0      -10.321071    3.756420   -0.326248
     68          1           0      -10.366180   -2.558576   -1.296753
     69          1           0       -2.603844   -1.105355    1.802443
     70          1           0       -2.258415    1.505727    1.005131
     71          1           0       -1.707259    0.743091    3.295014
     72          1           0       -2.739158    2.413320    3.383405
     73          1           0       -3.728689    0.730359    3.544639
     74          1           0       -2.028914   -1.758426   -0.327130
     75          1           0       -1.913126   -0.110895   -1.079527
     76          1           0       -0.348311    0.344246    0.978971
     77          1           0       -0.185726   -1.023863    1.445475
     78          1           0       -5.224805    6.305077    0.340034
     79          1           0       -6.036341    6.584623    1.999674
     80          1           0       -4.602308    5.455500    1.801580
     81          1           0       -9.732401    5.702647    0.184695
     82          1           0       -9.050250    8.044150    0.248207
     83          1           0       -7.308710    7.716885    0.279409
     84          1           0      -12.332188    3.186828   -1.892527
     85          1           0      -13.337252    2.093892   -1.244943
     86          1           0      -12.453511    2.710229   -0.007803
     87          1           0      -12.332585   -1.486190   -1.315458
     88          1           0      -13.438410   -0.280474   -1.209727
     89          1           0      -12.960614   -1.754225   -3.505007
     90          1           0      -12.450816    0.236295   -3.577456
     91          1           0      -11.170738   -1.198847   -3.476997
     92          1           0       -9.317906   -4.675903   -1.679874
     93          1           0       -8.018715   -5.658282   -1.006306
     94          1           0       -9.337430   -4.955290    0.159183
     95          1           0       -3.381194   -3.469660   -0.469350
     96          1           0       -1.735107   -4.501132    3.374846
     97          1           0       -2.925405   -5.864850    3.395283
     98          1           0       -1.403502   -6.151598    2.653287
     99          1           0        2.847569   -1.375363   -1.832511
    100          1           0        2.612841    0.381804   -1.792425
    101          1           0        4.451426   -0.766163    0.424975
    102          1           0        3.978211    1.444493   -2.735177
    103          1           0        5.394302    2.371355   -2.008298
    104          1           0        5.804246    1.033993   -3.059738
    105          1           0        6.431685    1.805060    0.354954
    106          1           0        6.414473    0.023593    0.785607
    107          1           0        7.528960   -0.937002   -1.237167
    108          1           0        7.841101    0.749114   -1.683240
    109          1           0        9.132431    1.007988    0.301441
    110          1           0        8.985909   -0.391580    0.983504
    111          1           0       10.145869    0.208622   -1.760720
    112          1           0        9.263737   -2.076279   -2.048094
    113          1           0       10.813102   -2.148191   -1.850877
    114          1           0        9.879941   -2.605843   -0.627013
    115          1           0       11.367281    1.033918    0.448589
    116          1           0       11.474942   -0.547143    1.054953
    117          1           0       12.802503   -1.272580   -1.038534
    118          1           0       12.882463    0.344255   -1.384629
    119          1           0       13.644149    0.855142    0.627610
    120          1           0       14.006440   -0.925058    1.104174
    121          1           0       15.471142    0.442065   -1.381462
    122          1           0       15.863188   -2.477731   -0.162224
    123          1           0       14.647053   -1.915714   -1.653310
    124          1           0       16.495257   -1.811248   -1.709575
    125          1           0       16.064378    1.249013    0.899560
    126          1           0       16.422506   -0.274611    1.376842
    127          1           0       18.114739   -0.715784   -0.513167
    128          1           0       17.631452    0.948665   -1.143561
    129          1           0       18.376643    2.014382    0.907012
    130          1           0       18.701503    0.605605    1.652401
    131          1           0       20.719134    0.244603   -0.242721
    132          1           0       20.048876    2.998608   -0.906071
    133          1           0       21.387223    2.051095   -1.512596
    134          1           0       19.766765    1.704868   -2.048219
    135          1           0       21.660130    1.073898    1.942559
    136          1           0       22.130589    1.886669    0.595619
    137          1           0       20.671398    2.723079    1.612781
 ---------------------------------------------------------------------

 SCF Done:  E(RCAM-B3LYP) =  -2932.58432782     A.U. after   18 cycles

 Excitation energies and oscillator strengths:

 Excited State   1:      Singlet-A      2.0162 eV  614.95 nm  f=0.3227  <S**2>=0.000
     240 -> 243        0.23715
     241 -> 242        0.66243
 This state for optimization and/or second-order correction.
 Total Energy, E(TD-HF/TD-KS) =  -2932.51023464
 Copying the excited state density for this state as the 1-particle RhoCI density.

 The electronic state is 1-A.
 Alpha  occ. eigenvalues --  -46.84891 -19.28467 -19.24194 -19.19970 -19.19084
 Alpha  occ. eigenvalues --  -19.18774 -14.41179 -14.39825 -14.39170 -14.38993
 Alpha  occ. eigenvalues --  -10.38846 -10.38556 -10.33977 -10.32817 -10.32571
 Alpha  occ. eigenvalues --  -10.30561 -10.30121 -10.29936 -10.29613 -10.29421
 Alpha  occ. eigenvalues --  -10.28931 -10.28887 -10.28575 -10.28520 -10.28448
 Alpha  occ. eigenvalues --  -10.28258 -10.28112 -10.28063 -10.28000 -10.27794
 Alpha  occ. eigenvalues --  -10.27540 -10.27395 -10.27270 -10.27128 -10.27066
 Alpha  occ. eigenvalues --  -10.26910 -10.26871 -10.26787 -10.26767 -10.26734
 Alpha  occ. eigenvalues --  -10.26569 -10.26480 -10.26350 -10.26306 -10.26262
 Alpha  occ. eigenvalues --  -10.26096 -10.26015 -10.25723 -10.25675 -10.25648
 Alpha  occ. eigenvalues --  -10.25622 -10.25599 -10.25440 -10.25372 -10.25080
 Alpha  occ. eigenvalues --  -10.24881 -10.24715 -10.24678 -10.24626 -10.24411
 Alpha  occ. eigenvalues --  -10.23893 -10.23868 -10.23635 -10.23572 -10.23329
 Alpha  occ. eigenvalues --   -3.13732  -1.88463  -1.87961  -1.87890  -1.21550
 Alpha  occ. eigenvalues --   -1.14570  -1.11982  -1.06288  -1.05266  -1.04569
 Alpha  occ. eigenvalues --   -1.03676  -1.03469  -1.02264  -0.93020  -0.92324
 Alpha  occ. eigenvalues --   -0.91655  -0.90839  -0.90281  -0.89442  -0.88765
 Alpha  occ. eigenvalues --   -0.88194  -0.87926  -0.87456  -0.87167  -0.85828
 Alpha  occ. eigenvalues --   -0.85310  -0.84349  -0.83532  -0.83407  -0.82618
 Alpha  occ. eigenvalues --   -0.81878  -0.81101  -0.80590  -0.80359  -0.78463
 Alpha  occ. eigenvalues --   -0.78337  -0.77518  -0.76511  -0.76299  -0.75547
 Alpha  occ. eigenvalues --   -0.75364  -0.75092  -0.74905  -0.73257  -0.72700
 Alpha  occ. eigenvalues --   -0.71625  -0.70486  -0.69881  -0.69421  -0.68023
 Alpha  occ. eigenvalues --   -0.67093  -0.66251  -0.65732  -0.64883  -0.64812
 Alpha  occ. eigenvalues --   -0.64589  -0.64439  -0.63568  -0.62737  -0.62233
 Alpha  occ. eigenvalues --   -0.61501  -0.60931  -0.60851  -0.59861  -0.59206
 Alpha  occ. eigenvalues --   -0.58909  -0.58605  -0.57700  -0.57038  -0.56517
 Alpha  occ. eigenvalues --   -0.56035  -0.55843  -0.55593  -0.55213  -0.54658
 Alpha  occ. eigenvalues --   -0.54375  -0.54216  -0.53910  -0.53489  -0.52975
 Alpha  occ. eigenvalues --   -0.52869  -0.52221  -0.51952  -0.51798  -0.51696
 Alpha  occ. eigenvalues --   -0.51299  -0.51064  -0.50837  -0.50780  -0.50517
 Alpha  occ. eigenvalues --   -0.50347  -0.50234  -0.50108  -0.49824  -0.49675
 Alpha  occ. eigenvalues --   -0.49516  -0.49347  -0.48882  -0.48673  -0.48664
 Alpha  occ. eigenvalues --   -0.48379  -0.47990  -0.47304  -0.47166  -0.46973
 Alpha  occ. eigenvalues --   -0.46819  -0.46604  -0.46444  -0.46316  -0.46218
 Alpha  occ. eigenvalues --   -0.45940  -0.45673  -0.45434  -0.45319  -0.44931
 Alpha  occ. eigenvalues --   -0.44872  -0.44757  -0.44484  -0.44400  -0.44260
 Alpha  occ. eigenvalues --   -0.44183  -0.44096  -0.43777  -0.43680  -0.43494
 Alpha  occ. eigenvalues --   -0.43406  -0.43043  -0.42978  -0.42606  -0.42117
 Alpha  occ. eigenvalues --   -0.41994  -0.41786  -0.41414  -0.41366  -0.41007
 Alpha  occ. eigenvalues --   -0.40965  -0.40869  -0.40271  -0.40244  -0.40058
 Alpha  occ. eigenvalues --   -0.39699  -0.39545  -0.39398  -0.39241  -0.38918
 Alpha  occ. eigenvalues --   -0.38825  -0.38437  -0.38097  -0.37710  -0.37528
 Alpha  occ. eigenvalues --   -0.37227  -0.36898  -0.36749  -0.36523  -0.36248
 Alpha  occ. eigenvalues --   -0.36039  -0.35959  -0.35410  -0.35390  -0.35091
 Alpha  occ. eigenvalues --   -0.34641  -0.34637  -0.33952  -0.33116  -0.32734
 Alpha  occ. eigenvalues --   -0.32668  -0.31878  -0.31653  -0.30699  -0.29970
 Alpha  occ. eigenvalues --   -0.29785  -0.29623  -0.29344  -0.26102  -0.23109
 Alpha  occ. eigenvalues --   -0.20894
 Alpha virt. eigenvalues --   -0.06542  -0.02461   0.01849   0.04323   0.04640
 Alpha virt. eigenvalues --    0.05696   0.06813   0.07153   0.07321   0.08396
 Alpha virt. eigenvalues --    0.08749   0.10499   0.11594   0.11689   0.11728

 Mulliken charges:
               1
     1  Mg   0.819722
     2  C    0.130246
     3  C   -0.164896
     4  C   -0.160839
     5  C   -0.200448
     6  N   -0.644885
     7  C    0.297111
     8  C   -0.131469
     9  C   -0.185311
    10  C    0.370989
    11  C   -0.274687
    12  C   -0.180828
    13  C   -0.244771
    14  C    0.592396
    15  O   -0.516191
    16  O   -0.520809
    17  N   -0.708609
    18  C    0.292579
    19  C    0.038126
    20  C   -0.017362
    21  C    0.320829
    22  C   -0.379656
    23  C   -0.077274
    24  C   -0.255486
    25  N   -0.688931
    26  C    0.290506
    27  C    0.003288
    28  C    0.040550
    29  C    0.258296
    30  C   -0.390284
    31  C   -0.175597
    32  C   -0.299893
    33  N   -0.778709
    34  C    0.271136
    35  C    0.018688
    36  C   -0.002032
    37  C    0.346461
    38  C   -0.347289
    39  C    0.364481
    40  O   -0.456560
    41  C   -0.368254
    42  C    0.612079
    43  O   -0.541317
    44  O   -0.376384
    45  C   -0.106553
    46  C    0.018516
    47  C   -0.116386
    48  C    0.107193
    49  C   -0.360190
    50  C   -0.212229
    51  C   -0.169838
    52  C   -0.138986
    53  C   -0.056819
    54  C   -0.333776
    55  C   -0.201399
    56  C   -0.189904
    57  C   -0.158410
    58  C   -0.044974
    59  C   -0.310507
    60  C   -0.182435
    61  C   -0.171325
    62  C   -0.155926
    63  C   -0.078229
    64  C   -0.308133
    65  C   -0.302775
    66  H    0.067455
    67  H    0.107845
    68  H    0.094438
    69  H    0.129718
    70  H    0.103445
    71  H    0.103840
    72  H    0.081134
    73  H    0.120606
    74  H    0.120183
    75  H    0.104347
    76  H    0.143975
    77  H    0.136234
    78  H    0.102786
    79  H    0.138330
    80  H    0.100819
    81  H    0.087453
    82  H    0.099979
    83  H    0.103635
    84  H    0.115866
    85  H    0.111233
    86  H    0.129320
    87  H    0.100259
    88  H    0.086052
    89  H    0.109509
    90  H    0.121698
    91  H    0.072960
    92  H    0.115065
    93  H    0.148209
    94  H    0.119128
    95  H    0.147167
    96  H    0.152381
    97  H    0.150168
    98  H    0.129595
    99  H    0.134297
   100  H    0.125016
   101  H    0.102503
   102  H    0.115168
   103  H    0.127901
   104  H    0.110129
   105  H    0.092046
   106  H    0.117810
   107  H    0.074588
   108  H    0.079399
   109  H    0.100596
   110  H    0.068518
   111  H    0.080146
   112  H    0.111577
   113  H    0.110308
   114  H    0.091041
   115  H    0.078723
   116  H    0.106390
   117  H    0.102740
   118  H    0.090627
   119  H    0.090753
   120  H    0.074499
   121  H    0.058531
   122  H    0.108295
   123  H    0.108770
   124  H    0.087539
   125  H    0.065741
   126  H    0.089145
   127  H    0.076171
   128  H    0.081965
   129  H    0.102834
   130  H    0.090308
   131  H    0.088015
   132  H    0.113175
   133  H    0.080945
   134  H    0.106011
   135  H    0.111684
   136  H    0.097962
   137  H    0.087673
 Sum of Mulliken charges =   0.00000

 Dipole moment (field-independent basis, Debye):
    X=              2.5322    Y=              2.2547    Z=              0.2839  Tot=              3.4024
 Quadrupole moment (field-independent basis, Debye-Ang):
   XX=           -331.9881   YY=           -390.3378   ZZ=           -400.5893
   XY=            -10.9898   XZ=              8.0274   YZ=             -2.5732

 Normal termination of Gaussian 09 at Sun Jun 30 18:49:04 2019.
