 Gaussian 09, Revision D.01,
 Gaussian 09:  ES64L-G09RevD.01 24-Apr-2013

 -------------------------------------
 # td=(NStates=1) CAM-B3LYP/6-31G(d,p)
 -------------------------------------

 --
 TD
 --
 Symbolic Z-matrix:
 Charge =  0 Multiplicity = 1

                         Standard orientation:
 ---------------------------------------------------------------------
 Center     Atomic      Atomic             Coordinates (Angstroms)
 Number     Number       Type             X           Y           Z
 ---------------------------------------------------------------------
      1         12           0       -7.234634    0.583765    0.145451
      2          6           0       -4.861309   -2.022045    0.432899
      3          6           0       -4.839409    2.831220    1.149631
      4          6           0       -9.384097    3.172282   -0.329468
      5          6           0       -9.571956   -1.725924   -0.828221
      6          7           0       -5.147747    0.406288    0.731211
      7          6           0       -4.365113   -0.752271    0.708885
      8          6           0       -2.948149   -0.441004    1.169875
      9          6           0       -3.028301    1.106638    1.723493
     10          6           0       -4.397344    1.489040    1.065326
     11          6           0       -2.809845    1.259652    3.166012
     12          6           0       -1.881912   -0.742751    0.109490
     13          6           0       -0.514131   -0.469651    0.520339
     14          6           0        0.566130   -0.704297   -0.502070
     15          8           0        0.241492   -1.074404   -1.617327
     16          8           0        1.831250   -0.383850   -0.105467
     17          7           0       -7.088921    2.695029    0.431682
     18          6           0       -6.064629    3.433925    0.780623
     19          6           0       -6.432008    4.876641    0.756468
     20          6           0       -7.690960    4.946414    0.310796
     21          6           0       -8.174462    3.532954    0.149637
     22          6           0       -5.488995    5.925130    1.238174
     23          6           0       -8.592024    6.037155    0.307830
     24          6           0       -8.246303    7.353321    0.122073
     25          7           0       -9.167075    0.681499   -0.518221
     26          6           0       -9.804035    1.833265   -0.707038
     27          6           0      -11.218323    1.475528   -1.113042
     28          6           0      -11.304481    0.102917   -1.186337
     29          6           0       -9.951523   -0.388198   -0.822957
     30          6           0      -12.272637    2.500026   -1.447174
     31          6           0      -12.430020   -0.664985   -1.628869
     32          6           0      -12.403161   -1.031121   -3.142940
     33          7           0       -7.228927   -1.378960   -0.165725
     34          6           0       -8.344140   -2.229512   -0.510294
     35          6           0       -7.869216   -3.643004   -0.371524
     36          6           0       -6.512351   -3.566575    0.027786
     37          6           0       -6.153919   -2.153477    0.054012
     38          6           0       -8.691568   -4.803886   -0.780321
     39          6           0       -5.344560   -4.378365    0.284884
     40          8           0       -5.240915   -5.550754    0.270359
     41          6           0       -4.233640   -3.357223    0.525334
     42          6           0       -3.461130   -3.690109    1.792440
     43          8           0       -3.665870   -3.113240    2.880048
     44          8           0       -2.647432   -4.707061    1.586016
     45          6           0       -1.953359   -5.117686    2.728118
     46          6           0        2.824188   -0.727334   -1.181797
     47          6           0        4.099572   -0.628203   -0.502978
     48          6           0        5.192136    0.118748   -0.896785
     49          6           0        5.199430    1.039137   -2.142836
     50          6           0        6.496514    0.193152   -0.086976
     51          6           0        7.693322   -0.391645   -0.920976
     52          6           0        8.978101   -0.378250   -0.121860
     53          6           0       10.214671   -0.787142   -0.915725
     54          6           0       10.190206   -2.301918   -1.278098
     55          6           0       11.460481   -0.373080   -0.166374
     56          6           0       12.750135   -0.513129   -0.867564
     57          6           0       13.916242    0.007962    0.082220
     58          6           0       15.353457   -0.056912   -0.504446
     59          6           0       15.702227   -1.554387   -0.731261
     60          6           0       16.388822    0.549655    0.491666
     61          6           0       17.768547    0.621966   -0.137575
     62          6           0       18.754366    1.320735    0.715255
     63          6           0       20.130747    1.561586    0.266040
     64          6           0       20.198602    2.288436   -1.118354
     65          6           0       21.057222    2.213599    1.308242
     66          1           0       -4.013329    3.555545    1.389094
     67          1           0      -10.043583    4.156677   -0.491634
     68          1           0      -10.355749   -2.513619   -0.886339
     69          1           0       -2.644697   -0.871334    2.058843
     70          1           0       -2.253437    1.793175    1.311503
     71          1           0       -1.616060    1.274480    3.474674
     72          1           0       -3.315211    2.280788    3.240133
     73          1           0       -3.358238    0.420712    3.499732
     74          1           0       -2.161486   -1.710543   -0.427014
     75          1           0       -2.045548   -0.365133   -0.981857
     76          1           0       -0.514926    0.520534    0.976328
     77          1           0       -0.293023   -1.027563    1.480077
     78          1           0       -4.890934    6.540216    0.401975
     79          1           0       -6.097131    6.594829    1.958120
     80          1           0       -4.713522    5.513013    1.823775
     81          1           0       -9.625671    5.916753    0.552723
     82          1           0       -8.828369    8.174193    0.193959
     83          1           0       -7.260171    7.444961   -0.095972
     84          1           0      -11.907001    3.086081   -2.523576
     85          1           0      -13.285963    2.107543   -1.683428
     86          1           0      -12.221699    3.374163   -0.350241
     87          1           0      -12.632931   -1.582234   -1.171378
     88          1           0      -13.347141   -0.116811   -1.495713
     89          1           0      -13.375496   -1.528382   -3.599569
     90          1           0      -12.377320   -0.167038   -3.754491
     91          1           0      -11.587744   -1.630540   -3.442651
     92          1           0       -9.217282   -4.675232   -1.712806
     93          1           0       -8.233013   -5.822500   -1.007384
     94          1           0       -9.477966   -4.974158    0.043646
     95          1           0       -3.536344   -3.439920   -0.323612
     96          1           0       -1.555755   -4.146518    3.191893
     97          1           0       -2.667076   -5.696118    3.548234
     98          1           0       -1.105862   -5.781494    2.506641
     99          1           0        2.401531   -1.773036   -1.762467
    100          1           0        2.681309   -0.075362   -1.982209
    101          1           0        4.166361   -1.153113    0.341064
    102          1           0        4.178830    1.415232   -2.466309
    103          1           0        6.058577    1.768009   -2.186377
    104          1           0        5.621940    0.385483   -2.943904
    105          1           0        6.819752    1.224621    0.114392
    106          1           0        6.415140   -0.410215    0.848874
    107          1           0        7.406780   -1.431565   -1.176766
    108          1           0        7.769721   -0.002363   -2.023996
    109          1           0        9.075258    0.593457    0.239321
    110          1           0        8.895969   -1.190260    0.711422
    111          1           0       10.268391   -0.196109   -1.782083
    112          1           0        9.335079   -2.213679   -1.967113
    113          1           0       11.084059   -2.517145   -1.992343
    114          1           0       10.150913   -3.091788   -0.452280
    115          1           0       11.147808    0.712694    0.563293
    116          1           0       11.702601   -1.114306    0.679715
    117          1           0       12.946833   -1.472062   -1.099080
    118          1           0       12.705231    0.032112   -2.010560
    119          1           0       13.508651    1.063811    0.276681
    120          1           0       13.689946   -0.629751    1.057641
    121          1           0       15.481368    0.509452   -1.538929
    122          1           0       15.539332   -2.285401    0.318466
    123          1           0       15.077327   -2.203731   -1.380119
    124          1           0       16.792607   -1.824717   -1.095666
    125          1           0       16.152095    1.528961    0.717740
    126          1           0       16.500595    0.135659    1.436168
    127          1           0       18.203013   -0.413929   -0.380560
    128          1           0       17.682450    1.127018   -1.158698
    129          1           0       18.274387    2.360849    1.023240
    130          1           0       18.767022    0.818010    1.717972
    131          1           0       20.744428    0.676591    0.060984
    132          1           0       19.947073    3.330581   -1.082208
    133          1           0       21.210118    2.054085   -1.502547
    134          1           0       19.541691    2.024069   -1.867514
    135          1           0       20.949677    1.452006    2.141331
    136          1           0       21.986231    2.603890    0.898302
    137          1           0       20.599033    3.097720    1.532246
 ---------------------------------------------------------------------

 SCF Done:  E(RCAM-B3LYP) =  -2932.69483202     A.U. after   17 cycles

 Excitation energies and oscillator strengths:

 Excited State   1:      Singlet-A      2.1392 eV  579.58 nm  f=0.2156  <S**2>=0.000
     240 -> 243       -0.27445
     241 -> 242        0.63564
 This state for optimization and/or second-order correction.
 Total Energy, E(TD-HF/TD-KS) =  -2932.61621738
 Copying the excited state density for this state as the 1-particle RhoCI density.

 The electronic state is 1-A.
 Alpha  occ. eigenvalues --  -46.84818 -19.27908 -19.26662 -19.21106 -19.20724
 Alpha  occ. eigenvalues --  -19.20052 -14.41820 -14.39995 -14.39779 -14.39348
 Alpha  occ. eigenvalues --  -10.39697 -10.39396 -10.34227 -10.32795 -10.32453
 Alpha  occ. eigenvalues --  -10.31501 -10.31084 -10.30304 -10.29981 -10.29768
 Alpha  occ. eigenvalues --  -10.29311 -10.29194 -10.29116 -10.28922 -10.28605
 Alpha  occ. eigenvalues --  -10.28499 -10.28352 -10.28178 -10.27870 -10.27576
 Alpha  occ. eigenvalues --  -10.27407 -10.27397 -10.27365 -10.27364 -10.27248
 Alpha  occ. eigenvalues --  -10.27241 -10.27128 -10.27116 -10.27046 -10.27015
 Alpha  occ. eigenvalues --  -10.26884 -10.26730 -10.26638 -10.26613 -10.26595
 Alpha  occ. eigenvalues --  -10.26570 -10.26284 -10.26157 -10.26100 -10.25979
 Alpha  occ. eigenvalues --  -10.25797 -10.25655 -10.25553 -10.25441 -10.25306
 Alpha  occ. eigenvalues --  -10.25276 -10.25268 -10.25258 -10.25203 -10.25049
 Alpha  occ. eigenvalues --  -10.24805 -10.24766 -10.23852 -10.23835 -10.23192
 Alpha  occ. eigenvalues --   -3.13763  -1.88480  -1.87994  -1.87934  -1.20199
 Alpha  occ. eigenvalues --   -1.17223  -1.13090  -1.08952  -1.08391  -1.04473
 Alpha  occ. eigenvalues --   -1.03431  -1.03001  -1.01484  -0.93518  -0.91540
 Alpha  occ. eigenvalues --   -0.90718  -0.90462  -0.90261  -0.89817  -0.89200
 Alpha  occ. eigenvalues --   -0.88251  -0.88166  -0.87340  -0.86902  -0.86147
 Alpha  occ. eigenvalues --   -0.85683  -0.84369  -0.83650  -0.83612  -0.82369
 Alpha  occ. eigenvalues --   -0.81896  -0.81484  -0.80572  -0.79847  -0.78297
 Alpha  occ. eigenvalues --   -0.77963  -0.76924  -0.76446  -0.75986  -0.75844
 Alpha  occ. eigenvalues --   -0.75001  -0.74059  -0.73779  -0.72803  -0.71798
 Alpha  occ. eigenvalues --   -0.71246  -0.70399  -0.70136  -0.69162  -0.68837
 Alpha  occ. eigenvalues --   -0.67106  -0.66699  -0.65395  -0.64872  -0.64626
 Alpha  occ. eigenvalues --   -0.64179  -0.63528  -0.63229  -0.62763  -0.62374
 Alpha  occ. eigenvalues --   -0.62011  -0.61454  -0.60304  -0.60203  -0.59041
 Alpha  occ. eigenvalues --   -0.58943  -0.58634  -0.58336  -0.57547  -0.56686
 Alpha  occ. eigenvalues --   -0.55900  -0.55775  -0.55692  -0.55052  -0.54872
 Alpha  occ. eigenvalues --   -0.54767  -0.54512  -0.53790  -0.53548  -0.53109
 Alpha  occ. eigenvalues --   -0.52944  -0.52813  -0.52749  -0.52360  -0.51837
 Alpha  occ. eigenvalues --   -0.51473  -0.51342  -0.51234  -0.51131  -0.50603
 Alpha  occ. eigenvalues --   -0.50488  -0.49970  -0.49798  -0.49554  -0.49355
 Alpha  occ. eigenvalues --   -0.49029  -0.48898  -0.48883  -0.48596  -0.48240
 Alpha  occ. eigenvalues --   -0.47874  -0.47784  -0.47457  -0.47242  -0.47048
 Alpha  occ. eigenvalues --   -0.46942  -0.46616  -0.46310  -0.46054  -0.45986
 Alpha  occ. eigenvalues --   -0.45940  -0.45492  -0.45420  -0.45076  -0.44927
 Alpha  occ. eigenvalues --   -0.44818  -0.44769  -0.44657  -0.44247  -0.44064
 Alpha  occ. eigenvalues --   -0.43945  -0.43514  -0.43412  -0.43112  -0.43027
 Alpha  occ. eigenvalues --   -0.42924  -0.42564  -0.42509  -0.42343  -0.42208
 Alpha  occ. eigenvalues --   -0.41956  -0.41860  -0.41672  -0.41472  -0.41342
 Alpha  occ. eigenvalues --   -0.41003  -0.40901  -0.40835  -0.40685  -0.40550
 Alpha  occ. eigenvalues --   -0.40233  -0.39932  -0.39789  -0.39380  -0.39149
 Alpha  occ. eigenvalues --   -0.39005  -0.38457  -0.38322  -0.37974  -0.37590
 Alpha  occ. eigenvalues --   -0.37371  -0.37228  -0.36938  -0.36756  -0.36727
 Alpha  occ. eigenvalues --   -0.36616  -0.36391  -0.36187  -0.35794  -0.35467
 Alpha  occ. eigenvalues --   -0.35409  -0.34896  -0.34269  -0.33992  -0.33694
 Alpha  occ. eigenvalues --   -0.33212  -0.32764  -0.32432  -0.30740  -0.29930
 Alpha  occ. eigenvalues --   -0.29120  -0.29010  -0.28024  -0.27693  -0.23385
 Alpha  occ. eigenvalues --   -0.20957
 Alpha virt. eigenvalues --   -0.05654  -0.03349   0.01527   0.03852   0.04726
 Alpha virt. eigenvalues --    0.05679   0.05822   0.06120   0.06869   0.07033
 Alpha virt. eigenvalues --    0.08056   0.09482   0.10793   0.11062   0.11354

 Mulliken charges:
               1
     1  Mg   0.828579
     2  C    0.102160
     3  C   -0.233443
     4  C   -0.173267
     5  C   -0.166842
     6  N   -0.636052
     7  C    0.290071
     8  C   -0.157207
     9  C   -0.163685
    10  C    0.343856
    11  C   -0.280694
    12  C   -0.177457
    13  C   -0.273214
    14  C    0.639024
    15  O   -0.478653
    16  O   -0.494560
    17  N   -0.693981
    18  C    0.334657
    19  C    0.046868
    20  C    0.019539
    21  C    0.293020
    22  C   -0.376469
    23  C   -0.111735
    24  C   -0.228656
    25  N   -0.693585
    26  C    0.293037
    27  C    0.002642
    28  C    0.066740
    29  C    0.277421
    30  C   -0.330286
    31  C   -0.262279
    32  C   -0.318350
    33  N   -0.762208
    34  C    0.259346
    35  C    0.034106
    36  C   -0.024241
    37  C    0.325720
    38  C   -0.390305
    39  C    0.372126
    40  O   -0.433544
    41  C   -0.334410
    42  C    0.631898
    43  O   -0.501458
    44  O   -0.407972
    45  C   -0.084600
    46  C    0.002058
    47  C   -0.117899
    48  C    0.119199
    49  C   -0.377588
    50  C   -0.227282
    51  C   -0.202151
    52  C   -0.151645
    53  C   -0.063824
    54  C   -0.312659
    55  C   -0.137655
    56  C   -0.173972
    57  C   -0.172142
    58  C   -0.049405
    59  C   -0.301046
    60  C   -0.161229
    61  C   -0.171042
    62  C   -0.155247
    63  C   -0.068694
    64  C   -0.324125
    65  C   -0.304597
    66  H    0.072992
    67  H    0.101842
    68  H    0.103782
    69  H    0.124323
    70  H    0.099149
    71  H    0.091694
    72  H    0.108019
    73  H    0.135428
    74  H    0.104193
    75  H    0.112345
    76  H    0.138787
    77  H    0.121037
    78  H    0.111032
    79  H    0.122152
    80  H    0.122705
    81  H    0.101464
    82  H    0.108050
    83  H    0.101165
    84  H    0.093109
    85  H    0.119235
    86  H    0.061098
    87  H    0.112382
    88  H    0.105280
    89  H    0.079105
    90  H    0.113280
    91  H    0.116471
    92  H    0.130113
    93  H    0.140290
    94  H    0.120423
    95  H    0.168157
    96  H    0.123808
    97  H    0.113344
    98  H    0.127551
    99  H    0.119367
   100  H    0.128887
   101  H    0.088425
   102  H    0.122636
   103  H    0.116499
   104  H    0.125259
   105  H    0.110309
   106  H    0.104471
   107  H    0.102580
   108  H    0.077390
   109  H    0.096902
   110  H    0.086261
   111  H    0.094443
   112  H    0.110086
   113  H    0.093626
   114  H    0.108295
   115  H    0.033226
   116  H    0.074696
   117  H    0.118576
   118  H    0.038809
   119  H    0.093063
   120  H    0.084585
   121  H    0.088195
   122  H    0.055898
   123  H    0.106133
   124  H    0.095712
   125  H    0.098977
   126  H    0.101781
   127  H    0.084828
   128  H    0.080249
   129  H    0.062524
   130  H    0.077640
   131  H    0.087482
   132  H    0.095380
   133  H    0.093653
   134  H    0.107215
   135  H    0.099198
   136  H    0.103781
   137  H    0.108444
 Sum of Mulliken charges =   0.00000

 Dipole moment (field-independent basis, Debye):
    X=              2.5589    Y=              3.6004    Z=             -0.3575  Tot=              4.4315
 Quadrupole moment (field-independent basis, Debye-Ang):
   XX=           -358.0458   YY=           -389.9146   ZZ=           -400.7050
   XY=            -22.5006   XZ=              5.0271   YZ=              0.2354

 Normal termination of Gaussian 09 at Thu Jun 27 05:21:46 2019.
