 Gaussian 09, Revision D.01,
 Gaussian 09:  ES64L-G09RevD.01 24-Apr-2013

 -------------------------------------
 # td=(NStates=1) CAM-B3LYP/6-31G(d,p)
 -------------------------------------

 --
 TD
 --
 Symbolic Z-matrix:
 Charge =  0 Multiplicity = 1

                         Standard orientation:
 ---------------------------------------------------------------------
 Center     Atomic      Atomic             Coordinates (Angstroms)
 Number     Number       Type             X           Y           Z
 ---------------------------------------------------------------------
      1         12           0       -7.082342    0.579639    0.108892
      2          6           0       -4.773685   -1.940061    0.566381
      3          6           0       -4.877032    2.815641    1.325268
      4          6           0       -9.512372    3.063731   -0.317220
      5          6           0       -9.490942   -1.821258   -0.928099
      6          7           0       -5.075485    0.447337    0.733819
      7          6           0       -4.245508   -0.753317    0.826207
      8          6           0       -2.866773   -0.399281    1.270337
      9          6           0       -3.033786    1.068036    1.833599
     10          6           0       -4.352927    1.589709    1.206808
     11          6           0       -2.965313    1.211028    3.296467
     12          6           0       -1.878118   -0.439332    0.049084
     13          6           0       -0.488057   -0.408862    0.381125
     14          6           0        0.541510   -0.652728   -0.661658
     15          8           0        0.329871   -0.950752   -1.793782
     16          8           0        1.766086   -0.487100   -0.202868
     17          7           0       -7.186860    2.550024    0.470775
     18          6           0       -6.174992    3.372576    0.951647
     19          6           0       -6.499687    4.725411    0.850574
     20          6           0       -7.759149    4.823073    0.400413
     21          6           0       -8.175949    3.465443    0.179852
     22          6           0       -5.657316    5.801296    1.369438
     23          6           0       -8.604420    5.954570    0.259207
     24          6           0       -8.408321    7.274004    0.101601
     25          7           0       -9.087559    0.525268   -0.540000
     26          6           0       -9.844902    1.725196   -0.569591
     27          6           0      -11.167581    1.357013   -1.072663
     28          6           0      -11.217605    0.014961   -1.264250
     29          6           0       -9.894648   -0.509587   -0.893471
     30          6           0      -12.259642    2.394683   -1.390634
     31          6           0      -12.310845   -0.845694   -1.783876
     32          6           0      -12.152577   -1.061669   -3.383536
     33          7           0       -7.163735   -1.347377   -0.130733
     34          6           0       -8.205858   -2.220518   -0.577228
     35          6           0       -7.741608   -3.539347   -0.541528
     36          6           0       -6.437630   -3.580816   -0.075462
     37          6           0       -6.188442   -2.215390    0.195281
     38          6           0       -8.453950   -4.832193   -1.075864
     39          6           0       -5.287995   -4.388821    0.216026
     40          8           0       -5.157149   -5.610100    0.222560
     41          6           0       -4.077483   -3.328668    0.610932
     42          6           0       -3.450133   -3.638678    1.871191
     43          8           0       -3.655688   -3.114081    2.995472
     44          8           0       -2.652470   -4.729469    1.685587
     45          6           0       -2.155830   -5.297626    3.025991
     46          6           0        2.693609   -0.502816   -1.307708
     47          6           0        4.143918   -0.434785   -0.572993
     48          6           0        5.037338    0.440866   -1.008512
     49          6           0        4.948835    1.401015   -2.172879
     50          6           0        6.311043    0.509039   -0.287643
     51          6           0        7.613024   -0.012273   -1.111968
     52          6           0        8.819263    0.026826   -0.192318
     53          6           0       10.151312   -0.469656   -0.988460
     54          6           0       10.078574   -1.986884   -1.297128
     55          6           0       11.367977   -0.196866   -0.081495
     56          6           0       12.685917   -0.394528   -0.779591
     57          6           0       13.887099   -0.086165    0.087901
     58          6           0       15.268947   -0.331552   -0.476925
     59          6           0       15.572772   -1.728887   -0.818210
     60          6           0       16.341282    0.224067    0.473479
     61          6           0       17.768852    0.519751   -0.156954
     62          6           0       18.873791    1.116980    0.770041
     63          6           0       20.255073    1.296799    0.239341
     64          6           0       20.339508    2.228586   -1.000117
     65          6           0       21.145719    1.741816    1.311546
     66          1           0       -4.271182    3.769243    1.759288
     67          1           0      -10.112339    3.957954   -0.401304
     68          1           0      -10.074484   -2.605373   -1.077045
     69          1           0       -2.483035   -1.040199    2.146433
     70          1           0       -2.231243    1.588088    1.266868
     71          1           0       -2.073255    0.772918    3.702070
     72          1           0       -2.994430    2.322417    3.549185
     73          1           0       -3.853996    0.670086    3.748306
     74          1           0       -2.037759   -1.294530   -0.714650
     75          1           0       -2.176675    0.485495   -0.625689
     76          1           0       -0.193824    0.728110    0.549281
     77          1           0       -0.365857   -1.231550    1.169111
     78          1           0       -4.890770    6.170705    0.742174
     79          1           0       -6.396611    6.554080    1.772780
     80          1           0       -5.193692    5.433522    2.212675
     81          1           0       -9.643131    5.744133    0.564594
     82          1           0       -9.174188    8.046889    0.037749
     83          1           0       -7.313225    7.612202   -0.083992
     84          1           0      -12.069687    2.958656   -2.140215
     85          1           0      -13.235908    1.991311   -1.394999
     86          1           0      -12.566577    3.191472   -0.532477
     87          1           0      -12.255546   -1.694522   -1.382053
     88          1           0      -13.377047   -0.645679   -1.743709
     89          1           0      -13.007387   -1.822557   -3.405004
     90          1           0      -12.424571    0.014190   -3.939129
     91          1           0      -11.049539   -1.499601   -3.711248
     92          1           0       -8.835179   -4.707563   -1.982627
     93          1           0       -7.663873   -5.565195   -1.045920
     94          1           0       -9.330475   -5.286201   -0.530653
     95          1           0       -3.262631   -3.215966   -0.171077
     96          1           0       -1.477579   -4.816858    3.675239
     97          1           0       -2.899988   -5.446354    3.986578
     98          1           0       -1.737076   -6.206147    2.668480
     99          1           0        2.505885   -1.444619   -1.856980
    100          1           0        2.582995    0.414778   -1.829020
    101          1           0        4.408495   -1.103544    0.306826
    102          1           0        3.932251    1.441467   -2.574895
    103          1           0        5.286933    2.300087   -1.833823
    104          1           0        5.587467    1.009313   -2.943619
    105          1           0        6.577578    1.570548   -0.327667
    106          1           0        6.382017    0.028792    0.793857
    107          1           0        7.491064   -1.162285   -1.180131
    108          1           0        7.805919    0.596790   -1.809503
    109          1           0        9.065129    1.190635    0.007674
    110          1           0        8.500556   -0.461884    0.814704
    111          1           0       10.118155    0.145306   -2.026395
    112          1           0        9.093506   -2.317187   -1.792729
    113          1           0       10.864099   -2.370348   -1.898329
    114          1           0       10.273687   -2.535167   -0.341080
    115          1           0       11.096881    0.784882    0.430237
    116          1           0       11.373897   -0.891184    0.771641
    117          1           0       12.885658   -1.213190   -1.329597
    118          1           0       12.693765    0.291652   -1.645974
    119          1           0       13.773539    1.001527    0.536875
    120          1           0       13.796053   -0.574340    1.168272
    121          1           0       15.341294    0.188480   -1.349282
    122          1           0       15.417352   -2.265018   -0.011281
    123          1           0       15.006500   -2.232155   -1.537025
    124          1           0       16.682577   -1.869569   -1.166524
    125          1           0       16.109819    1.325346    1.029853
    126          1           0       16.593610   -0.265149    1.326773
    127          1           0       18.213876   -0.326800   -0.588596
    128          1           0       17.876473    1.168278   -1.163900
    129          1           0       18.743985    2.201755    1.163835
    130          1           0       18.596543    0.513772    1.687716
    131          1           0       20.633263    0.387519   -0.067876
    132          1           0       19.898425    3.353383   -0.892948
    133          1           0       21.375250    2.507126   -1.342992
    134          1           0       19.819377    1.839462   -1.912405
    135          1           0       21.543237    0.873573    2.076039
    136          1           0       22.156731    2.399703    0.979041
    137          1           0       20.701541    2.651539    2.070193
 ---------------------------------------------------------------------

 SCF Done:  E(RCAM-B3LYP) =  -2932.60771016     A.U. after   19 cycles

 Excitation energies and oscillator strengths:

 Excited State   1:      Singlet-A      1.8933 eV  654.87 nm  f=0.2999  <S**2>=0.000
     240 -> 243       -0.18888
     241 -> 242        0.67525
 This state for optimization and/or second-order correction.
 Total Energy, E(TD-HF/TD-KS) =  -2932.53813393
 Copying the excited state density for this state as the 1-particle RhoCI density.

 The electronic state is 1-A.
 Alpha  occ. eigenvalues --  -46.83254 -19.27064 -19.25711 -19.21043 -19.20421
 Alpha  occ. eigenvalues --  -19.19986 -14.40989 -14.39865 -14.39839 -14.39571
 Alpha  occ. eigenvalues --  -10.38872 -10.37952 -10.36303 -10.31732 -10.31609
 Alpha  occ. eigenvalues --  -10.30676 -10.29931 -10.29897 -10.29857 -10.29850
 Alpha  occ. eigenvalues --  -10.29563 -10.29185 -10.28838 -10.28742 -10.28712
 Alpha  occ. eigenvalues --  -10.28491 -10.28399 -10.28044 -10.27937 -10.27922
 Alpha  occ. eigenvalues --  -10.27895 -10.27514 -10.27398 -10.27366 -10.27346
 Alpha  occ. eigenvalues --  -10.27037 -10.26970 -10.26888 -10.26626 -10.26561
 Alpha  occ. eigenvalues --  -10.26327 -10.26308 -10.26298 -10.26296 -10.26224
 Alpha  occ. eigenvalues --  -10.26208 -10.26115 -10.26095 -10.25993 -10.25912
 Alpha  occ. eigenvalues --  -10.25679 -10.25679 -10.25573 -10.25571 -10.25383
 Alpha  occ. eigenvalues --  -10.25313 -10.25272 -10.25267 -10.25229 -10.25103
 Alpha  occ. eigenvalues --  -10.25061 -10.24917 -10.24836 -10.24266 -10.23290
 Alpha  occ. eigenvalues --   -3.12481  -1.87171  -1.86738  -1.86668  -1.19918
 Alpha  occ. eigenvalues --   -1.15832  -1.10671  -1.09543  -1.06430  -1.04099
 Alpha  occ. eigenvalues --   -1.03764  -1.02074  -0.99838  -0.91742  -0.91415
 Alpha  occ. eigenvalues --   -0.91125  -0.90510  -0.90191  -0.89972  -0.88875
 Alpha  occ. eigenvalues --   -0.88742  -0.88218  -0.87728  -0.87408  -0.86159
 Alpha  occ. eigenvalues --   -0.85363  -0.84749  -0.83994  -0.82704  -0.82482
 Alpha  occ. eigenvalues --   -0.81600  -0.81048  -0.80626  -0.80313  -0.78802
 Alpha  occ. eigenvalues --   -0.78135  -0.77290  -0.76785  -0.76082  -0.75771
 Alpha  occ. eigenvalues --   -0.75694  -0.74660  -0.74098  -0.73580  -0.72698
 Alpha  occ. eigenvalues --   -0.71428  -0.70207  -0.69404  -0.68794  -0.68379
 Alpha  occ. eigenvalues --   -0.67579  -0.66127  -0.65803  -0.65100  -0.64878
 Alpha  occ. eigenvalues --   -0.64617  -0.63875  -0.63060  -0.62347  -0.62238
 Alpha  occ. eigenvalues --   -0.61735  -0.61001  -0.59801  -0.59532  -0.58987
 Alpha  occ. eigenvalues --   -0.58680  -0.58359  -0.57858  -0.57441  -0.56909
 Alpha  occ. eigenvalues --   -0.55946  -0.55843  -0.55398  -0.54744  -0.54296
 Alpha  occ. eigenvalues --   -0.54193  -0.54010  -0.53870  -0.53781  -0.52958
 Alpha  occ. eigenvalues --   -0.52860  -0.52579  -0.52455  -0.52222  -0.51727
 Alpha  occ. eigenvalues --   -0.51559  -0.51208  -0.51023  -0.50870  -0.50597
 Alpha  occ. eigenvalues --   -0.50282  -0.50252  -0.50079  -0.49879  -0.49571
 Alpha  occ. eigenvalues --   -0.49402  -0.48852  -0.48796  -0.48537  -0.48260
 Alpha  occ. eigenvalues --   -0.48154  -0.47932  -0.47780  -0.47545  -0.47437
 Alpha  occ. eigenvalues --   -0.47351  -0.46901  -0.46851  -0.46419  -0.46041
 Alpha  occ. eigenvalues --   -0.45931  -0.45772  -0.45461  -0.45237  -0.44935
 Alpha  occ. eigenvalues --   -0.44754  -0.44503  -0.44009  -0.43919  -0.43793
 Alpha  occ. eigenvalues --   -0.43492  -0.43355  -0.43078  -0.42827  -0.42550
 Alpha  occ. eigenvalues --   -0.42492  -0.42418  -0.42306  -0.42216  -0.41975
 Alpha  occ. eigenvalues --   -0.41900  -0.41456  -0.41255  -0.41134  -0.41088
 Alpha  occ. eigenvalues --   -0.41034  -0.40614  -0.40408  -0.40244  -0.40094
 Alpha  occ. eigenvalues --   -0.40034  -0.39771  -0.39670  -0.39439  -0.39362
 Alpha  occ. eigenvalues --   -0.38927  -0.38638  -0.38414  -0.38241  -0.37800
 Alpha  occ. eigenvalues --   -0.37549  -0.37167  -0.37137  -0.36925  -0.36659
 Alpha  occ. eigenvalues --   -0.36243  -0.36169  -0.35960  -0.35827  -0.35407
 Alpha  occ. eigenvalues --   -0.35281  -0.35145  -0.34745  -0.33607  -0.33409
 Alpha  occ. eigenvalues --   -0.33210  -0.32923  -0.31868  -0.31464  -0.30643
 Alpha  occ. eigenvalues --   -0.30136  -0.29052  -0.28577  -0.28069  -0.23263
 Alpha  occ. eigenvalues --   -0.21659
 Alpha virt. eigenvalues --   -0.07963  -0.02541   0.01473   0.04058   0.05205
 Alpha virt. eigenvalues --    0.06279   0.07077   0.07293   0.07630   0.08017
 Alpha virt. eigenvalues --    0.08487   0.10473   0.11195   0.11779   0.12107

 Mulliken charges:
               1
     1  Mg   0.813483
     2  C    0.031768
     3  C   -0.207448
     4  C   -0.144577
     5  C   -0.121271
     6  N   -0.642852
     7  C    0.312753
     8  C   -0.168759
     9  C   -0.125365
    10  C    0.331689
    11  C   -0.299371
    12  C   -0.184706
    13  C   -0.235503
    14  C    0.588315
    15  O   -0.477180
    16  O   -0.463230
    17  N   -0.697963
    18  C    0.283454
    19  C    0.026994
    20  C    0.064689
    21  C    0.248620
    22  C   -0.382312
    23  C   -0.094956
    24  C   -0.260231
    25  N   -0.692274
    26  C    0.297790
    27  C   -0.003784
    28  C    0.036817
    29  C    0.299676
    30  C   -0.362141
    31  C   -0.235875
    32  C   -0.291655
    33  N   -0.720920
    34  C    0.264355
    35  C   -0.033474
    36  C    0.071867
    37  C    0.277993
    38  C   -0.373738
    39  C    0.364943
    40  O   -0.455989
    41  C   -0.318913
    42  C    0.646358
    43  O   -0.506544
    44  O   -0.459026
    45  C   -0.096028
    46  C    0.009694
    47  C   -0.157015
    48  C    0.140676
    49  C   -0.361438
    50  C   -0.242623
    51  C   -0.152703
    52  C   -0.184988
    53  C   -0.049776
    54  C   -0.313948
    55  C   -0.170464
    56  C   -0.173125
    57  C   -0.175296
    58  C   -0.048233
    59  C   -0.311476
    60  C   -0.176279
    61  C   -0.198250
    62  C   -0.151073
    63  C   -0.036453
    64  C   -0.315050
    65  C   -0.285649
    66  H    0.065897
    67  H    0.101482
    68  H    0.084713
    69  H    0.122692
    70  H    0.095468
    71  H    0.116680
    72  H    0.103259
    73  H    0.125415
    74  H    0.115834
    75  H    0.097863
    76  H    0.124547
    77  H    0.133654
    78  H    0.130412
    79  H    0.117821
    80  H    0.127247
    81  H    0.097033
    82  H    0.116231
    83  H    0.094831
    84  H    0.138796
    85  H    0.117712
    86  H    0.081311
    87  H    0.114597
    88  H    0.113777
    89  H    0.100098
    90  H    0.096446
    91  H    0.097964
    92  H    0.131091
    93  H    0.147811
    94  H    0.113926
    95  H    0.163289
    96  H    0.139274
    97  H    0.119155
    98  H    0.133234
    99  H    0.143552
   100  H    0.119388
   101  H    0.090420
   102  H    0.108352
   103  H    0.125532
   104  H    0.134640
   105  H    0.088355
   106  H    0.087635
   107  H    0.100396
   108  H    0.098456
   109  H    0.060820
   110  H    0.084108
   111  H    0.067130
   112  H    0.094563
   113  H    0.108697
   114  H    0.098802
   115  H    0.089805
   116  H    0.095748
   117  H    0.105234
   118  H    0.087988
   119  H    0.080452
   120  H    0.061705
   121  H    0.103938
   122  H    0.115639
   123  H    0.104452
   124  H    0.088928
   125  H    0.063700
   126  H    0.108367
   127  H    0.099987
   128  H    0.063501
   129  H    0.076450
   130  H    0.082606
   131  H    0.106859
   132  H    0.081890
   133  H    0.104560
   134  H    0.104036
   135  H    0.088472
   136  H    0.074865
   137  H    0.068398
 Sum of Mulliken charges =   0.00000

 Dipole moment (field-independent basis, Debye):
    X=              0.5059    Y=              4.1997    Z=             -0.4190  Tot=              4.2508
 Quadrupole moment (field-independent basis, Debye-Ang):
   XX=           -333.5563   YY=           -390.6485   ZZ=           -398.8814
   XY=            -32.6674   XZ=              2.4701   YZ=             -2.6603

 Normal termination of Gaussian 09 at Sat Jun 29 02:59:05 2019.
