 Gaussian 09, Revision D.01,
 Gaussian 09:  ES64L-G09RevD.01 24-Apr-2013

 -------------------------------------
 # td=(NStates=1) CAM-B3LYP/6-31G(d,p)
 -------------------------------------

 --
 TD
 --
 Symbolic Z-matrix:
 Charge =  0 Multiplicity = 1

                         Standard orientation:
 ---------------------------------------------------------------------
 Center     Atomic      Atomic             Coordinates (Angstroms)
 Number     Number       Type             X           Y           Z
 ---------------------------------------------------------------------
      1         12           0       -7.174963    0.567318    0.181600
      2          6           0       -4.921195   -1.998851    0.512924
      3          6           0       -4.783986    2.768635    1.181166
      4          6           0       -9.324777    3.131559   -0.417953
      5          6           0       -9.547592   -1.700553   -0.741480
      6          7           0       -5.148410    0.336232    0.786829
      7          6           0       -4.401029   -0.824697    0.845357
      8          6           0       -2.901537   -0.474580    1.157073
      9          6           0       -3.012705    0.995225    1.632094
     10          6           0       -4.365653    1.518403    1.155362
     11          6           0       -2.775138    1.222244    3.230365
     12          6           0       -1.900175   -0.638836    0.010294
     13          6           0       -0.493315   -0.388621    0.505305
     14          6           0        0.477100   -0.602277   -0.733632
     15          8           0        0.124209   -1.035132   -1.801927
     16          8           0        1.781315   -0.477389   -0.305856
     17          7           0       -7.101064    2.623275    0.437505
     18          6           0       -6.037731    3.332573    0.775454
     19          6           0       -6.358809    4.723083    0.831350
     20          6           0       -7.611132    4.809215    0.452577
     21          6           0       -8.168857    3.453769    0.149124
     22          6           0       -5.431414    5.860688    1.370036
     23          6           0       -8.478789    5.970704    0.363528
     24          6           0       -8.090734    7.255679    0.244271
     25          7           0       -9.182385    0.676758   -0.507040
     26          6           0       -9.870141    1.864780   -0.665559
     27          6           0      -11.185406    1.540568   -1.025914
     28          6           0      -11.328447    0.161443   -1.180533
     29          6           0       -9.948502   -0.388384   -0.797748
     30          6           0      -12.181679    2.563559   -1.382205
     31          6           0      -12.429963   -0.626206   -1.703971
     32          6           0      -12.362583   -0.911567   -3.266870
     33          7           0       -7.222557   -1.374470   -0.019111
     34          6           0       -8.287455   -2.206704   -0.450470
     35          6           0       -7.935365   -3.560735   -0.488530
     36          6           0       -6.657544   -3.627663   -0.028004
     37          6           0       -6.222129   -2.275261    0.220598
     38          6           0       -8.827001   -4.829036   -0.899033
     39          6           0       -5.439424   -4.411008    0.138255
     40          8           0       -5.238533   -5.585801    0.012913
     41          6           0       -4.244760   -3.420202    0.441228
     42          6           0       -3.578869   -3.761540    1.783418
     43          8           0       -3.841488   -3.227237    2.874628
     44          8           0       -2.737047   -4.804615    1.711498
     45          6           0       -2.271505   -5.382335    2.893597
     46          6           0        2.797530   -0.685309   -1.278856
     47          6           0        4.063988   -0.483225   -0.593840
     48          6           0        5.109220    0.432453   -0.920277
     49          6           0        4.937014    1.349079   -2.115932
     50          6           0        6.399005    0.432525   -0.122893
     51          6           0        7.542014    0.023636   -0.936359
     52          6           0        8.927336    0.040666   -0.142032
     53          6           0       10.127718   -0.329432   -0.956368
     54          6           0       10.205696   -1.766057   -1.407287
     55          6           0       11.468982   -0.087381   -0.177730
     56          6           0       12.820395   -0.255396   -0.794838
     57          6           0       14.027603    0.038065    0.159942
     58          6           0       15.388674   -0.199590   -0.564280
     59          6           0       15.779902   -1.648528   -0.928267
     60          6           0       16.414696    0.463739    0.300559
     61          6           0       17.826502    0.517658   -0.244492
     62          6           0       18.836195    1.082374    0.844183
     63          6           0       20.301290    1.050971    0.399486
     64          6           0       20.548774    1.712783   -0.970651
     65          6           0       21.246072    1.743456    1.417048
     66          1           0       -4.006076    3.496906    1.478957
     67          1           0      -10.062132    3.923303   -0.557007
     68          1           0      -10.208092   -2.613137   -0.935728
     69          1           0       -2.398216   -1.072646    1.877811
     70          1           0       -2.234143    1.532296    1.094638
     71          1           0       -1.929875    0.828190    3.553765
     72          1           0       -2.723658    2.295916    3.541527
     73          1           0       -3.618108    0.768126    3.740381
     74          1           0       -2.109366   -1.597068   -0.339361
     75          1           0       -2.046329    0.078833   -0.784721
     76          1           0       -0.195524    0.646191    0.991744
     77          1           0       -0.046118   -1.049048    1.282181
     78          1           0       -4.694417    6.258373    0.588314
     79          1           0       -6.218013    6.707685    1.842254
     80          1           0       -4.778767    5.428706    2.087535
     81          1           0       -9.659436    5.989560    0.430355
     82          1           0       -8.871723    8.007151    0.126076
     83          1           0       -6.955524    7.456437    0.400524
     84          1           0      -12.091455    2.795224   -2.576754
     85          1           0      -13.233123    2.035570   -1.260570
     86          1           0      -12.052364    3.505250   -0.822231
     87          1           0      -12.447420   -1.727394   -1.181331
     88          1           0      -13.506778   -0.151446   -1.590330
     89          1           0      -13.378727   -1.483048   -3.603254
     90          1           0      -12.376818   -0.002784   -3.749917
     91          1           0      -11.406112   -1.522795   -3.502209
     92          1           0       -9.307777   -4.592381   -1.674367
     93          1           0       -8.300016   -5.758883   -0.999003
     94          1           0       -9.773468   -5.058619   -0.382067
     95          1           0       -3.625860   -3.567680   -0.492883
     96          1           0       -1.879498   -4.404453    3.488700
     97          1           0       -3.031350   -5.984011    3.475790
     98          1           0       -1.348806   -5.914322    2.720055
     99          1           0        2.740675   -1.666417   -1.811670
    100          1           0        2.500651    0.167761   -2.082794
    101          1           0        4.282307   -1.091686    0.387576
    102          1           0        3.824636    1.263200   -2.477437
    103          1           0        5.219868    2.336810   -2.007575
    104          1           0        5.367390    0.978241   -2.930550
    105          1           0        6.518589    1.523265    0.275930
    106          1           0        6.026338   -0.182408    0.795304
    107          1           0        7.537429   -0.988705   -1.183133
    108          1           0        7.692073    0.719926   -1.784518
    109          1           0        9.171744    1.030718    0.178577
    110          1           0        8.883900   -0.722213    0.875832
    111          1           0       10.169229    0.439973   -1.768665
    112          1           0        9.385071   -1.824518   -2.016123
    113          1           0       11.058887   -1.988737   -1.918169
    114          1           0        9.923841   -2.410919   -0.646595
    115          1           0       11.454888    1.026208    0.375035
    116          1           0       11.441018   -0.729178    0.747224
    117          1           0       13.025401   -1.404326   -1.057568
    118          1           0       12.984673    0.516543   -1.669362
    119          1           0       13.950791    1.002984    0.733535
    120          1           0       14.054498   -0.718993    0.944070
    121          1           0       15.393590    0.421012   -1.389434
    122          1           0       16.148928   -2.273209    0.050633
    123          1           0       14.869993   -2.354727   -1.302986
    124          1           0       16.679261   -1.693631   -1.623728
    125          1           0       15.873480    1.424028    0.343296
    126          1           0       16.447851   -0.060899    1.352577
    127          1           0       18.186417   -0.469182   -0.635298
    128          1           0       17.866993    1.272514   -1.169426
    129          1           0       18.406956    2.128025    1.135717
    130          1           0       18.756181    0.415739    1.683826
    131          1           0       20.917934    0.024397    0.195412
    132          1           0       20.241343    2.684592   -0.870077
    133          1           0       21.529065    1.853371   -1.099853
    134          1           0       20.155536    1.306054   -1.957034
    135          1           0       21.261023    1.274782    2.392634
    136          1           0       22.319056    1.772149    1.216833
    137          1           0       20.998211    2.691107    1.981054
 ---------------------------------------------------------------------

 SCF Done:  E(RCAM-B3LYP) =  -2932.71629533     A.U. after   15 cycles

 Excitation energies and oscillator strengths:

 Excited State   1:      Singlet-A      2.1157 eV  586.02 nm  f=0.3190  <S**2>=0.000
     240 -> 242        0.10202
     240 -> 243       -0.22216
     241 -> 242        0.65437
 This state for optimization and/or second-order correction.
 Total Energy, E(TD-HF/TD-KS) =  -2932.63854450
 Copying the excited state density for this state as the 1-particle RhoCI density.

 The electronic state is 1-A.
 Alpha  occ. eigenvalues --  -46.83747 -19.26069 -19.25968 -19.21814 -19.20252
 Alpha  occ. eigenvalues --  -19.20198 -14.40660 -14.39938 -14.39360 -14.38929
 Alpha  occ. eigenvalues --  -10.39581 -10.39439 -10.35006 -10.32777 -10.31719
 Alpha  occ. eigenvalues --  -10.30583 -10.30560 -10.30340 -10.29251 -10.29046
 Alpha  occ. eigenvalues --  -10.29039 -10.28962 -10.28931 -10.28683 -10.28574
 Alpha  occ. eigenvalues --  -10.28549 -10.28458 -10.28440 -10.28281 -10.28130
 Alpha  occ. eigenvalues --  -10.27861 -10.27720 -10.27570 -10.27506 -10.27421
 Alpha  occ. eigenvalues --  -10.27377 -10.27335 -10.27127 -10.27051 -10.26957
 Alpha  occ. eigenvalues --  -10.26835 -10.26758 -10.26744 -10.26551 -10.26472
 Alpha  occ. eigenvalues --  -10.26379 -10.26136 -10.26118 -10.26021 -10.26019
 Alpha  occ. eigenvalues --  -10.26008 -10.25878 -10.25751 -10.25612 -10.25390
 Alpha  occ. eigenvalues --  -10.25328 -10.25312 -10.25302 -10.25151 -10.25094
 Alpha  occ. eigenvalues --  -10.24970 -10.24749 -10.24356 -10.22349 -10.22244
 Alpha  occ. eigenvalues --   -3.12814  -1.87526  -1.87038  -1.87006  -1.18219
 Alpha  occ. eigenvalues --   -1.17781  -1.11967  -1.10144  -1.07636  -1.05162
 Alpha  occ. eigenvalues --   -1.03611  -1.02589  -1.00374  -0.92207  -0.91484
 Alpha  occ. eigenvalues --   -0.90716  -0.90067  -0.89672  -0.89517  -0.89422
 Alpha  occ. eigenvalues --   -0.88269  -0.88096  -0.87698  -0.87282  -0.85718
 Alpha  occ. eigenvalues --   -0.84941  -0.83845  -0.83592  -0.83044  -0.82608
 Alpha  occ. eigenvalues --   -0.81474  -0.81412  -0.80697  -0.80251  -0.78812
 Alpha  occ. eigenvalues --   -0.77771  -0.77328  -0.76632  -0.76477  -0.76348
 Alpha  occ. eigenvalues --   -0.75119  -0.74952  -0.74535  -0.73966  -0.73055
 Alpha  occ. eigenvalues --   -0.72348  -0.70845  -0.69089  -0.68651  -0.68098
 Alpha  occ. eigenvalues --   -0.66921  -0.66742  -0.66166  -0.64697  -0.63605
 Alpha  occ. eigenvalues --   -0.63524  -0.62904  -0.62524  -0.62226  -0.61799
 Alpha  occ. eigenvalues --   -0.61316  -0.60447  -0.60051  -0.59402  -0.59059
 Alpha  occ. eigenvalues --   -0.58651  -0.58378  -0.57397  -0.57096  -0.56455
 Alpha  occ. eigenvalues --   -0.55971  -0.55820  -0.55575  -0.55390  -0.54770
 Alpha  occ. eigenvalues --   -0.54627  -0.53959  -0.53659  -0.53520  -0.53277
 Alpha  occ. eigenvalues --   -0.53166  -0.52187  -0.52080  -0.52062  -0.51680
 Alpha  occ. eigenvalues --   -0.51228  -0.50982  -0.50918  -0.50732  -0.50560
 Alpha  occ. eigenvalues --   -0.50205  -0.50177  -0.50024  -0.49836  -0.49549
 Alpha  occ. eigenvalues --   -0.49304  -0.49080  -0.48910  -0.48599  -0.48398
 Alpha  occ. eigenvalues --   -0.47804  -0.47695  -0.47521  -0.47426  -0.47361
 Alpha  occ. eigenvalues --   -0.47153  -0.46709  -0.46625  -0.46375  -0.46290
 Alpha  occ. eigenvalues --   -0.46072  -0.45798  -0.45660  -0.45395  -0.45241
 Alpha  occ. eigenvalues --   -0.45089  -0.44700  -0.44540  -0.44222  -0.44044
 Alpha  occ. eigenvalues --   -0.43956  -0.43788  -0.43451  -0.43265  -0.43162
 Alpha  occ. eigenvalues --   -0.42934  -0.42468  -0.42383  -0.42347  -0.41991
 Alpha  occ. eigenvalues --   -0.41732  -0.41596  -0.41462  -0.41210  -0.40893
 Alpha  occ. eigenvalues --   -0.40738  -0.40688  -0.40315  -0.40162  -0.40065
 Alpha  occ. eigenvalues --   -0.39959  -0.39868  -0.39716  -0.39309  -0.39111
 Alpha  occ. eigenvalues --   -0.38980  -0.38947  -0.38579  -0.38213  -0.38138
 Alpha  occ. eigenvalues --   -0.37918  -0.37571  -0.37341  -0.37230  -0.36772
 Alpha  occ. eigenvalues --   -0.36278  -0.36089  -0.35876  -0.35408  -0.35297
 Alpha  occ. eigenvalues --   -0.35167  -0.35083  -0.34761  -0.33965  -0.33463
 Alpha  occ. eigenvalues --   -0.33193  -0.32965  -0.32563  -0.31874  -0.30086
 Alpha  occ. eigenvalues --   -0.30011  -0.28766  -0.28527  -0.27354  -0.23941
 Alpha  occ. eigenvalues --   -0.21406
 Alpha virt. eigenvalues --   -0.06548  -0.03092   0.02201   0.04468   0.05201
 Alpha virt. eigenvalues --    0.05866   0.05934   0.06452   0.06883   0.07793
 Alpha virt. eigenvalues --    0.08143   0.10403   0.11372   0.11667   0.11690

 Mulliken charges:
               1
     1  Mg   0.813811
     2  C    0.063389
     3  C   -0.203904
     4  C   -0.150376
     5  C   -0.164746
     6  N   -0.676618
     7  C    0.325021
     8  C   -0.144853
     9  C   -0.155523
    10  C    0.349235
    11  C   -0.313762
    12  C   -0.159736
    13  C   -0.283339
    14  C    0.602855
    15  O   -0.452893
    16  O   -0.481754
    17  N   -0.716930
    18  C    0.324052
    19  C    0.039814
    20  C    0.011112
    21  C    0.317188
    22  C   -0.364190
    23  C   -0.097655
    24  C   -0.247811
    25  N   -0.698200
    26  C    0.307162
    27  C    0.013556
    28  C    0.067969
    29  C    0.295384
    30  C   -0.362359
    31  C   -0.269735
    32  C   -0.289474
    33  N   -0.732565
    34  C    0.262501
    35  C    0.014044
    36  C    0.029430
    37  C    0.253797
    38  C   -0.353959
    39  C    0.347543
    40  O   -0.445273
    41  C   -0.315088
    42  C    0.622847
    43  O   -0.487738
    44  O   -0.431300
    45  C   -0.077849
    46  C    0.015387
    47  C   -0.133185
    48  C    0.099553
    49  C   -0.362333
    50  C   -0.214081
    51  C   -0.164371
    52  C   -0.169380
    53  C   -0.066650
    54  C   -0.306851
    55  C   -0.155180
    56  C   -0.161186
    57  C   -0.194047
    58  C   -0.045236
    59  C   -0.307799
    60  C   -0.157275
    61  C   -0.185369
    62  C   -0.166498
    63  C   -0.050980
    64  C   -0.303458
    65  C   -0.335335
    66  H    0.078874
    67  H    0.089595
    68  H    0.091771
    69  H    0.117004
    70  H    0.097796
    71  H    0.119094
    72  H    0.097298
    73  H    0.130833
    74  H    0.127995
    75  H    0.120541
    76  H    0.126326
    77  H    0.140702
    78  H    0.123437
    79  H    0.111167
    80  H    0.124483
    81  H    0.091200
    82  H    0.105715
    83  H    0.098927
    84  H    0.103614
    85  H    0.102846
    86  H    0.112834
    87  H    0.084637
    88  H    0.093241
    89  H    0.082277
    90  H    0.124064
    91  H    0.103234
    92  H    0.131323
    93  H    0.148474
    94  H    0.117739
    95  H    0.162446
    96  H    0.103227
    97  H    0.131534
    98  H    0.125885
    99  H    0.133412
   100  H    0.103008
   101  H    0.085813
   102  H    0.087432
   103  H    0.119781
   104  H    0.138250
   105  H    0.091224
   106  H    0.095072
   107  H    0.117741
   108  H    0.103509
   109  H    0.097244
   110  H    0.051156
   111  H    0.077856
   112  H    0.102648
   113  H    0.115083
   114  H    0.107806
   115  H    0.041325
   116  H    0.082105
   117  H    0.083198
   118  H    0.077325
   119  H    0.091126
   120  H    0.095000
   121  H    0.096643
   122  H    0.077385
   123  H    0.084313
   124  H    0.111091
   125  H    0.089998
   126  H    0.069448
   127  H    0.095489
   128  H    0.077011
   129  H    0.092356
   130  H    0.102486
   131  H    0.075977
   132  H    0.104642
   133  H    0.103078
   134  H    0.090565
   135  H    0.097970
   136  H    0.103752
   137  H    0.091738
 Sum of Mulliken charges =   0.00000

 Dipole moment (field-independent basis, Debye):
    X=              1.9345    Y=              4.5157    Z=             -0.1360  Tot=              4.9145
 Quadrupole moment (field-independent basis, Debye-Ang):
   XX=           -348.7872   YY=           -389.8716   ZZ=           -400.8354
   XY=            -20.5796   XZ=             11.9407   YZ=             -0.0315

 Normal termination of Gaussian 09 at Fri Jun 28 12:25:12 2019.
