 Gaussian 09, Revision D.01,
 Gaussian 09:  ES64L-G09RevD.01 24-Apr-2013

 -------------------------------------
 # td=(NStates=1) CAM-B3LYP/6-31G(d,p)
 -------------------------------------

 --
 TD
 --
 Symbolic Z-matrix:
 Charge =  0 Multiplicity = 1

                         Standard orientation:
 ---------------------------------------------------------------------
 Center     Atomic      Atomic             Coordinates (Angstroms)
 Number     Number       Type             X           Y           Z
 ---------------------------------------------------------------------
      1         12           0       -7.180078    0.588751    0.136970
      2          6           0       -4.887869   -1.994704    0.481998
      3          6           0       -4.818933    2.798860    1.145079
      4          6           0       -9.388215    3.114621   -0.131605
      5          6           0       -9.497471   -1.612589   -0.816025
      6          7           0       -5.039632    0.418659    0.568220
      7          6           0       -4.313134   -0.722966    0.734597
      8          6           0       -2.971515   -0.482958    1.251199
      9          6           0       -3.032395    1.022971    1.637229
     10          6           0       -4.293221    1.523375    1.089630
     11          6           0       -2.783556    1.300107    3.192933
     12          6           0       -1.917120   -0.610136    0.135822
     13          6           0       -0.435449   -0.580271    0.531880
     14          6           0        0.433545   -0.851681   -0.578613
     15          8           0        0.056085   -1.124237   -1.674530
     16          8           0        1.754049   -0.549455   -0.291382
     17          7           0       -7.095067    2.626628    0.366874
     18          6           0       -6.055369    3.344840    0.796298
     19          6           0       -6.445135    4.715800    0.904037
     20          6           0       -7.745851    4.868466    0.374236
     21          6           0       -8.122313    3.498319    0.228132
     22          6           0       -5.636253    5.820503    1.326231
     23          6           0       -8.549563    6.079082    0.255635
     24          6           0       -8.079072    7.272041    0.013601
     25          7           0       -9.086544    0.648377   -0.476658
     26          6           0       -9.877406    1.876711   -0.600101
     27          6           0      -11.167063    1.543410   -1.047918
     28          6           0      -11.229166    0.136277   -1.254008
     29          6           0       -9.885807   -0.297334   -0.886076
     30          6           0      -12.304286    2.543067   -1.215175
     31          6           0      -12.308501   -0.657901   -1.808677
     32          6           0      -12.307512   -0.996440   -3.241842
     33          7           0       -7.199412   -1.356049   -0.227338
     34          6           0       -8.226937   -2.200709   -0.567101
     35          6           0       -7.837133   -3.619154   -0.462392
     36          6           0       -6.477725   -3.526295   -0.096228
     37          6           0       -6.209102   -2.144943    0.097820
     38          6           0       -8.582272   -4.854768   -0.871378
     39          6           0       -5.294567   -4.302496    0.221803
     40          8           0       -5.260451   -5.485279    0.250390
     41          6           0       -4.117611   -3.343020    0.556795
     42          6           0       -3.486537   -3.688269    1.921832
     43          8           0       -3.843599   -3.186670    2.950091
     44          8           0       -2.542562   -4.622197    1.830957
     45          6           0       -2.057435   -5.079933    3.084650
     46          6           0        2.713272   -0.872022   -1.373761
     47          6           0        4.034149   -0.655380   -0.582381
     48          6           0        5.025444    0.087455   -1.010115
     49          6           0        5.060806    0.950863   -2.214087
     50          6           0        6.409756    0.291909   -0.253037
     51          6           0        7.594092   -0.329567   -1.065418
     52          6           0        8.869964   -0.199212   -0.165661
     53          6           0       10.099503   -0.685635   -0.875429
     54          6           0       10.240205   -2.169189   -1.344036
     55          6           0       11.342975   -0.280216   -0.112632
     56          6           0       12.681262   -0.516589   -0.734689
     57          6           0       13.962318    0.054958    0.111151
     58          6           0       15.320548   -0.068117   -0.575690
     59          6           0       15.611803   -1.635984   -0.792925
     60          6           0       16.353396    0.541407    0.270302
     61          6           0       17.818289    0.545919   -0.155667
     62          6           0       18.704436    1.414458    0.788481
     63          6           0       20.130476    1.452985    0.278431
     64          6           0       20.361505    2.313319   -0.927121
     65          6           0       21.089288    2.003836    1.397972
     66          1           0       -4.324348    3.665838    1.488993
     67          1           0      -10.114400    3.888518   -0.116573
     68          1           0      -10.197170   -2.312668   -1.293264
     69          1           0       -2.810124   -1.160596    2.309188
     70          1           0       -2.136914    1.647450    1.060492
     71          1           0       -1.746283    1.368882    3.385268
     72          1           0       -3.116920    2.408345    3.363995
     73          1           0       -3.471511    0.533349    3.570097
     74          1           0       -1.881995   -1.587298   -0.364009
     75          1           0       -2.195276    0.211322   -0.628463
     76          1           0       -0.005709    0.407053    0.901183
     77          1           0       -0.180914   -1.242329    1.341857
     78          1           0       -5.149959    6.244680    0.403918
     79          1           0       -6.286790    6.805644    1.738714
     80          1           0       -4.600769    5.677707    2.136671
     81          1           0       -9.641081    6.076627    0.294766
     82          1           0       -8.882183    8.155492   -0.226447
     83          1           0       -7.001822    7.310997   -0.098779
     84          1           0      -12.172138    3.232360   -2.068771
     85          1           0      -13.278434    1.788180   -1.332808
     86          1           0      -12.580756    3.122201   -0.323317
     87          1           0      -12.460278   -1.570152   -1.259739
     88          1           0      -13.302207   -0.270491   -1.527695
     89          1           0      -12.930844   -1.784816   -3.613138
     90          1           0      -12.577322   -0.230938   -3.994957
     91          1           0      -11.212724   -1.125579   -3.511690
     92          1           0       -9.014187   -4.798867   -1.854588
     93          1           0       -7.832940   -5.718307   -1.056182
     94          1           0       -9.377474   -5.201694   -0.011884
     95          1           0       -3.378321   -3.665449   -0.223483
     96          1           0       -1.217841   -4.263214    3.345263
     97          1           0       -2.806065   -5.070769    4.023651
     98          1           0       -1.580639   -6.068508    2.796497
     99          1           0        2.755999   -1.954689   -1.629105
    100          1           0        2.726313   -0.204968   -2.284558
    101          1           0        4.301662   -1.290383    0.173441
    102          1           0        4.173884    1.293983   -2.784571
    103          1           0        5.344900    2.015191   -2.110422
    104          1           0        5.796809    0.581343   -2.938134
    105          1           0        6.565806    1.309965    0.056226
    106          1           0        6.192105   -0.168674    0.619411
    107          1           0        7.205388   -1.260888   -1.493910
    108          1           0        8.069681    0.351835   -1.827591
    109          1           0        9.048483    0.921160    0.234135
    110          1           0        8.865133   -0.700155    0.736152
    111          1           0       10.237803   -0.145672   -1.875392
    112          1           0        9.421709   -2.323866   -1.905122
    113          1           0       11.198248   -2.519198   -1.841247
    114          1           0       10.246928   -2.684904   -0.464175
    115          1           0       11.404261    0.664703    0.293924
    116          1           0       11.237067   -0.783837    0.907932
    117          1           0       12.763754   -1.583653   -1.014418
    118          1           0       12.738064   -0.104305   -1.792708
    119          1           0       13.703197    1.266257    0.349374
    120          1           0       13.958394   -0.400401    1.169889
    121          1           0       15.085850    0.488300   -1.507940
    122          1           0       15.594334   -2.037011    0.253735
    123          1           0       14.834503   -2.088935   -1.325706
    124          1           0       16.678064   -1.794215   -1.308476
    125          1           0       16.126869    1.593137    0.411477
    126          1           0       16.181505    0.038716    1.391874
    127          1           0       18.234871   -0.485667   -0.276512
    128          1           0       17.837248    0.764633   -1.124008
    129          1           0       18.228880    2.524187    1.075685
    130          1           0       18.739457    0.971447    1.744294
    131          1           0       20.518218    0.423827   -0.023086
    132          1           0       19.997796    3.283580   -0.720685
    133          1           0       21.425076    2.457444   -1.167068
    134          1           0       20.150768    1.838644   -1.927022
    135          1           0       21.394233    1.480767    2.378617
    136          1           0       22.152812    2.026808    1.007005
    137          1           0       21.034374    3.254420    1.690465
 ---------------------------------------------------------------------

 SCF Done:  E(RCAM-B3LYP) =  -2932.69573081     A.U. after   16 cycles

 Excitation energies and oscillator strengths:

 Excited State   1:      Singlet-A      2.0429 eV  606.90 nm  f=0.2101  <S**2>=0.000
     240 -> 243       -0.27498
     241 -> 242        0.64489
 This state for optimization and/or second-order correction.
 Total Energy, E(TD-HF/TD-KS) =  -2932.62065480
 Copying the excited state density for this state as the 1-particle RhoCI density.

 The electronic state is 1-A.
 Alpha  occ. eigenvalues --  -46.83921 -19.27419 -19.25670 -19.21068 -19.20874
 Alpha  occ. eigenvalues --  -19.20281 -14.41512 -14.39082 -14.38836 -14.38618
 Alpha  occ. eigenvalues --  -10.39514 -10.38345 -10.34607 -10.33713 -10.32661
 Alpha  occ. eigenvalues --  -10.30671 -10.30430 -10.29613 -10.29156 -10.28950
 Alpha  occ. eigenvalues --  -10.28903 -10.28820 -10.28501 -10.28433 -10.28341
 Alpha  occ. eigenvalues --  -10.28294 -10.28111 -10.28020 -10.27574 -10.27474
 Alpha  occ. eigenvalues --  -10.27452 -10.27388 -10.27204 -10.27080 -10.26924
 Alpha  occ. eigenvalues --  -10.26831 -10.26759 -10.26751 -10.26711 -10.26661
 Alpha  occ. eigenvalues --  -10.26656 -10.26642 -10.26591 -10.26564 -10.26512
 Alpha  occ. eigenvalues --  -10.26443 -10.26145 -10.26067 -10.26014 -10.26007
 Alpha  occ. eigenvalues --  -10.25959 -10.25733 -10.25617 -10.25448 -10.25366
 Alpha  occ. eigenvalues --  -10.25140 -10.25081 -10.25037 -10.25027 -10.24787
 Alpha  occ. eigenvalues --  -10.24730 -10.24231 -10.24042 -10.23940 -10.23468
 Alpha  occ. eigenvalues --   -3.13062  -1.87757  -1.87293  -1.87260  -1.20029
 Alpha  occ. eigenvalues --   -1.17410  -1.13068  -1.10492  -1.09175  -1.05286
 Alpha  occ. eigenvalues --   -1.04628  -1.02824  -1.02231  -0.92369  -0.91256
 Alpha  occ. eigenvalues --   -0.90445  -0.90139  -0.89940  -0.89565  -0.89102
 Alpha  occ. eigenvalues --   -0.88745  -0.88317  -0.87424  -0.86872  -0.86062
 Alpha  occ. eigenvalues --   -0.84975  -0.84449  -0.83671  -0.83179  -0.82728
 Alpha  occ. eigenvalues --   -0.81503  -0.81084  -0.80472  -0.79619  -0.78153
 Alpha  occ. eigenvalues --   -0.77689  -0.76869  -0.76784  -0.76124  -0.75315
 Alpha  occ. eigenvalues --   -0.75009  -0.74621  -0.74147  -0.73319  -0.72187
 Alpha  occ. eigenvalues --   -0.72008  -0.70856  -0.69983  -0.69634  -0.67992
 Alpha  occ. eigenvalues --   -0.67503  -0.66415  -0.65036  -0.64972  -0.63644
 Alpha  occ. eigenvalues --   -0.63485  -0.63402  -0.63055  -0.62331  -0.62069
 Alpha  occ. eigenvalues --   -0.61299  -0.60750  -0.60459  -0.60185  -0.59217
 Alpha  occ. eigenvalues --   -0.58833  -0.58501  -0.57756  -0.57104  -0.56834
 Alpha  occ. eigenvalues --   -0.56515  -0.55590  -0.55501  -0.55355  -0.54787
 Alpha  occ. eigenvalues --   -0.54703  -0.54356  -0.54094  -0.53733  -0.53316
 Alpha  occ. eigenvalues --   -0.53228  -0.52812  -0.52496  -0.52372  -0.51607
 Alpha  occ. eigenvalues --   -0.51155  -0.50717  -0.50642  -0.50187  -0.50101
 Alpha  occ. eigenvalues --   -0.49976  -0.49723  -0.49578  -0.49370  -0.49141
 Alpha  occ. eigenvalues --   -0.49056  -0.48550  -0.48423  -0.48391  -0.48194
 Alpha  occ. eigenvalues --   -0.47607  -0.47485  -0.47444  -0.47165  -0.46916
 Alpha  occ. eigenvalues --   -0.46901  -0.46715  -0.46545  -0.46040  -0.45646
 Alpha  occ. eigenvalues --   -0.45484  -0.45351  -0.45201  -0.45118  -0.44922
 Alpha  occ. eigenvalues --   -0.44603  -0.44426  -0.44149  -0.43832  -0.43795
 Alpha  occ. eigenvalues --   -0.43635  -0.43554  -0.43441  -0.43338  -0.43230
 Alpha  occ. eigenvalues --   -0.43129  -0.42942  -0.42821  -0.42510  -0.42249
 Alpha  occ. eigenvalues --   -0.42017  -0.41917  -0.41716  -0.41489  -0.41460
 Alpha  occ. eigenvalues --   -0.41259  -0.40923  -0.40668  -0.40402  -0.39983
 Alpha  occ. eigenvalues --   -0.39906  -0.39831  -0.39655  -0.39244  -0.39015
 Alpha  occ. eigenvalues --   -0.38811  -0.38339  -0.37865  -0.37832  -0.37591
 Alpha  occ. eigenvalues --   -0.37308  -0.37143  -0.37136  -0.36766  -0.36566
 Alpha  occ. eigenvalues --   -0.36340  -0.36021  -0.35985  -0.35976  -0.35781
 Alpha  occ. eigenvalues --   -0.35431  -0.35319  -0.34704  -0.34161  -0.34098
 Alpha  occ. eigenvalues --   -0.33804  -0.33491  -0.31952  -0.30800  -0.30375
 Alpha  occ. eigenvalues --   -0.30157  -0.29732  -0.28073  -0.27146  -0.22548
 Alpha  occ. eigenvalues --   -0.21005
 Alpha virt. eigenvalues --   -0.06117  -0.03131   0.02154   0.04269   0.05319
 Alpha virt. eigenvalues --    0.06207   0.06427   0.07234   0.07480   0.07584
 Alpha virt. eigenvalues --    0.08306   0.10586   0.11281   0.11632   0.12018

 Mulliken charges:
               1
     1  Mg   0.827080
     2  C    0.018099
     3  C   -0.168291
     4  C   -0.188760
     5  C   -0.197967
     6  N   -0.632728
     7  C    0.337715
     8  C   -0.180503
     9  C   -0.177637
    10  C    0.356327
    11  C   -0.295090
    12  C   -0.164609
    13  C   -0.284090
    14  C    0.624977
    15  O   -0.456616
    16  O   -0.502179
    17  N   -0.714834
    18  C    0.318574
    19  C    0.035489
    20  C    0.033395
    21  C    0.299630
    22  C   -0.418202
    23  C   -0.043573
    24  C   -0.256963
    25  N   -0.695813
    26  C    0.257531
    27  C    0.022969
    28  C    0.037551
    29  C    0.341330
    30  C   -0.367079
    31  C   -0.255906
    32  C   -0.308843
    33  N   -0.727475
    34  C    0.245795
    35  C    0.029578
    36  C    0.000670
    37  C    0.364850
    38  C   -0.384855
    39  C    0.358939
    40  O   -0.438895
    41  C   -0.301128
    42  C    0.630704
    43  O   -0.472013
    44  O   -0.434361
    45  C   -0.090946
    46  C    0.015944
    47  C   -0.129834
    48  C    0.092101
    49  C   -0.374789
    50  C   -0.212285
    51  C   -0.180182
    52  C   -0.182501
    53  C   -0.075044
    54  C   -0.309215
    55  C   -0.164128
    56  C   -0.187540
    57  C   -0.166526
    58  C   -0.067267
    59  C   -0.300485
    60  C   -0.143022
    61  C   -0.186774
    62  C   -0.147799
    63  C   -0.052784
    64  C   -0.304309
    65  C   -0.314769
    66  H    0.057456
    67  H    0.080787
    68  H    0.083191
    69  H    0.118629
    70  H    0.083869
    71  H    0.122218
    72  H    0.098408
    73  H    0.132790
    74  H    0.126146
    75  H    0.121138
    76  H    0.134812
    77  H    0.141696
    78  H    0.132096
    79  H    0.108484
    80  H    0.079926
    81  H    0.095457
    82  H    0.099131
    83  H    0.102735
    84  H    0.128739
    85  H    0.088147
    86  H    0.123454
    87  H    0.115337
    88  H    0.099664
    89  H    0.109278
    90  H    0.103499
    91  H    0.102526
    92  H    0.133102
    93  H    0.141485
    94  H    0.114315
    95  H    0.159487
    96  H    0.102459
    97  H    0.146716
    98  H    0.132390
    99  H    0.127770
   100  H    0.129477
   101  H    0.082390
   102  H    0.099944
   103  H    0.108519
   104  H    0.122929
   105  H    0.107793
   106  H    0.103048
   107  H    0.109662
   108  H    0.107757
   109  H    0.087266
   110  H    0.101466
   111  H    0.067173
   112  H    0.107744
   113  H    0.102982
   114  H    0.110427
   115  H    0.092855
   116  H    0.065148
   117  H    0.089401
   118  H    0.081205
   119  H    0.053217
   120  H    0.083048
   121  H    0.087417
   122  H    0.101080
   123  H    0.111888
   124  H    0.084072
   125  H    0.092968
   126  H    0.051395
   127  H    0.085107
   128  H    0.108906
   129  H    0.065790
   130  H    0.111208
   131  H    0.089465
   132  H    0.112124
   133  H    0.098967
   134  H    0.095001
   135  H    0.097547
   136  H    0.092727
   137  H    0.062912
 Sum of Mulliken charges =   0.00000

 Dipole moment (field-independent basis, Debye):
    X=              2.0844    Y=              2.6520    Z=              0.1952  Tot=              3.3787
 Quadrupole moment (field-independent basis, Debye-Ang):
   XX=           -344.2211   YY=           -391.0926   ZZ=           -397.5875
   XY=            -21.7803   XZ=              2.5618   YZ=             -2.1019

 Normal termination of Gaussian 09 at Wed Jun 26 21:33:22 2019.
