 Gaussian 09, Revision D.01,
 Gaussian 09:  ES64L-G09RevD.01 24-Apr-2013

 -------------------------------------
 # td=(NStates=1) CAM-B3LYP/6-31G(d,p)
 -------------------------------------

 --
 TD
 --
 Symbolic Z-matrix:
 Charge =  0 Multiplicity = 1

                         Standard orientation:
 ---------------------------------------------------------------------
 Center     Atomic      Atomic             Coordinates (Angstroms)
 Number     Number       Type             X           Y           Z
 ---------------------------------------------------------------------
      1         12           0       -7.177560    0.642876    0.092123
      2          6           0       -4.857224   -1.984243    0.469203
      3          6           0       -4.870371    2.782089    1.262289
      4          6           0       -9.476537    3.093740   -0.292829
      5          6           0       -9.485969   -1.733101   -0.970708
      6          7           0       -5.144150    0.386639    0.810267
      7          6           0       -4.373980   -0.774584    0.848749
      8          6           0       -2.963578   -0.451574    1.230902
      9          6           0       -3.210556    0.947863    1.837072
     10          6           0       -4.427625    1.420788    1.199022
     11          6           0       -3.168010    1.052172    3.422929
     12          6           0       -1.972344   -0.495536    0.066673
     13          6           0       -0.493108   -0.256470    0.557880
     14          6           0        0.551927   -0.571582   -0.543560
     15          8           0        0.248830   -0.865041   -1.633325
     16          8           0        1.770133   -0.366835    0.035945
     17          7           0       -7.159937    2.605759    0.388330
     18          6           0       -6.164566    3.306733    0.804136
     19          6           0       -6.470250    4.725081    0.864036
     20          6           0       -7.756225    4.822358    0.432773
     21          6           0       -8.239709    3.518095    0.187043
     22          6           0       -5.556933    5.808937    1.443860
     23          6           0       -8.603460    6.034454    0.296241
     24          6           0       -8.201820    7.296410    0.029492
     25          7           0       -9.124098    0.699621   -0.605546
     26          6           0       -9.885117    1.790637   -0.623023
     27          6           0      -11.212608    1.437920   -1.147997
     28          6           0      -11.271647    0.050068   -1.283493
     29          6           0       -9.884756   -0.411058   -0.991223
     30          6           0      -12.235078    2.412963   -1.476777
     31          6           0      -12.327993   -0.834192   -1.860289
     32          6           0      -12.123710   -1.159825   -3.387160
     33          7           0       -7.178206   -1.399965   -0.280295
     34          6           0       -8.259867   -2.311726   -0.660892
     35          6           0       -7.690134   -3.534541   -0.557735
     36          6           0       -6.415063   -3.568553   -0.126165
     37          6           0       -6.171040   -2.153338    0.067962
     38          6           0       -8.540229   -4.803940   -0.963745
     39          6           0       -5.251833   -4.429076    0.175827
     40          8           0       -5.082633   -5.606600    0.142993
     41          6           0       -4.125918   -3.319911    0.520898
     42          6           0       -3.547972   -3.664310    1.932751
     43          8           0       -3.794714   -3.192963    2.935463
     44          8           0       -2.728983   -4.683371    1.796750
     45          6           0       -2.106855   -5.092033    3.007056
     46          6           0        2.805022   -0.552050   -0.989124
     47          6           0        4.137973   -0.336354   -0.425176
     48          6           0        5.114017    0.397231   -0.981085
     49          6           0        5.014873    1.316661   -2.118588
     50          6           0        6.448761    0.510366   -0.117321
     51          6           0        7.660190   -0.246317   -0.887728
     52          6           0        8.987881   -0.160921   -0.117930
     53          6           0       10.214726   -0.567380   -0.853450
     54          6           0       10.153546   -2.012165   -1.396878
     55          6           0       11.433955   -0.253523    0.043981
     56          6           0       12.720296   -0.668072   -0.675839
     57          6           0       14.031899   -0.209356    0.147504
     58          6           0       15.327035   -0.214018   -0.518075
     59          6           0       15.748521   -1.635751   -1.071447
     60          6           0       16.421051    0.436535    0.342044
     61          6           0       17.824457    0.485646   -0.334717
     62          6           0       18.831671    1.213334    0.630196
     63          6           0       20.245933    1.322603    0.143816
     64          6           0       20.376513    2.219988   -1.098254
     65          6           0       21.170974    1.924714    1.352195
     66          1           0       -4.150170    3.511377    1.708494
     67          1           0      -10.244559    3.822425   -0.424981
     68          1           0      -10.357940   -2.407738   -1.128106
     69          1           0       -2.728426   -0.874109    2.081879
     70          1           0       -2.404946    1.583854    1.542990
     71          1           0       -2.234929    0.729086    3.697909
     72          1           0       -3.509184    1.960148    3.685877
     73          1           0       -4.029144    0.390881    3.769800
     74          1           0       -2.060331   -1.482095   -0.652212
     75          1           0       -2.095501    0.452689   -0.695226
     76          1           0       -0.341476    0.654107    1.104518
     77          1           0       -0.129600   -0.890361    1.424351
     78          1           0       -5.125681    6.215053    0.559994
     79          1           0       -6.261507    6.733001    1.726930
     80          1           0       -5.003975    5.451195    2.181548
     81          1           0       -9.493853    5.779690    0.324879
     82          1           0       -8.849646    8.187203    0.035887
     83          1           0       -7.149566    7.553916   -0.338620
     84          1           0      -11.963868    3.155866   -2.258923
     85          1           0      -13.175195    2.024673   -1.877489
     86          1           0      -12.650220    3.005643   -0.584181
     87          1           0      -12.290462   -1.852678   -1.433617
     88          1           0      -13.402772   -0.585080   -1.622927
     89          1           0      -12.987219   -1.654409   -3.688106
     90          1           0      -12.151048   -0.345504   -3.970897
     91          1           0      -11.244281   -1.860579   -3.552393
     92          1           0       -8.916067   -4.867898   -1.963289
     93          1           0       -7.979287   -5.743266   -0.973239
     94          1           0       -9.549909   -5.039984   -0.552903
     95          1           0       -3.389964   -3.578688   -0.136535
     96          1           0       -1.633431   -4.286961    3.480625
     97          1           0       -2.825540   -5.337263    3.667597
     98          1           0       -1.248523   -5.822927    2.765491
     99          1           0        2.717278   -1.545506   -1.340570
    100          1           0        2.465461    0.101470   -1.769756
    101          1           0        4.225530   -0.728460    0.431447
    102          1           0        3.903385    1.291689   -2.634014
    103          1           0        4.925215    2.224908   -1.776196
    104          1           0        5.739949    1.148827   -2.876583
    105          1           0        6.500798    1.406931    0.083951
    106          1           0        6.172014    0.020745    0.755629
    107          1           0        7.307129   -1.214029   -0.886498
    108          1           0        7.717102    0.080633   -2.005490
    109          1           0        9.239267    0.884986    0.131626
    110          1           0        8.818788   -0.515163    0.843453
    111          1           0       10.188369    0.245385   -1.664115
    112          1           0        9.047624   -2.129176   -1.951749
    113          1           0       10.973855   -2.055443   -2.084302
    114          1           0       10.430838   -2.708194   -0.536013
    115          1           0       11.333388    0.724324    0.357953
    116          1           0       11.328185   -0.800386    1.005265
    117          1           0       12.796273   -1.726127   -0.732841
    118          1           0       12.730859   -0.086016   -1.670847
    119          1           0       13.844756    0.939225    0.558022
    120          1           0       14.013240   -1.016440    1.019532
    121          1           0       15.390853    0.428605   -1.555857
    122          1           0       16.176564   -2.293801   -0.281950
    123          1           0       14.869259   -1.974702   -1.414907
    124          1           0       16.670063   -1.652455   -1.810979
    125          1           0       16.222422    1.548083    0.721585
    126          1           0       16.437255   -0.264284    1.247230
    127          1           0       18.250000   -0.532152   -0.528535
    128          1           0       17.737208    1.148830   -1.400329
    129          1           0       18.574140    2.276813    0.989147
    130          1           0       18.767075    0.599530    1.691236
    131          1           0       20.585632    0.259523    0.000243
    132          1           0       20.209637    3.276748   -0.837506
    133          1           0       21.508873    2.251172   -1.293696
    134          1           0       19.584914    2.053182   -1.942204
    135          1           0       21.090055    1.251495    2.192203
    136          1           0       22.106401    1.885647    0.885420
    137          1           0       20.778156    3.040586    1.586543
 ---------------------------------------------------------------------

 SCF Done:  E(RCAM-B3LYP) =  -2932.67937984     A.U. after   15 cycles

 Excitation energies and oscillator strengths:

 Excited State   1:      Singlet-A      2.1656 eV  572.52 nm  f=0.2271  <S**2>=0.000
     240 -> 242       -0.14102
     240 -> 243        0.24578
     241 -> 242        0.63522
 This state for optimization and/or second-order correction.
 Total Energy, E(TD-HF/TD-KS) =  -2932.59979657
 Copying the excited state density for this state as the 1-particle RhoCI density.

 The electronic state is 1-A.
 Alpha  occ. eigenvalues --  -46.84228 -19.26027 -19.25049 -19.21929 -19.20470
 Alpha  occ. eigenvalues --  -19.20342 -14.40746 -14.39469 -14.39437 -14.38567
 Alpha  occ. eigenvalues --  -10.39040 -10.37568 -10.35005 -10.30313 -10.30213
 Alpha  occ. eigenvalues --  -10.30174 -10.29817 -10.29728 -10.29447 -10.29090
 Alpha  occ. eigenvalues --  -10.29041 -10.28733 -10.28044 -10.27760 -10.27748
 Alpha  occ. eigenvalues --  -10.27536 -10.27285 -10.27257 -10.27243 -10.27173
 Alpha  occ. eigenvalues --  -10.27173 -10.27092 -10.27064 -10.26896 -10.26801
 Alpha  occ. eigenvalues --  -10.26757 -10.26714 -10.26684 -10.26431 -10.26297
 Alpha  occ. eigenvalues --  -10.26256 -10.26221 -10.26180 -10.26147 -10.26121
 Alpha  occ. eigenvalues --  -10.26115 -10.26064 -10.26048 -10.26005 -10.25981
 Alpha  occ. eigenvalues --  -10.25899 -10.25783 -10.25594 -10.25577 -10.25512
 Alpha  occ. eigenvalues --  -10.25322 -10.25041 -10.24797 -10.24695 -10.24552
 Alpha  occ. eigenvalues --  -10.24276 -10.24178 -10.24125 -10.24042 -10.24006
 Alpha  occ. eigenvalues --   -3.13225  -1.87945  -1.87440  -1.87416  -1.20876
 Alpha  occ. eigenvalues --   -1.18754  -1.12204  -1.11374  -1.11359  -1.05296
 Alpha  occ. eigenvalues --   -1.04469  -1.03312  -1.02400  -0.91835  -0.91536
 Alpha  occ. eigenvalues --   -0.90653  -0.90019  -0.89501  -0.89394  -0.88755
 Alpha  occ. eigenvalues --   -0.87867  -0.87721  -0.86943  -0.86422  -0.85637
 Alpha  occ. eigenvalues --   -0.84722  -0.83998  -0.83644  -0.83363  -0.82477
 Alpha  occ. eigenvalues --   -0.81606  -0.81216  -0.80511  -0.79731  -0.78395
 Alpha  occ. eigenvalues --   -0.77926  -0.77352  -0.76906  -0.76020  -0.75259
 Alpha  occ. eigenvalues --   -0.75148  -0.74768  -0.74407  -0.73422  -0.72831
 Alpha  occ. eigenvalues --   -0.71878  -0.70813  -0.70546  -0.69453  -0.68986
 Alpha  occ. eigenvalues --   -0.67549  -0.67372  -0.65482  -0.65143  -0.64237
 Alpha  occ. eigenvalues --   -0.64203  -0.63767  -0.62598  -0.62498  -0.61512
 Alpha  occ. eigenvalues --   -0.61429  -0.60935  -0.60601  -0.60092  -0.59505
 Alpha  occ. eigenvalues --   -0.58796  -0.58733  -0.57517  -0.57422  -0.56870
 Alpha  occ. eigenvalues --   -0.56556  -0.56371  -0.55682  -0.55069  -0.54723
 Alpha  occ. eigenvalues --   -0.54558  -0.54039  -0.53691  -0.53593  -0.53051
 Alpha  occ. eigenvalues --   -0.52872  -0.52819  -0.52595  -0.52380  -0.52044
 Alpha  occ. eigenvalues --   -0.51851  -0.51660  -0.51316  -0.51006  -0.50917
 Alpha  occ. eigenvalues --   -0.50490  -0.50371  -0.50225  -0.50021  -0.49678
 Alpha  occ. eigenvalues --   -0.49593  -0.49317  -0.49240  -0.48914  -0.48700
 Alpha  occ. eigenvalues --   -0.48311  -0.48139  -0.48062  -0.47685  -0.47504
 Alpha  occ. eigenvalues --   -0.47277  -0.46454  -0.46076  -0.46041  -0.45767
 Alpha  occ. eigenvalues --   -0.45616  -0.45366  -0.45255  -0.45190  -0.45013
 Alpha  occ. eigenvalues --   -0.44712  -0.44535  -0.44468  -0.44302  -0.44189
 Alpha  occ. eigenvalues --   -0.43829  -0.43766  -0.43596  -0.43371  -0.43311
 Alpha  occ. eigenvalues --   -0.43188  -0.42851  -0.42741  -0.42526  -0.42454
 Alpha  occ. eigenvalues --   -0.42421  -0.42015  -0.41906  -0.41864  -0.41411
 Alpha  occ. eigenvalues --   -0.41392  -0.41140  -0.40976  -0.40911  -0.40736
 Alpha  occ. eigenvalues --   -0.40467  -0.40168  -0.39837  -0.39801  -0.39608
 Alpha  occ. eigenvalues --   -0.39047  -0.38742  -0.38449  -0.38296  -0.37450
 Alpha  occ. eigenvalues --   -0.37319  -0.37096  -0.36729  -0.36573  -0.36506
 Alpha  occ. eigenvalues --   -0.36370  -0.36295  -0.35930  -0.35795  -0.35785
 Alpha  occ. eigenvalues --   -0.35666  -0.35224  -0.34512  -0.34107  -0.33769
 Alpha  occ. eigenvalues --   -0.33127  -0.32920  -0.31982  -0.30806  -0.29896
 Alpha  occ. eigenvalues --   -0.29528  -0.29254  -0.28315  -0.27703  -0.22807
 Alpha  occ. eigenvalues --   -0.21470
 Alpha virt. eigenvalues --   -0.06175  -0.02363   0.02307   0.04298   0.06266
 Alpha virt. eigenvalues --    0.06509   0.06673   0.07056   0.07867   0.08715
 Alpha virt. eigenvalues --    0.09731   0.11078   0.11576   0.11938   0.11956

 Mulliken charges:
               1
     1  Mg   0.817043
     2  C    0.059989
     3  C   -0.234902
     4  C   -0.182467
     5  C   -0.177374
     6  N   -0.637590
     7  C    0.272643
     8  C   -0.106933
     9  C   -0.204756
    10  C    0.384769
    11  C   -0.299964
    12  C   -0.160773
    13  C   -0.286821
    14  C    0.627347
    15  O   -0.440588
    16  O   -0.502654
    17  N   -0.728623
    18  C    0.358281
    19  C   -0.030721
    20  C    0.006030
    21  C    0.280350
    22  C   -0.345800
    23  C    0.004480
    24  C   -0.264352
    25  N   -0.702121
    26  C    0.330746
    27  C    0.028811
    28  C    0.050605
    29  C    0.267285
    30  C   -0.403019
    31  C   -0.271257
    32  C   -0.305151
    33  N   -0.745066
    34  C    0.299079
    35  C   -0.032120
    36  C    0.025196
    37  C    0.336697
    38  C   -0.399194
    39  C    0.375711
    40  O   -0.431501
    41  C   -0.324621
    42  C    0.594407
    43  O   -0.434182
    44  O   -0.439584
    45  C   -0.086597
    46  C    0.011551
    47  C   -0.110284
    48  C    0.074817
    49  C   -0.356202
    50  C   -0.209892
    51  C   -0.190356
    52  C   -0.164919
    53  C   -0.059476
    54  C   -0.304286
    55  C   -0.172303
    56  C   -0.187969
    57  C   -0.167122
    58  C   -0.039507
    59  C   -0.316371
    60  C   -0.149646
    61  C   -0.162464
    62  C   -0.144608
    63  C   -0.066877
    64  C   -0.304470
    65  C   -0.306565
    66  H    0.074037
    67  H    0.091555
    68  H    0.095068
    69  H    0.117226
    70  H    0.096457
    71  H    0.119717
    72  H    0.122837
    73  H    0.117555
    74  H    0.117537
    75  H    0.098899
    76  H    0.135490
    77  H    0.116544
    78  H    0.138772
    79  H    0.109668
    80  H    0.125500
    81  H    0.066182
    82  H    0.110568
    83  H    0.102136
    84  H    0.120461
    85  H    0.113565
    86  H    0.106843
    87  H    0.107761
    88  H    0.103658
    89  H    0.107870
    90  H    0.122542
    91  H    0.107724
    92  H    0.116267
    93  H    0.132696
    94  H    0.109857
    95  H    0.154280
    96  H    0.119846
    97  H    0.138285
    98  H    0.116732
    99  H    0.131763
   100  H    0.120152
   101  H    0.079983
   102  H    0.078869
   103  H    0.143444
   104  H    0.126077
   105  H    0.105166
   106  H    0.100213
   107  H    0.117334
   108  H    0.077961
   109  H    0.079608
   110  H    0.091585
   111  H    0.075691
   112  H    0.086297
   113  H    0.116356
   114  H    0.098854
   115  H    0.099479
   116  H    0.082934
   117  H    0.110753
   118  H    0.089474
   119  H    0.070301
   120  H    0.075208
   121  H    0.058560
   122  H    0.092781
   123  H    0.113416
   124  H    0.095613
   125  H    0.079509
   126  H    0.080810
   127  H    0.098013
   128  H    0.060668
   129  H    0.075247
   130  H    0.056324
   131  H    0.080113
   132  H    0.102467
   133  H    0.095083
   134  H    0.100610
   135  H    0.110420
   136  H    0.109472
   137  H    0.085468
 Sum of Mulliken charges =   0.00000

 Dipole moment (field-independent basis, Debye):
    X=              1.8052    Y=              5.5664    Z=              0.7405  Tot=              5.8984
 Quadrupole moment (field-independent basis, Debye-Ang):
   XX=           -339.5920   YY=           -393.8591   ZZ=           -396.8694
   XY=            -31.6199   XZ=             14.7442   YZ=             -2.7261

 Normal termination of Gaussian 09 at Mon Jul  1 07:33:17 2019.
