 Gaussian 09, Revision D.01,
 Gaussian 09:  ES64L-G09RevD.01 24-Apr-2013

 -------------------------------------
 # td=(NStates=1) CAM-B3LYP/6-31G(d,p)
 -------------------------------------

 --
 TD
 --
 Symbolic Z-matrix:
 Charge =  0 Multiplicity = 1

                         Standard orientation:
 ---------------------------------------------------------------------
 Center     Atomic      Atomic             Coordinates (Angstroms)
 Number     Number       Type             X           Y           Z
 ---------------------------------------------------------------------
      1         12           0       -7.142607    0.589426    0.184429
      2          6           0       -4.827497   -1.996677    0.544234
      3          6           0       -4.785156    2.774279    1.288416
      4          6           0       -9.442330    3.113441   -0.312635
      5          6           0       -9.520901   -1.774799   -0.806086
      6          7           0       -5.107469    0.463143    0.690165
      7          6           0       -4.368606   -0.734201    0.758257
      8          6           0       -2.898820   -0.388974    1.177582
      9          6           0       -2.998015    0.980533    1.625295
     10          6           0       -4.395524    1.525946    1.204917
     11          6           0       -2.964012    1.146806    3.208139
     12          6           0       -1.897192   -0.557062    0.025615
     13          6           0       -0.500857   -0.482120    0.477741
     14          6           0        0.523803   -0.571324   -0.610272
     15          8           0        0.236154   -0.894423   -1.743046
     16          8           0        1.771755   -0.382421   -0.220184
     17          7           0       -7.126149    2.604916    0.321341
     18          6           0       -6.091764    3.365498    0.895486
     19          6           0       -6.354323    4.747549    0.882917
     20          6           0       -7.629339    4.845056    0.395692
     21          6           0       -8.172044    3.436965    0.129780
     22          6           0       -5.523216    5.904568    1.355685
     23          6           0       -8.558277    6.084776    0.348700
     24          6           0       -8.071790    7.269656    0.116154
     25          7           0       -9.138999    0.629483   -0.376794
     26          6           0       -9.872773    1.824927   -0.613698
     27          6           0      -11.142049    1.455123   -1.097598
     28          6           0      -11.213592    0.073070   -1.338374
     29          6           0       -9.975806   -0.451882   -0.886929
     30          6           0      -12.254296    2.434434   -1.346754
     31          6           0      -12.418610   -0.743474   -1.819848
     32          6           0      -12.418356   -1.098362   -3.318024
     33          7           0       -7.206015   -1.425488   -0.067207
     34          6           0       -8.247646   -2.246440   -0.488785
     35          6           0       -7.838599   -3.620195   -0.451628
     36          6           0       -6.511010   -3.670450    0.040963
     37          6           0       -6.188291   -2.238263    0.126109
     38          6           0       -8.640295   -4.793985   -0.925670
     39          6           0       -5.322989   -4.380175    0.270849
     40          8           0       -5.122594   -5.542637    0.218796
     41          6           0       -4.106499   -3.372464    0.507886
     42          6           0       -3.511656   -3.639088    1.805902
     43          8           0       -3.858132   -3.166120    2.960276
     44          8           0       -2.553094   -4.637306    1.736540
     45          6           0       -1.942515   -5.093373    2.852484
     46          6           0        2.829162   -0.679245   -1.177987
     47          6           0        4.160473   -0.547538   -0.595696
     48          6           0        5.171586    0.324808   -1.026967
     49          6           0        5.126260    1.177499   -2.332892
     50          6           0        6.327950    0.477182   -0.281868
     51          6           0        7.585008   -0.008236   -1.047548
     52          6           0        8.863301   -0.226529   -0.143500
     53          6           0       10.112963   -0.580997   -0.830061
     54          6           0       10.073773   -1.971987   -1.456799
     55          6           0       11.311266   -0.424236   -0.026254
     56          6           0       12.704287   -0.472240   -0.723349
     57          6           0       13.886559   -0.193776    0.173134
     58          6           0       15.303268   -0.213666   -0.586175
     59          6           0       15.714508   -1.707764   -0.808102
     60          6           0       16.311350    0.433336    0.334167
     61          6           0       17.765835    0.552169   -0.183930
     62          6           0       18.734505    1.267821    0.726707
     63          6           0       20.183128    1.378150    0.286024
     64          6           0       20.292450    2.267737   -0.958852
     65          6           0       21.158738    1.905126    1.359835
     66          1           0       -3.927443    3.388048    1.662393
     67          1           0      -10.070429    3.952396   -0.642599
     68          1           0      -10.210552   -2.483769   -1.099297
     69          1           0       -2.599393   -0.897046    2.046910
     70          1           0       -2.039058    1.681387    1.355930
     71          1           0       -2.067038    0.946952    3.576983
     72          1           0       -3.119065    2.204268    3.475601
     73          1           0       -3.684714    0.756341    3.887574
     74          1           0       -2.253336   -1.623991   -0.458964
     75          1           0       -2.084933    0.018656   -0.849636
     76          1           0       -0.390905    0.481484    1.038126
     77          1           0       -0.127365   -1.258002    1.226558
     78          1           0       -5.005457    6.343949    0.462891
     79          1           0       -6.087148    6.584624    2.007825
     80          1           0       -4.602418    5.463321    1.733108
     81          1           0       -9.693543    6.036690    0.690620
     82          1           0       -8.766321    8.011017    0.057616
     83          1           0       -7.179275    7.494601   -0.377757
     84          1           0      -12.034341    2.994764   -2.216561
     85          1           0      -13.263565    2.010882   -1.645070
     86          1           0      -12.488661    3.216061   -0.517361
     87          1           0      -12.406803   -1.475620   -1.207281
     88          1           0      -13.327477   -0.018623   -1.566545
     89          1           0      -13.328501   -1.774161   -3.422908
     90          1           0      -12.501249   -0.275812   -3.962800
     91          1           0      -11.330460   -1.590001   -3.598791
     92          1           0       -9.313835   -4.548604   -1.799909
     93          1           0       -7.889929   -5.606782   -0.927201
     94          1           0       -9.466455   -4.839502    0.110337
     95          1           0       -3.289029   -3.407518   -0.240163
     96          1           0       -1.543014   -4.217891    3.347818
     97          1           0       -2.707803   -5.657024    3.616297
     98          1           0       -1.122671   -5.697997    2.552581
     99          1           0        2.805178   -1.763721   -1.584991
    100          1           0        2.539295   -0.122129   -2.211496
    101          1           0        4.462124   -1.040976    0.257172
    102          1           0        4.128273    1.236585   -2.775908
    103          1           0        5.325199    2.352474   -2.092760
    104          1           0        5.848746    0.660317   -2.901911
    105          1           0        6.517771    1.739683   -0.033250
    106          1           0        6.156509   -0.082403    0.649646
    107          1           0        7.296149   -0.976107   -1.740308
    108          1           0        7.744484    0.747160   -1.656559
    109          1           0        8.925701    0.736461    0.442200
    110          1           0        8.658469   -1.076712    0.658848
    111          1           0       10.211132    0.163587   -1.587789
    112          1           0        9.227343   -2.044824   -2.150285
    113          1           0       11.075146   -2.221762   -1.921706
    114          1           0        9.915807   -2.716644   -0.686479
    115          1           0       11.320111    0.497704    0.540149
    116          1           0       11.327691   -1.044707    0.811917
    117          1           0       12.777246   -1.602748   -0.976292
    118          1           0       12.611880    0.140347   -1.786364
    119          1           0       13.834764    0.783280    0.753940
    120          1           0       13.727851   -0.716344    1.142334
    121          1           0       15.193445    0.462013   -1.300537
    122          1           0       16.489259   -2.183506    0.149940
    123          1           0       15.038856   -2.494798   -1.389872
    124          1           0       16.650474   -1.668936   -1.606529
    125          1           0       15.933650    1.422167    0.635296
    126          1           0       16.356617    0.026102    1.373145
    127          1           0       18.070782   -0.529068   -0.335706
    128          1           0       17.688080    1.130794   -1.214245
    129          1           0       18.501037    2.345500    0.979147
    130          1           0       18.605836    0.638447    1.733823
    131          1           0       20.528798    0.213800    0.176110
    132          1           0       19.883237    3.208673   -0.516142
    133          1           0       21.347140    2.403271   -1.259615
    134          1           0       19.877508    1.843229   -1.689838
    135          1           0       21.093341    1.171668    2.204371
    136          1           0       22.080974    1.986339    0.832014
    137          1           0       20.902103    2.846857    1.623132
 ---------------------------------------------------------------------

 SCF Done:  E(RCAM-B3LYP) =  -2932.65431991     A.U. after   17 cycles

 Excitation energies and oscillator strengths:

 Excited State   1:      Singlet-A      2.0374 eV  608.55 nm  f=0.2542  <S**2>=0.000
     240 -> 243        0.23608
     241 -> 242        0.65229
 This state for optimization and/or second-order correction.
 Total Energy, E(TD-HF/TD-KS) =  -2932.57944738
 Copying the excited state density for this state as the 1-particle RhoCI density.

 The electronic state is 1-A.
 Alpha  occ. eigenvalues --  -46.83519 -19.26507 -19.25596 -19.20126 -19.20125
 Alpha  occ. eigenvalues --  -19.19865 -14.40744 -14.39932 -14.39547 -14.39017
 Alpha  occ. eigenvalues --  -10.39347 -10.38543 -10.34993 -10.33308 -10.31533
 Alpha  occ. eigenvalues --  -10.30660 -10.30496 -10.29979 -10.29638 -10.29537
 Alpha  occ. eigenvalues --  -10.29378 -10.29102 -10.29082 -10.28993 -10.28824
 Alpha  occ. eigenvalues --  -10.28726 -10.28604 -10.28503 -10.28257 -10.28073
 Alpha  occ. eigenvalues --  -10.27964 -10.27783 -10.27616 -10.27567 -10.27230
 Alpha  occ. eigenvalues --  -10.27001 -10.26942 -10.26900 -10.26863 -10.26768
 Alpha  occ. eigenvalues --  -10.26657 -10.26565 -10.26541 -10.26531 -10.26489
 Alpha  occ. eigenvalues --  -10.26377 -10.26285 -10.26272 -10.26270 -10.26162
 Alpha  occ. eigenvalues --  -10.26064 -10.26043 -10.25977 -10.25807 -10.25771
 Alpha  occ. eigenvalues --  -10.25730 -10.25423 -10.24934 -10.24735 -10.24535
 Alpha  occ. eigenvalues --  -10.24522 -10.23790 -10.23649 -10.23383 -10.23363
 Alpha  occ. eigenvalues --   -3.12604  -1.87314  -1.86839  -1.86786  -1.18729
 Alpha  occ. eigenvalues --   -1.17140  -1.13165  -1.08643  -1.05618  -1.04459
 Alpha  occ. eigenvalues --   -1.03432  -1.01831  -0.99996  -0.92589  -0.92274
 Alpha  occ. eigenvalues --   -0.91308  -0.90715  -0.90272  -0.89582  -0.88818
 Alpha  occ. eigenvalues --   -0.88682  -0.87980  -0.87370  -0.87344  -0.86356
 Alpha  occ. eigenvalues --   -0.85399  -0.84695  -0.84242  -0.83587  -0.82933
 Alpha  occ. eigenvalues --   -0.81750  -0.81382  -0.80441  -0.79741  -0.78456
 Alpha  occ. eigenvalues --   -0.77950  -0.77224  -0.76801  -0.76592  -0.76058
 Alpha  occ. eigenvalues --   -0.75352  -0.75122  -0.73928  -0.73654  -0.73037
 Alpha  occ. eigenvalues --   -0.71639  -0.71067  -0.69961  -0.69082  -0.68504
 Alpha  occ. eigenvalues --   -0.67197  -0.66698  -0.65576  -0.64492  -0.64185
 Alpha  occ. eigenvalues --   -0.64021  -0.63653  -0.63370  -0.62809  -0.61755
 Alpha  occ. eigenvalues --   -0.60827  -0.60522  -0.60301  -0.59764  -0.59115
 Alpha  occ. eigenvalues --   -0.58785  -0.58065  -0.57402  -0.57141  -0.56455
 Alpha  occ. eigenvalues --   -0.56093  -0.55480  -0.55196  -0.54890  -0.54700
 Alpha  occ. eigenvalues --   -0.54412  -0.54245  -0.53934  -0.53551  -0.53328
 Alpha  occ. eigenvalues --   -0.53191  -0.52879  -0.52395  -0.52231  -0.51882
 Alpha  occ. eigenvalues --   -0.51709  -0.51645  -0.51388  -0.50695  -0.50526
 Alpha  occ. eigenvalues --   -0.50315  -0.50180  -0.50066  -0.49743  -0.49580
 Alpha  occ. eigenvalues --   -0.49538  -0.49375  -0.48990  -0.48743  -0.48571
 Alpha  occ. eigenvalues --   -0.48234  -0.47902  -0.47828  -0.47674  -0.47557
 Alpha  occ. eigenvalues --   -0.47207  -0.46964  -0.46713  -0.46320  -0.46246
 Alpha  occ. eigenvalues --   -0.46126  -0.45630  -0.45289  -0.45255  -0.44961
 Alpha  occ. eigenvalues --   -0.44925  -0.44576  -0.44572  -0.44313  -0.44224
 Alpha  occ. eigenvalues --   -0.43990  -0.43742  -0.43617  -0.43177  -0.42957
 Alpha  occ. eigenvalues --   -0.42933  -0.42710  -0.42320  -0.42069  -0.41966
 Alpha  occ. eigenvalues --   -0.41777  -0.41466  -0.41406  -0.41217  -0.40976
 Alpha  occ. eigenvalues --   -0.40837  -0.40679  -0.40579  -0.40467  -0.40146
 Alpha  occ. eigenvalues --   -0.40088  -0.39694  -0.39596  -0.39413  -0.39334
 Alpha  occ. eigenvalues --   -0.38941  -0.38207  -0.38138  -0.38119  -0.37741
 Alpha  occ. eigenvalues --   -0.37113  -0.37047  -0.36865  -0.36849  -0.36716
 Alpha  occ. eigenvalues --   -0.36694  -0.35837  -0.35787  -0.35696  -0.35667
 Alpha  occ. eigenvalues --   -0.35499  -0.34913  -0.34121  -0.33663  -0.33443
 Alpha  occ. eigenvalues --   -0.32909  -0.32549  -0.32180  -0.31513  -0.30373
 Alpha  occ. eigenvalues --   -0.29387  -0.28523  -0.28511  -0.27245  -0.23319
 Alpha  occ. eigenvalues --   -0.21726
 Alpha virt. eigenvalues --   -0.06980  -0.03425   0.01935   0.04238   0.04373
 Alpha virt. eigenvalues --    0.05179   0.06547   0.07023   0.07227   0.07652
 Alpha virt. eigenvalues --    0.08264   0.10591   0.10793   0.11272   0.11443

 Mulliken charges:
               1
     1  Mg   0.805828
     2  C    0.087716
     3  C   -0.217364
     4  C   -0.167153
     5  C   -0.170570
     6  N   -0.678841
     7  C    0.272084
     8  C   -0.122971
     9  C   -0.162002
    10  C    0.389717
    11  C   -0.332473
    12  C   -0.159011
    13  C   -0.262105
    14  C    0.607605
    15  O   -0.482235
    16  O   -0.465625
    17  N   -0.700620
    18  C    0.278640
    19  C    0.055383
    20  C   -0.046158
    21  C    0.321232
    22  C   -0.360828
    23  C   -0.092246
    24  C   -0.222723
    25  N   -0.694550
    26  C    0.314544
    27  C    0.015166
    28  C    0.011667
    29  C    0.257039
    30  C   -0.392026
    31  C   -0.203525
    32  C   -0.296138
    33  N   -0.708930
    34  C    0.305269
    35  C   -0.009929
    36  C    0.056925
    37  C    0.255775
    38  C   -0.342415
    39  C    0.347588
    40  O   -0.439855
    41  C   -0.321699
    42  C    0.634067
    43  O   -0.510547
    44  O   -0.438717
    45  C   -0.064774
    46  C    0.011115
    47  C   -0.140172
    48  C    0.133226
    49  C   -0.348148
    50  C   -0.220234
    51  C   -0.178855
    52  C   -0.170615
    53  C   -0.038844
    54  C   -0.312126
    55  C   -0.182993
    56  C   -0.163312
    57  C   -0.193640
    58  C   -0.005254
    59  C   -0.299190
    60  C   -0.202379
    61  C   -0.163571
    62  C   -0.142316
    63  C   -0.080862
    64  C   -0.285605
    65  C   -0.293201
    66  H    0.085392
    67  H    0.104967
    68  H    0.080938
    69  H    0.133285
    70  H    0.084205
    71  H    0.112454
    72  H    0.095736
    73  H    0.132315
    74  H    0.081542
    75  H    0.134056
    76  H    0.126955
    77  H    0.136924
    78  H    0.124029
    79  H    0.141343
    80  H    0.110882
    81  H    0.102153
    82  H    0.095174
    83  H    0.111827
    84  H    0.130872
    85  H    0.105118
    86  H    0.106880
    87  H    0.118404
    88  H    0.088941
    89  H    0.103818
    90  H    0.125398
    91  H    0.085987
    92  H    0.132250
    93  H    0.156096
    94  H    0.093306
    95  H    0.167000
    96  H    0.112125
    97  H    0.102571
    98  H    0.120307
    99  H    0.117804
   100  H    0.121623
   101  H    0.088374
   102  H    0.115335
   103  H    0.093230
   104  H    0.136805
   105  H    0.066911
   106  H    0.098589
   107  H    0.075693
   108  H    0.121986
   109  H    0.088826
   110  H    0.068504
   111  H    0.084216
   112  H    0.100004
   113  H    0.100610
   114  H    0.102234
   115  H    0.082016
   116  H    0.090722
   117  H    0.088445
   118  H    0.064271
   119  H    0.070940
   120  H    0.094884
   121  H    0.109202
   122  H    0.081641
   123  H    0.108494
   124  H    0.075501
   125  H    0.087392
   126  H    0.084426
   127  H    0.092619
   128  H    0.071556
   129  H    0.075467
   130  H    0.064710
   131  H    0.048559
   132  H    0.095848
   133  H    0.093322
   134  H    0.116851
   135  H    0.098219
   136  H    0.105156
   137  H    0.102530
 Sum of Mulliken charges =   0.00000

 Dipole moment (field-independent basis, Debye):
    X=              1.1918    Y=              5.4947    Z=             -0.8133  Tot=              5.6810
 Quadrupole moment (field-independent basis, Debye-Ang):
   XX=           -331.2526   YY=           -391.9910   ZZ=           -401.7362
   XY=            -22.1530   XZ=             15.6539   YZ=              2.1806

 Normal termination of Gaussian 09 at Fri Jun 28 23:29:20 2019.
