 Gaussian 09, Revision D.01,
 Gaussian 09:  ES64L-G09RevD.01 24-Apr-2013

 -------------------------------------
 # td=(NStates=1) CAM-B3LYP/6-31G(d,p)
 -------------------------------------

 --
 TD
 --
 Symbolic Z-matrix:
 Charge =  0 Multiplicity = 1

                         Standard orientation:
 ---------------------------------------------------------------------
 Center     Atomic      Atomic             Coordinates (Angstroms)
 Number     Number       Type             X           Y           Z
 ---------------------------------------------------------------------
      1         12           0       -7.156146    0.617093    0.166991
      2          6           0       -4.829767   -1.980140    0.673695
      3          6           0       -4.909052    2.822435    1.230677
      4          6           0       -9.492219    3.047113   -0.303208
      5          6           0       -9.539303   -1.706945   -0.860788
      6          7           0       -5.081350    0.433037    0.645638
      7          6           0       -4.339473   -0.774273    0.902861
      8          6           0       -2.969597   -0.381814    1.157748
      9          6           0       -3.074335    1.102898    1.635611
     10          6           0       -4.492018    1.454599    1.202767
     11          6           0       -2.913125    1.304347    3.095045
     12          6           0       -1.895891   -0.668757    0.033844
     13          6           0       -0.501562   -0.487246    0.568837
     14          6           0        0.505845   -0.654611   -0.672952
     15          8           0        0.146965   -0.960007   -1.797614
     16          8           0        1.764231   -0.447164   -0.263151
     17          7           0       -7.159250    2.621251    0.542938
     18          6           0       -6.119282    3.327693    0.885030
     19          6           0       -6.428218    4.775616    0.859078
     20          6           0       -7.737368    4.858753    0.510311
     21          6           0       -8.151664    3.452071    0.190230
     22          6           0       -5.542466    5.860412    1.335517
     23          6           0       -8.631217    6.035573    0.438533
     24          6           0       -8.347273    7.297811    0.080477
     25          7           0       -9.102992    0.691758   -0.614882
     26          6           0       -9.921494    1.814282   -0.540851
     27          6           0      -11.260034    1.427386   -1.144770
     28          6           0      -11.277206    0.084455   -1.166884
     29          6           0       -9.857989   -0.402136   -0.912404
     30          6           0      -12.222566    2.488850   -1.371780
     31          6           0      -12.373268   -0.723510   -1.815779
     32          6           0      -12.189228   -1.014157   -3.325406
     33          7           0       -7.205809   -1.398115   -0.063153
     34          6           0       -8.258915   -2.253377   -0.573684
     35          6           0       -7.827768   -3.631590   -0.584482
     36          6           0       -6.494564   -3.547265   -0.037817
     37          6           0       -6.170264   -2.177832    0.246391
     38          6           0       -8.601574   -4.848385   -0.894577
     39          6           0       -5.338674   -4.399492    0.316140
     40          8           0       -5.152739   -5.587502    0.160484
     41          6           0       -4.229678   -3.353061    0.713208
     42          6           0       -3.608690   -3.657025    1.975082
     43          8           0       -3.759975   -3.150220    3.019891
     44          8           0       -2.793296   -4.753448    1.757481
     45          6           0       -2.200942   -5.316527    2.907120
     46          6           0        2.787403   -0.554025   -1.357956
     47          6           0        4.161293   -0.277819   -0.703455
     48          6           0        5.156458    0.391046   -1.181668
     49          6           0        5.223479    1.100068   -2.481469
     50          6           0        6.412957    0.347955   -0.281616
     51          6           0        7.684241   -0.215424   -1.104990
     52          6           0        8.946769   -0.152344   -0.322096
     53          6           0       10.349039   -0.505587   -0.967857
     54          6           0       10.215107   -1.984729   -1.484257
     55          6           0       11.411598   -0.245433   -0.140299
     56          6           0       12.758767   -0.489698   -0.766112
     57          6           0       13.929915   -0.186128    0.273154
     58          6           0       15.336727   -0.188781   -0.426173
     59          6           0       15.793359   -1.579152   -0.896380
     60          6           0       16.359936    0.522242    0.574496
     61          6           0       17.767202    0.554303   -0.165972
     62          6           0       18.781903    1.192470    0.911518
     63          6           0       20.276275    1.453140    0.398183
     64          6           0       20.340109    2.244996   -1.020596
     65          6           0       21.288280    1.866417    1.500816
     66          1           0       -4.008328    3.609831    1.532511
     67          1           0      -10.226290    3.759744   -0.518974
     68          1           0      -10.214749   -2.505966   -0.982588
     69          1           0       -2.679940   -0.984329    1.976945
     70          1           0       -2.441824    1.920216    1.176625
     71          1           0       -1.971549    1.025281    3.435596
     72          1           0       -3.158873    2.251119    3.674282
     73          1           0       -3.747940    0.518917    3.635976
     74          1           0       -2.196881   -1.689570   -0.401911
     75          1           0       -2.143456   -0.120254   -0.657676
     76          1           0       -0.131361    0.486778    1.206664
     77          1           0       -0.345766   -1.294814    1.219709
     78          1           0       -4.698936    6.019047    0.515533
     79          1           0       -6.205865    6.789930    1.428904
     80          1           0       -4.905274    5.609013    2.248665
     81          1           0       -9.767749    5.934241    0.785546
     82          1           0       -9.289006    8.030973    0.134183
     83          1           0       -7.408510    7.770960   -0.403376
     84          1           0      -11.925133    2.959825   -2.306668
     85          1           0      -13.200415    2.197737   -1.437326
     86          1           0      -12.320471    3.439431   -0.701760
     87          1           0      -12.577099   -1.970201   -1.435736
     88          1           0      -13.220613   -0.258713   -1.485023
     89          1           0      -12.968566   -1.598353   -3.670590
     90          1           0      -12.238055   -0.021050   -3.758454
     91          1           0      -11.245730   -1.561953   -3.631564
     92          1           0       -8.698336   -4.981883   -1.896197
     93          1           0       -7.831352   -5.729298   -0.650325
     94          1           0       -9.597810   -4.915878   -0.459084
     95          1           0       -3.574587   -3.490649   -0.178429
     96          1           0       -1.566707   -4.525140    3.194725
     97          1           0       -3.080737   -5.547712    3.717187
     98          1           0       -1.715978   -6.306392    2.838860
     99          1           0        2.694728   -1.537019   -1.845031
    100          1           0        2.469568    0.235692   -2.064193
    101          1           0        4.230958   -0.904924    0.321544
    102          1           0        4.238963    1.115970   -2.673058
    103          1           0        5.731297    2.102474   -2.409253
    104          1           0        5.777896    0.528534   -3.132800
    105          1           0        6.436477    1.356741    0.043190
    106          1           0        6.207961   -0.312889    0.442539
    107          1           0        7.206219   -1.196656   -1.490510
    108          1           0        7.875817    0.485571   -2.034427
    109          1           0        9.013535    0.834929    0.312215
    110          1           0        8.705002   -0.931258    0.456572
    111          1           0       10.391508    0.123289   -1.773102
    112          1           0        9.366395   -2.013910   -2.059419
    113          1           0       11.087598   -2.075805   -2.087399
    114          1           0       10.198767   -2.773110   -0.709820
    115          1           0       11.419878    0.690721    0.114889
    116          1           0       11.470961   -0.831497    0.712780
    117          1           0       12.813556   -1.632597   -0.951850
    118          1           0       12.967818    0.127796   -1.741490
    119          1           0       13.657365    0.691182    0.609241
    120          1           0       13.708381   -1.073699    1.030604
    121          1           0       15.116989    0.341775   -1.379787
    122          1           0       15.917099   -2.551756   -0.128089
    123          1           0       14.988623   -2.082230   -1.481298
    124          1           0       16.776552   -1.566198   -1.298503
    125          1           0       16.058213    1.543793    0.744756
    126          1           0       16.291600   -0.167222    1.580304
    127          1           0       18.295890   -0.658143   -0.216652
    128          1           0       17.899774    0.969500   -0.969364
    129          1           0       18.451604    2.412634    1.187747
    130          1           0       18.737127    0.633507    1.822661
    131          1           0       20.546325    0.413753    0.084290
    132          1           0       20.274265    3.384562   -0.811604
    133          1           0       21.346312    2.048131   -1.107354
    134          1           0       20.065571    1.642974   -1.948391
    135          1           0       21.456521    1.577936    2.485217
    136          1           0       22.196821    1.873074    1.094563
    137          1           0       20.852172    2.881566    1.869103
 ---------------------------------------------------------------------

 SCF Done:  E(RCAM-B3LYP) =  -2932.54730278     A.U. after   17 cycles

 Excitation energies and oscillator strengths:

 Excited State   1:      Singlet-A      1.9179 eV  646.46 nm  f=0.3260  <S**2>=0.000
     240 -> 243        0.15896
     241 -> 242        0.68666
 This state for optimization and/or second-order correction.
 Total Energy, E(TD-HF/TD-KS) =  -2932.47682120
 Copying the excited state density for this state as the 1-particle RhoCI density.

 The electronic state is 1-A.
 Alpha  occ. eigenvalues --  -46.84522 -19.26571 -19.24236 -19.21069 -19.20989
 Alpha  occ. eigenvalues --  -19.19453 -14.42064 -14.40161 -14.39059 -14.38594
 Alpha  occ. eigenvalues --  -10.39377 -10.38185 -10.34295 -10.32754 -10.31698
 Alpha  occ. eigenvalues --  -10.31575 -10.30682 -10.30160 -10.29355 -10.29243
 Alpha  occ. eigenvalues --  -10.29079 -10.28625 -10.28570 -10.28358 -10.28179
 Alpha  occ. eigenvalues --  -10.28010 -10.27929 -10.27904 -10.27743 -10.27530
 Alpha  occ. eigenvalues --  -10.27504 -10.27444 -10.27439 -10.27426 -10.27293
 Alpha  occ. eigenvalues --  -10.27125 -10.26918 -10.26747 -10.26718 -10.26660
 Alpha  occ. eigenvalues --  -10.26625 -10.26531 -10.26474 -10.26469 -10.26428
 Alpha  occ. eigenvalues --  -10.26286 -10.26247 -10.25985 -10.25923 -10.25882
 Alpha  occ. eigenvalues --  -10.25822 -10.25758 -10.25741 -10.25409 -10.25218
 Alpha  occ. eigenvalues --  -10.24923 -10.24902 -10.24873 -10.24818 -10.24695
 Alpha  occ. eigenvalues --  -10.24407 -10.24038 -10.24025 -10.23317 -10.21806
 Alpha  occ. eigenvalues --   -3.13505  -1.88219  -1.87721  -1.87694  -1.18194
 Alpha  occ. eigenvalues --   -1.17447  -1.10333  -1.09932  -1.08782  -1.06547
 Alpha  occ. eigenvalues --   -1.04568  -1.02166  -1.00962  -0.92856  -0.92540
 Alpha  occ. eigenvalues --   -0.91750  -0.90177  -0.89792  -0.89000  -0.88789
 Alpha  occ. eigenvalues --   -0.88476  -0.87622  -0.86861  -0.86373  -0.85761
 Alpha  occ. eigenvalues --   -0.85206  -0.84398  -0.83527  -0.83214  -0.82696
 Alpha  occ. eigenvalues --   -0.81923  -0.81517  -0.80689  -0.80130  -0.78202
 Alpha  occ. eigenvalues --   -0.77849  -0.77427  -0.77246  -0.76809  -0.76108
 Alpha  occ. eigenvalues --   -0.75308  -0.74829  -0.73942  -0.73365  -0.72691
 Alpha  occ. eigenvalues --   -0.71175  -0.70877  -0.69650  -0.69513  -0.67697
 Alpha  occ. eigenvalues --   -0.67170  -0.66979  -0.65419  -0.64665  -0.64069
 Alpha  occ. eigenvalues --   -0.63912  -0.63908  -0.63167  -0.62586  -0.61416
 Alpha  occ. eigenvalues --   -0.61327  -0.60044  -0.59699  -0.59572  -0.58885
 Alpha  occ. eigenvalues --   -0.58739  -0.58262  -0.57701  -0.57175  -0.56562
 Alpha  occ. eigenvalues --   -0.56409  -0.55817  -0.55356  -0.54962  -0.54683
 Alpha  occ. eigenvalues --   -0.54456  -0.54044  -0.53600  -0.53588  -0.53075
 Alpha  occ. eigenvalues --   -0.53018  -0.52693  -0.52380  -0.52191  -0.51984
 Alpha  occ. eigenvalues --   -0.51748  -0.51492  -0.51171  -0.51061  -0.50939
 Alpha  occ. eigenvalues --   -0.50789  -0.50241  -0.50126  -0.49831  -0.49376
 Alpha  occ. eigenvalues --   -0.49292  -0.48995  -0.48518  -0.48510  -0.48285
 Alpha  occ. eigenvalues --   -0.48053  -0.47789  -0.47741  -0.47668  -0.47482
 Alpha  occ. eigenvalues --   -0.47106  -0.46991  -0.46935  -0.46740  -0.46330
 Alpha  occ. eigenvalues --   -0.46242  -0.45947  -0.45565  -0.45538  -0.45059
 Alpha  occ. eigenvalues --   -0.44845  -0.44763  -0.44602  -0.44390  -0.44276
 Alpha  occ. eigenvalues --   -0.44088  -0.44000  -0.43910  -0.43736  -0.43515
 Alpha  occ. eigenvalues --   -0.43422  -0.43273  -0.42987  -0.42562  -0.42355
 Alpha  occ. eigenvalues --   -0.42084  -0.42042  -0.41936  -0.41747  -0.41374
 Alpha  occ. eigenvalues --   -0.41305  -0.40986  -0.40550  -0.40380  -0.40085
 Alpha  occ. eigenvalues --   -0.39860  -0.39590  -0.39120  -0.38930  -0.38552
 Alpha  occ. eigenvalues --   -0.38501  -0.38386  -0.37762  -0.37685  -0.37539
 Alpha  occ. eigenvalues --   -0.37237  -0.37042  -0.36678  -0.36636  -0.36523
 Alpha  occ. eigenvalues --   -0.36244  -0.35896  -0.35600  -0.35273  -0.34989
 Alpha  occ. eigenvalues --   -0.34780  -0.34132  -0.33995  -0.33617  -0.33465
 Alpha  occ. eigenvalues --   -0.32639  -0.32319  -0.31819  -0.31237  -0.30854
 Alpha  occ. eigenvalues --   -0.29180  -0.29043  -0.28655  -0.27635  -0.23989
 Alpha  occ. eigenvalues --   -0.20227
 Alpha virt. eigenvalues --   -0.06711  -0.01274   0.02069   0.04057   0.05719
 Alpha virt. eigenvalues --    0.06217   0.06687   0.06833   0.07578   0.07841
 Alpha virt. eigenvalues --    0.08559   0.10370   0.11105   0.11146   0.11688

 Mulliken charges:
               1
     1  Mg   0.814178
     2  C    0.113053
     3  C   -0.230346
     4  C   -0.192550
     5  C   -0.135713
     6  N   -0.635312
     7  C    0.239704
     8  C   -0.166004
     9  C   -0.155771
    10  C    0.388533
    11  C   -0.306392
    12  C   -0.132591
    13  C   -0.269733
    14  C    0.608339
    15  O   -0.477488
    16  O   -0.485349
    17  N   -0.709312
    18  C    0.376872
    19  C    0.039907
    20  C    0.018000
    21  C    0.287701
    22  C   -0.378205
    23  C   -0.098854
    24  C   -0.235175
    25  N   -0.686708
    26  C    0.297298
    27  C    0.081018
    28  C   -0.029709
    29  C    0.315632
    30  C   -0.396288
    31  C   -0.217061
    32  C   -0.297401
    33  N   -0.740564
    34  C    0.202758
    35  C    0.043382
    36  C   -0.055629
    37  C    0.315735
    38  C   -0.391377
    39  C    0.365515
    40  O   -0.458141
    41  C   -0.345781
    42  C    0.638133
    43  O   -0.449077
    44  O   -0.476266
    45  C   -0.066213
    46  C   -0.009351
    47  C   -0.144199
    48  C    0.087678
    49  C   -0.332309
    50  C   -0.207313
    51  C   -0.186537
    52  C   -0.172141
    53  C   -0.058997
    54  C   -0.322108
    55  C   -0.124961
    56  C   -0.220848
    57  C   -0.162175
    58  C   -0.060354
    59  C   -0.306443
    60  C   -0.163574
    61  C   -0.141276
    62  C   -0.151917
    63  C   -0.076461
    64  C   -0.334847
    65  C   -0.317219
    66  H    0.080839
    67  H    0.076302
    68  H    0.090135
    69  H    0.122079
    70  H    0.106468
    71  H    0.119608
    72  H    0.112280
    73  H    0.085041
    74  H    0.109496
    75  H    0.123050
    76  H    0.118724
    77  H    0.146841
    78  H    0.109140
    79  H    0.121897
    80  H    0.122130
    81  H    0.102883
    82  H    0.091214
    83  H    0.115414
    84  H    0.133623
    85  H    0.120035
    86  H    0.113347
    87  H    0.044537
    88  H    0.112870
    89  H    0.114830
    90  H    0.105836
    91  H    0.114397
    92  H    0.137669
    93  H    0.135982
    94  H    0.123710
    95  H    0.181582
    96  H    0.119127
    97  H    0.098822
    98  H    0.127029
    99  H    0.144676
   100  H    0.130334
   101  H    0.088919
   102  H    0.108217
   103  H    0.110297
   104  H    0.138796
   105  H    0.107296
   106  H    0.106522
   107  H    0.098531
   108  H    0.067493
   109  H    0.073613
   110  H    0.079821
   111  H    0.086764
   112  H    0.109115
   113  H    0.107435
   114  H    0.098781
   115  H    0.092261
   116  H    0.092666
   117  H    0.087428
   118  H    0.067536
   119  H    0.097939
   120  H    0.076387
   121  H    0.089360
   122  H    0.056448
   123  H    0.104518
   124  H    0.114571
   125  H    0.107495
   126  H    0.091188
   127  H    0.046557
   128  H    0.104584
   129  H    0.021860
   130  H    0.098866
   131  H    0.075119
   132  H    0.109551
   133  H    0.121889
   134  H    0.115543
   135  H    0.121130
   136  H    0.111889
   137  H    0.080271
 Sum of Mulliken charges =   0.00000

 Dipole moment (field-independent basis, Debye):
    X=              2.8314    Y=              6.7698    Z=             -0.2174  Tot=              7.3412
 Quadrupole moment (field-independent basis, Debye-Ang):
   XX=           -321.3349   YY=           -394.1482   ZZ=           -399.2455
   XY=            -34.0498   XZ=              7.6482   YZ=             -1.1706

 Normal termination of Gaussian 09 at Fri Jun 28 13:38:40 2019.
