 Gaussian 09, Revision D.01,
 Gaussian 09:  ES64L-G09RevD.01 24-Apr-2013

 -------------------------------------
 # td=(NStates=1) CAM-B3LYP/6-31G(d,p)
 -------------------------------------

 --
 TD
 --
 Symbolic Z-matrix:
 Charge =  0 Multiplicity = 1

                         Standard orientation:
 ---------------------------------------------------------------------
 Center     Atomic      Atomic             Coordinates (Angstroms)
 Number     Number       Type             X           Y           Z
 ---------------------------------------------------------------------
      1         12           0       -7.119874    0.635372    0.121556
      2          6           0       -4.864538   -1.932747    0.627572
      3          6           0       -4.780511    2.795255    1.153019
      4          6           0       -9.365991    3.086278   -0.458050
      5          6           0       -9.444474   -1.717074   -1.015985
      6          7           0       -5.077457    0.413700    0.760734
      7          6           0       -4.335242   -0.698765    0.904880
      8          6           0       -2.895101   -0.392724    1.303094
      9          6           0       -3.005941    1.086817    1.759268
     10          6           0       -4.425916    1.509898    1.170568
     11          6           0       -3.045213    1.281153    3.258203
     12          6           0       -1.973435   -0.598149    0.061653
     13          6           0       -0.526195   -0.543984    0.581751
     14          6           0        0.517537   -0.730986   -0.594025
     15          8           0        0.223869   -0.981528   -1.744945
     16          8           0        1.780602   -0.462358   -0.132277
     17          7           0       -7.019712    2.635446    0.346631
     18          6           0       -6.021984    3.390045    0.854494
     19          6           0       -6.483887    4.782759    0.908205
     20          6           0       -7.827703    4.792278    0.427865
     21          6           0       -8.115473    3.387876    0.111486
     22          6           0       -5.570980    5.892676    1.404914
     23          6           0       -8.583659    5.983925    0.515341
     24          6           0       -8.253811    7.219153    0.298570
     25          7           0       -9.025461    0.527350   -0.579240
     26          6           0       -9.751504    1.804921   -0.743254
     27          6           0      -11.118264    1.515656   -1.318519
     28          6           0      -11.192054    0.116984   -1.474967
     29          6           0       -9.828396   -0.370188   -1.008557
     30          6           0      -12.104430    2.531333   -1.546658
     31          6           0      -12.317410   -0.728749   -1.973393
     32          6           0      -12.111056   -1.167986   -3.381120
     33          7           0       -7.230894   -1.458115   -0.111553
     34          6           0       -8.298199   -2.302733   -0.494475
     35          6           0       -7.761967   -3.604664   -0.516101
     36          6           0       -6.454255   -3.485453   -0.064162
     37          6           0       -6.117243   -2.173190    0.209700
     38          6           0       -8.608072   -4.845466   -0.950003
     39          6           0       -5.285061   -4.316848    0.287289
     40          8           0       -5.239413   -5.520000    0.285947
     41          6           0       -4.201309   -3.332328    0.666999
     42          6           0       -3.582805   -3.618060    1.992136
     43          8           0       -3.891049   -3.094452    3.064845
     44          8           0       -2.682246   -4.705831    1.908713
     45          6           0       -2.228676   -5.177990    3.156019
     46          6           0        2.804888   -0.723594   -1.143540
     47          6           0        4.179221   -0.437905   -0.522471
     48          6           0        5.110447    0.336984   -1.007225
     49          6           0        4.924614    1.232590   -2.194150
     50          6           0        6.460205    0.431140   -0.381783
     51          6           0        7.712638   -0.186969   -1.163361
     52          6           0        8.892031   -0.142197   -0.256345
     53          6           0       10.179466   -0.576580   -0.930554
     54          6           0       10.035846   -2.051594   -1.362495
     55          6           0       11.403548   -0.387005    0.023120
     56          6           0       12.748083   -0.472274   -0.732650
     57          6           0       13.908880   -0.168401    0.186196
     58          6           0       15.326680   -0.151417   -0.543517
     59          6           0       15.640992   -1.580614   -1.073680
     60          6           0       16.399258    0.366996    0.489344
     61          6           0       17.839934    0.499909   -0.112674
     62          6           0       18.689873    1.396196    0.781869
     63          6           0       20.183064    1.380636    0.276773
     64          6           0       20.364204    2.168784   -1.119590
     65          6           0       21.047077    1.988760    1.300051
     66          1           0       -4.028225    3.675351    1.383027
     67          1           0      -10.231061    3.899178   -0.454805
     68          1           0      -10.312805   -2.452473   -1.477561
     69          1           0       -2.516812   -1.053785    1.980445
     70          1           0       -2.082222    1.687075    1.434824
     71          1           0       -1.938177    1.296743    3.721319
     72          1           0       -3.256532    2.439956    3.367714
     73          1           0       -3.734738    0.645794    3.698339
     74          1           0       -2.348246   -1.585955   -0.322741
     75          1           0       -2.164323    0.185000   -0.835615
     76          1           0       -0.115550    0.283798    1.200410
     77          1           0       -0.331686   -1.523418    1.253905
     78          1           0       -5.214390    6.469199    0.640662
     79          1           0       -6.360302    6.770609    1.660972
     80          1           0       -4.716651    5.661426    2.160669
     81          1           0       -9.694332    5.709049    0.813879
     82          1           0       -9.000206    8.067157    0.743697
     83          1           0       -7.122178    7.442789    0.037492
     84          1           0      -11.828196    2.981621   -2.541935
     85          1           0      -13.191348    2.157879   -1.491590
     86          1           0      -12.058938    3.245680   -0.792358
     87          1           0      -12.535612   -1.583958   -1.207048
     88          1           0      -13.250162    0.078588   -2.240902
     89          1           0      -12.893243   -1.921075   -3.752586
     90          1           0      -12.119627   -0.250428   -3.975565
     91          1           0      -11.102249   -1.622981   -3.472127
     92          1           0       -9.175644   -4.635766   -1.964673
     93          1           0       -7.923308   -5.780818   -1.174933
     94          1           0       -9.524682   -4.916177   -0.483350
     95          1           0       -3.517532   -3.579706    0.012883
     96          1           0       -1.625265   -4.443192    3.687829
     97          1           0       -3.108500   -5.361616    3.907503
     98          1           0       -1.711366   -6.061809    2.926753
     99          1           0        2.751124   -1.756354   -1.665367
    100          1           0        2.477255   -0.039011   -1.889345
    101          1           0        4.262560   -1.020210    0.362784
    102          1           0        3.920284    1.180880   -2.729465
    103          1           0        5.069706    2.226279   -1.749865
    104          1           0        5.497924    1.051112   -2.902535
    105          1           0        6.637301    1.409400   -0.006247
    106          1           0        6.694016   -0.214931    0.511377
    107          1           0        7.322287   -1.149823   -1.517512
    108          1           0        7.937147    0.349427   -2.091198
    109          1           0        9.158910    0.735759    0.182000
    110          1           0        8.552708   -0.771580    0.649867
    111          1           0       10.450667    0.027986   -1.881710
    112          1           0        9.107596   -2.288349   -2.086215
    113          1           0       10.832344   -2.505291   -1.976149
    114          1           0        9.953558   -2.638126   -0.388538
    115          1           0       11.225742    0.540406    0.504160
    116          1           0       11.418442   -1.201784    0.874860
    117          1           0       12.921143   -1.486097   -1.070439
    118          1           0       12.824770    0.334364   -1.480933
    119          1           0       13.885935    0.892605    0.531610
    120          1           0       13.841231   -0.944280    0.874376
    121          1           0       15.174308    0.604464   -1.444794
    122          1           0       15.362792   -2.341954   -0.213109
    123          1           0       14.906045   -1.934120   -1.916183
    124          1           0       16.780026   -1.926908   -1.445579
    125          1           0       15.988780    1.328581    1.041375
    126          1           0       16.536974   -0.178613    1.397097
    127          1           0       18.239647   -0.608864   -0.365733
    128          1           0       17.716378    1.150173   -1.017622
    129          1           0       18.174218    2.363583    1.067210
    130          1           0       18.842892    0.819345    1.714066
    131          1           0       20.514530    0.443940    0.189208
    132          1           0       19.587325    3.060364   -1.037571
    133          1           0       21.420704    2.360512   -1.436349
    134          1           0       20.042076    1.254966   -1.878020
    135          1           0       20.848689    1.513436    2.231507
    136          1           0       22.114304    2.007306    1.002439
    137          1           0       20.794436    2.913679    1.416600
 ---------------------------------------------------------------------

 SCF Done:  E(RCAM-B3LYP) =  -2932.67183212     A.U. after   18 cycles

 Excitation energies and oscillator strengths:

 Excited State   1:      Singlet-A      1.9896 eV  623.16 nm  f=0.2955  <S**2>=0.000
     240 -> 243        0.22181
     241 -> 242        0.66352
 This state for optimization and/or second-order correction.
 Total Energy, E(TD-HF/TD-KS) =  -2932.59871567
 Copying the excited state density for this state as the 1-particle RhoCI density.

 The electronic state is 1-A.
 Alpha  occ. eigenvalues --  -46.84875 -19.26193 -19.26122 -19.21935 -19.21253
 Alpha  occ. eigenvalues --  -19.20568 -14.42078 -14.40424 -14.39931 -14.38103
 Alpha  occ. eigenvalues --  -10.40012 -10.39333 -10.34947 -10.31549 -10.30942
 Alpha  occ. eigenvalues --  -10.30642 -10.30379 -10.29701 -10.29699 -10.29568
 Alpha  occ. eigenvalues --  -10.29404 -10.29388 -10.29179 -10.28647 -10.28484
 Alpha  occ. eigenvalues --  -10.28470 -10.28432 -10.28381 -10.28014 -10.27852
 Alpha  occ. eigenvalues --  -10.27818 -10.27763 -10.27594 -10.27538 -10.27440
 Alpha  occ. eigenvalues --  -10.27340 -10.27336 -10.27223 -10.27122 -10.26962
 Alpha  occ. eigenvalues --  -10.26852 -10.26824 -10.26708 -10.26702 -10.26695
 Alpha  occ. eigenvalues --  -10.26623 -10.26529 -10.26475 -10.26284 -10.26103
 Alpha  occ. eigenvalues --  -10.25745 -10.25735 -10.25688 -10.25682 -10.25668
 Alpha  occ. eigenvalues --  -10.25655 -10.25508 -10.25207 -10.25036 -10.24824
 Alpha  occ. eigenvalues --  -10.24780 -10.24564 -10.24451 -10.24417 -10.21662
 Alpha  occ. eigenvalues --   -3.13830  -1.88544  -1.88128  -1.87944  -1.17178
 Alpha  occ. eigenvalues --   -1.16825  -1.11984  -1.09037  -1.08947  -1.05299
 Alpha  occ. eigenvalues --   -1.03989  -1.03663  -1.02507  -0.94122  -0.91698
 Alpha  occ. eigenvalues --   -0.90353  -0.90179  -0.89908  -0.89620  -0.89543
 Alpha  occ. eigenvalues --   -0.88951  -0.88284  -0.87816  -0.86184  -0.85315
 Alpha  occ. eigenvalues --   -0.85005  -0.84647  -0.84191  -0.82942  -0.82879
 Alpha  occ. eigenvalues --   -0.81600  -0.81430  -0.80614  -0.79762  -0.78210
 Alpha  occ. eigenvalues --   -0.77926  -0.77524  -0.76669  -0.76391  -0.75278
 Alpha  occ. eigenvalues --   -0.74862  -0.74305  -0.73580  -0.73311  -0.72846
 Alpha  occ. eigenvalues --   -0.71400  -0.69759  -0.68543  -0.68474  -0.68019
 Alpha  occ. eigenvalues --   -0.66849  -0.66722  -0.65334  -0.64917  -0.64424
 Alpha  occ. eigenvalues --   -0.63781  -0.63210  -0.63048  -0.62711  -0.62318
 Alpha  occ. eigenvalues --   -0.62013  -0.60784  -0.60188  -0.59900  -0.59624
 Alpha  occ. eigenvalues --   -0.59050  -0.58520  -0.58057  -0.57529  -0.56350
 Alpha  occ. eigenvalues --   -0.55986  -0.55499  -0.55172  -0.55041  -0.54681
 Alpha  occ. eigenvalues --   -0.54429  -0.53804  -0.53466  -0.53282  -0.53242
 Alpha  occ. eigenvalues --   -0.53047  -0.52558  -0.52353  -0.52221  -0.51811
 Alpha  occ. eigenvalues --   -0.51666  -0.51577  -0.51276  -0.51014  -0.50521
 Alpha  occ. eigenvalues --   -0.50207  -0.50182  -0.49912  -0.49786  -0.49634
 Alpha  occ. eigenvalues --   -0.49367  -0.49173  -0.48885  -0.48799  -0.48477
 Alpha  occ. eigenvalues --   -0.48299  -0.48204  -0.48067  -0.47827  -0.47556
 Alpha  occ. eigenvalues --   -0.47483  -0.47068  -0.46710  -0.46453  -0.46153
 Alpha  occ. eigenvalues --   -0.45892  -0.45431  -0.45348  -0.45225  -0.44783
 Alpha  occ. eigenvalues --   -0.44708  -0.44594  -0.44341  -0.44017  -0.43777
 Alpha  occ. eigenvalues --   -0.43480  -0.43387  -0.43288  -0.43216  -0.43098
 Alpha  occ. eigenvalues --   -0.43075  -0.42880  -0.42576  -0.42508  -0.42205
 Alpha  occ. eigenvalues --   -0.41986  -0.41821  -0.41742  -0.41482  -0.41301
 Alpha  occ. eigenvalues --   -0.41007  -0.40727  -0.40681  -0.40035  -0.39888
 Alpha  occ. eigenvalues --   -0.39783  -0.39506  -0.39425  -0.39116  -0.39056
 Alpha  occ. eigenvalues --   -0.38906  -0.38684  -0.38197  -0.38113  -0.38038
 Alpha  occ. eigenvalues --   -0.37792  -0.37732  -0.37285  -0.37127  -0.36741
 Alpha  occ. eigenvalues --   -0.36481  -0.36095  -0.35882  -0.35650  -0.35581
 Alpha  occ. eigenvalues --   -0.35318  -0.34935  -0.34508  -0.34275  -0.33539
 Alpha  occ. eigenvalues --   -0.33188  -0.33023  -0.32485  -0.31853  -0.30370
 Alpha  occ. eigenvalues --   -0.29947  -0.28858  -0.28400  -0.27531  -0.23548
 Alpha  occ. eigenvalues --   -0.21188
 Alpha virt. eigenvalues --   -0.07043  -0.02830   0.01902   0.04222   0.05126
 Alpha virt. eigenvalues --    0.05950   0.06325   0.06544   0.07276   0.07507
 Alpha virt. eigenvalues --    0.08338   0.09603   0.10834   0.11264   0.11843

 Mulliken charges:
               1
     1  Mg   0.817952
     2  C    0.069792
     3  C   -0.202862
     4  C   -0.167763
     5  C   -0.195757
     6  N   -0.648743
     7  C    0.302116
     8  C   -0.122079
     9  C   -0.145773
    10  C    0.361450
    11  C   -0.285070
    12  C   -0.162876
    13  C   -0.267562
    14  C    0.607517
    15  O   -0.467955
    16  O   -0.491002
    17  N   -0.734720
    18  C    0.303356
    19  C    0.015011
    20  C   -0.010610
    21  C    0.322121
    22  C   -0.392282
    23  C   -0.040547
    24  C   -0.273341
    25  N   -0.663443
    26  C    0.254897
    27  C    0.031228
    28  C    0.039305
    29  C    0.333769
    30  C   -0.384157
    31  C   -0.246145
    32  C   -0.289492
    33  N   -0.766831
    34  C    0.279813
    35  C    0.025448
    36  C   -0.039755
    37  C    0.358847
    38  C   -0.367198
    39  C    0.361758
    40  O   -0.443083
    41  C   -0.290787
    42  C    0.627588
    43  O   -0.473807
    44  O   -0.473132
    45  C   -0.075497
    46  C    0.006343
    47  C   -0.140107
    48  C    0.119482
    49  C   -0.343804
    50  C   -0.238120
    51  C   -0.185353
    52  C   -0.159739
    53  C   -0.065720
    54  C   -0.300399
    55  C   -0.172357
    56  C   -0.180486
    57  C   -0.174535
    58  C   -0.044827
    59  C   -0.302159
    60  C   -0.179184
    61  C   -0.168454
    62  C   -0.187733
    63  C   -0.056832
    64  C   -0.304181
    65  C   -0.295127
    66  H    0.084029
    67  H    0.106050
    68  H    0.076716
    69  H    0.115903
    70  H    0.093312
    71  H    0.085399
    72  H    0.092470
    73  H    0.134381
    74  H    0.118595
    75  H    0.110945
    76  H    0.143188
    77  H    0.119742
    78  H    0.142484
    79  H    0.099160
    80  H    0.115551
    81  H    0.077986
    82  H    0.100855
    83  H    0.092084
    84  H    0.132896
    85  H    0.115373
    86  H    0.127412
    87  H    0.106801
    88  H    0.077195
    89  H    0.099120
    90  H    0.111636
    91  H    0.104009
    92  H    0.096735
    93  H    0.142401
    94  H    0.140581
    95  H    0.164832
    96  H    0.118370
    97  H    0.117354
    98  H    0.128322
    99  H    0.121912
   100  H    0.125017
   101  H    0.093902
   102  H    0.099778
   103  H    0.116472
   104  H    0.131207
   105  H    0.102407
   106  H    0.091462
   107  H    0.111590
   108  H    0.090645
   109  H    0.101559
   110  H    0.083153
   111  H    0.080294
   112  H    0.080749
   113  H    0.099573
   114  H    0.093858
   115  H    0.092019
   116  H    0.071985
   117  H    0.104890
   118  H    0.087345
   119  H    0.086848
   120  H    0.096654
   121  H    0.072984
   122  H    0.085894
   123  H    0.096545
   124  H    0.080920
   125  H    0.065397
   126  H    0.099950
   127  H    0.085802
   128  H    0.097968
   129  H    0.095799
   130  H    0.086020
   131  H    0.098679
   132  H    0.096701
   133  H    0.104488
   134  H    0.077819
   135  H    0.089718
   136  H    0.085336
   137  H    0.108363
 Sum of Mulliken charges =   0.00000

 Dipole moment (field-independent basis, Debye):
    X=              1.4263    Y=              3.9261    Z=              0.1762  Tot=              4.1809
 Quadrupole moment (field-independent basis, Debye-Ang):
   XX=           -337.6722   YY=           -399.2272   ZZ=           -402.1901
   XY=            -22.5088   XZ=             16.9673   YZ=              1.4985

 Normal termination of Gaussian 09 at Thu Jun 27 05:30:12 2019.
