 Gaussian 09, Revision D.01,
 Gaussian 09:  ES64L-G09RevD.01 24-Apr-2013

 -------------------------------------
 # td=(NStates=1) CAM-B3LYP/6-31G(d,p)
 -------------------------------------

 --
 TD
 --
 Symbolic Z-matrix:
 Charge =  0 Multiplicity = 1

                         Standard orientation:
 ---------------------------------------------------------------------
 Center     Atomic      Atomic             Coordinates (Angstroms)
 Number     Number       Type             X           Y           Z
 ---------------------------------------------------------------------
      1         12           0       -7.092354    0.599052    0.111057
      2          6           0       -4.835517   -1.972236    0.569880
      3          6           0       -4.731669    2.769489    1.149445
      4          6           0       -9.374522    3.220419   -0.361244
      5          6           0       -9.476674   -1.642050   -0.812189
      6          7           0       -5.095968    0.411743    0.672271
      7          6           0       -4.318907   -0.816274    0.726411
      8          6           0       -2.920055   -0.459051    1.283447
      9          6           0       -3.006616    1.009173    1.696089
     10          6           0       -4.363426    1.484566    1.266932
     11          6           0       -2.962142    1.249483    3.257612
     12          6           0       -2.027142   -0.714801    0.030184
     13          6           0       -0.444684   -0.416115    0.535600
     14          6           0        0.440341   -0.802042   -0.565424
     15          8           0        0.216486   -1.096713   -1.690256
     16          8           0        1.796518   -0.552937   -0.173940
     17          7           0       -7.069819    2.642831    0.435059
     18          6           0       -5.907790    3.293976    0.703497
     19          6           0       -6.307101    4.751891    0.943090
     20          6           0       -7.708873    4.816858    0.590230
     21          6           0       -8.170376    3.516382    0.287820
     22          6           0       -5.423232    5.852217    1.346582
     23          6           0       -8.506428    6.027379    0.319859
     24          6           0       -8.087067    7.268039    0.237158
     25          7           0       -9.058868    0.773437   -0.464711
     26          6           0       -9.806544    1.918998   -0.636066
     27          6           0      -11.144001    1.519452   -1.118034
     28          6           0      -11.169083    0.179006   -1.290733
     29          6           0       -9.926165   -0.328826   -0.754586
     30          6           0      -12.228328    2.477608   -1.376709
     31          6           0      -12.338971   -0.723382   -1.866261
     32          6           0      -12.180456   -0.954665   -3.351703
     33          7           0       -7.297925   -1.428311   -0.141782
     34          6           0       -8.337290   -2.185797   -0.583983
     35          6           0       -7.878620   -3.597501   -0.567639
     36          6           0       -6.532189   -3.455461   -0.208075
     37          6           0       -6.299131   -2.079956    0.049208
     38          6           0       -8.637987   -4.800059   -0.860721
     39          6           0       -5.458721   -4.358186    0.153384
     40          8           0       -5.204016   -5.568669    0.328395
     41          6           0       -4.160974   -3.400924    0.645727
     42          6           0       -3.567446   -3.733446    1.977986
     43          8           0       -3.762534   -3.211298    3.056760
     44          8           0       -2.667766   -4.708657    1.838012
     45          6           0       -2.076787   -5.169481    3.081843
     46          6           0        2.739108   -0.714424   -1.237228
     47          6           0        4.081840   -0.511069   -0.613946
     48          6           0        5.042506    0.229583   -1.176752
     49          6           0        5.041818    0.973887   -2.487197
     50          6           0        6.401972    0.307811   -0.447552
     51          6           0        7.595890   -0.345548   -1.167906
     52          6           0        8.866929   -0.135654   -0.308773
     53          6           0       10.146881   -0.438458   -1.090408
     54          6           0       10.161243   -1.953765   -1.498667
     55          6           0       11.454340   -0.207293   -0.135418
     56          6           0       12.770018   -0.440746   -0.827316
     57          6           0       14.011860   -0.059535    0.148960
     58          6           0       15.335098   -0.127970   -0.520931
     59          6           0       15.676264   -1.684199   -0.801207
     60          6           0       16.285142    0.567771    0.393331
     61          6           0       17.711656    0.592660   -0.084149
     62          6           0       18.705887    1.312802    0.866744
     63          6           0       20.201265    1.321622    0.414346
     64          6           0       20.245581    2.229024   -0.886412
     65          6           0       21.077580    1.859325    1.488547
     66          1           0       -3.972699    3.428378    1.416929
     67          1           0       -9.890117    4.169950   -0.512350
     68          1           0      -10.379190   -2.318207   -1.184656
     69          1           0       -2.862972   -0.934595    2.162990
     70          1           0       -2.232019    1.713174    1.230409
     71          1           0       -1.965954    1.082850    3.784235
     72          1           0       -3.316576    2.172879    3.633206
     73          1           0       -3.726756    0.618261    3.906267
     74          1           0       -2.316684   -1.791459   -0.273236
     75          1           0       -2.059709   -0.176305   -0.836341
     76          1           0       -0.330260    0.660338    0.871101
     77          1           0       -0.479127   -1.133547    1.397257
     78          1           0       -4.532177    6.069282    0.538527
     79          1           0       -5.936580    6.826235    1.713267
     80          1           0       -5.047415    5.461060    2.264264
     81          1           0       -9.606914    5.856968    0.386214
     82          1           0       -8.970138    8.071381   -0.167669
     83          1           0       -7.030207    7.455372   -0.127169
     84          1           0      -11.822923    3.177840   -2.157061
     85          1           0      -13.112047    2.114918   -1.751976
     86          1           0      -12.327182    3.277226   -0.338214
     87          1           0      -12.380951   -1.632848   -1.290609
     88          1           0      -13.425597   -0.242381   -1.554741
     89          1           0      -13.171790   -1.809533   -3.491049
     90          1           0      -12.580473   -0.147950   -3.978699
     91          1           0      -11.214958   -1.418209   -3.587611
     92          1           0       -9.255871   -4.838351   -1.785622
     93          1           0       -7.951399   -5.603025   -0.990944
     94          1           0       -9.432918   -5.155447   -0.107481
     95          1           0       -3.409285   -3.409316   -0.104212
     96          1           0       -1.477445   -4.383534    3.437386
     97          1           0       -2.766459   -5.434100    3.812590
     98          1           0       -1.389992   -5.891073    2.881450
     99          1           0        2.664961   -1.562978   -1.655370
    100          1           0        2.600632   -0.113193   -1.937450
    101          1           0        4.166487   -1.017412    0.407112
    102          1           0        3.919592    1.029101   -2.846337
    103          1           0        5.329852    1.971130   -2.320776
    104          1           0        5.766859    0.495788   -3.228713
    105          1           0        6.739213    1.365236   -0.241585
    106          1           0        6.210660   -0.209988    0.605159
    107          1           0        7.295773   -1.421771   -1.466503
    108          1           0        7.690216    0.062147   -2.082686
    109          1           0        8.786693    0.953081    0.041209
    110          1           0        8.754596   -0.748903    0.617773
    111          1           0       10.311394    0.237448   -1.886989
    112          1           0        9.438737   -2.148251   -2.263849
    113          1           0       10.939729   -2.290335   -2.011734
    114          1           0       10.069328   -2.622578   -0.707522
    115          1           0       11.441231    0.995366    0.211020
    116          1           0       11.319954   -0.756909    0.788959
    117          1           0       12.828062   -1.376228   -1.251030
    118          1           0       12.896840    0.099545   -1.792327
    119          1           0       13.654257    0.852332    0.474544
    120          1           0       13.844436   -0.658818    0.890998
    121          1           0       15.531108    0.258993   -1.544714
    122          1           0       15.670269   -2.340271    0.084584
    123          1           0       15.096564   -1.852977   -1.597510
    124          1           0       16.596883   -1.799723   -1.255407
    125          1           0       15.901721    1.409458    0.930853
    126          1           0       16.461610   -0.189204    1.214849
    127          1           0       18.115836   -0.424605   -0.213557
    128          1           0       17.810480    1.040492   -1.003187
    129          1           0       18.330839    2.455430    1.261556
    130          1           0       18.587165    0.799363    1.835991
    131          1           0       20.226667    0.265988    0.316775
    132          1           0       20.055120    3.398441   -0.675554
    133          1           0       21.095332    2.122406   -1.242477
    134          1           0       19.638264    1.818887   -1.722514
    135          1           0       21.064717    1.071057    2.258594
    136          1           0       22.242344    2.031913    1.056110
    137          1           0       20.947339    2.960939    1.884834
 ---------------------------------------------------------------------

 SCF Done:  E(RCAM-B3LYP) =  -2932.56138679     A.U. after   16 cycles

 Excitation energies and oscillator strengths:

 Excited State   1:      Singlet-A      2.0101 eV  616.80 nm  f=0.2916  <S**2>=0.000
     240 -> 243       -0.17135
     241 -> 242        0.67717
 This state for optimization and/or second-order correction.
 Total Energy, E(TD-HF/TD-KS) =  -2932.48751683
 Copying the excited state density for this state as the 1-particle RhoCI density.

 The electronic state is 1-A.
 Alpha  occ. eigenvalues --  -46.84196 -19.25740 -19.23806 -19.22182 -19.20838
 Alpha  occ. eigenvalues --  -19.20057 -14.40709 -14.40307 -14.39905 -14.39317
 Alpha  occ. eigenvalues --  -10.39234 -10.38638 -10.36407 -10.31025 -10.30814
 Alpha  occ. eigenvalues --  -10.30055 -10.29718 -10.29542 -10.29476 -10.29187
 Alpha  occ. eigenvalues --  -10.29168 -10.28881 -10.28787 -10.28709 -10.28561
 Alpha  occ. eigenvalues --  -10.28441 -10.28266 -10.28210 -10.28116 -10.27880
 Alpha  occ. eigenvalues --  -10.27876 -10.27782 -10.27532 -10.27510 -10.27252
 Alpha  occ. eigenvalues --  -10.27065 -10.26981 -10.26970 -10.26846 -10.26832
 Alpha  occ. eigenvalues --  -10.26820 -10.26797 -10.26508 -10.26482 -10.26475
 Alpha  occ. eigenvalues --  -10.26216 -10.26204 -10.26119 -10.26036 -10.26016
 Alpha  occ. eigenvalues --  -10.25921 -10.25827 -10.25673 -10.25648 -10.25587
 Alpha  occ. eigenvalues --  -10.25326 -10.24567 -10.24513 -10.23857 -10.23803
 Alpha  occ. eigenvalues --  -10.23798 -10.23748 -10.23001 -10.22798 -10.22520
 Alpha  occ. eigenvalues --   -3.13237  -1.87955  -1.87464  -1.87417  -1.18084
 Alpha  occ. eigenvalues --   -1.17461  -1.09603  -1.08853  -1.08772  -1.08136
 Alpha  occ. eigenvalues --   -1.02634  -1.01453  -1.00464  -0.92052  -0.90798
 Alpha  occ. eigenvalues --   -0.90260  -0.89831  -0.89694  -0.88882  -0.88666
 Alpha  occ. eigenvalues --   -0.88589  -0.88240  -0.88008  -0.87534  -0.85774
 Alpha  occ. eigenvalues --   -0.85081  -0.84373  -0.84146  -0.83173  -0.82846
 Alpha  occ. eigenvalues --   -0.82295  -0.81672  -0.80875  -0.79953  -0.79161
 Alpha  occ. eigenvalues --   -0.78306  -0.77114  -0.76499  -0.76461  -0.76035
 Alpha  occ. eigenvalues --   -0.75699  -0.75363  -0.74294  -0.73142  -0.72839
 Alpha  occ. eigenvalues --   -0.71985  -0.71164  -0.69327  -0.68782  -0.68546
 Alpha  occ. eigenvalues --   -0.66740  -0.66585  -0.65871  -0.65399  -0.65320
 Alpha  occ. eigenvalues --   -0.64249  -0.64177  -0.63749  -0.63243  -0.62331
 Alpha  occ. eigenvalues --   -0.61875  -0.60869  -0.60201  -0.60104  -0.58748
 Alpha  occ. eigenvalues --   -0.58486  -0.58063  -0.57620  -0.57240  -0.57114
 Alpha  occ. eigenvalues --   -0.55941  -0.55922  -0.54901  -0.54844  -0.54790
 Alpha  occ. eigenvalues --   -0.54200  -0.53929  -0.53832  -0.53594  -0.53313
 Alpha  occ. eigenvalues --   -0.53149  -0.52759  -0.52608  -0.52245  -0.51919
 Alpha  occ. eigenvalues --   -0.51564  -0.51413  -0.50818  -0.50503  -0.50416
 Alpha  occ. eigenvalues --   -0.50225  -0.49931  -0.49802  -0.49557  -0.49338
 Alpha  occ. eigenvalues --   -0.49160  -0.48865  -0.48596  -0.48497  -0.48215
 Alpha  occ. eigenvalues --   -0.48073  -0.48018  -0.47863  -0.47592  -0.47323
 Alpha  occ. eigenvalues --   -0.47085  -0.46677  -0.46635  -0.46390  -0.46105
 Alpha  occ. eigenvalues --   -0.45966  -0.45884  -0.45704  -0.45504  -0.45395
 Alpha  occ. eigenvalues --   -0.44961  -0.44733  -0.44717  -0.44557  -0.43970
 Alpha  occ. eigenvalues --   -0.43801  -0.43711  -0.43653  -0.43472  -0.43404
 Alpha  occ. eigenvalues --   -0.43129  -0.43057  -0.42961  -0.42659  -0.42414
 Alpha  occ. eigenvalues --   -0.42047  -0.41989  -0.41792  -0.41711  -0.41458
 Alpha  occ. eigenvalues --   -0.41170  -0.40997  -0.40733  -0.40428  -0.40406
 Alpha  occ. eigenvalues --   -0.40082  -0.40037  -0.39743  -0.39068  -0.38834
 Alpha  occ. eigenvalues --   -0.38762  -0.38674  -0.38061  -0.37999  -0.37708
 Alpha  occ. eigenvalues --   -0.37324  -0.36770  -0.36758  -0.36706  -0.36480
 Alpha  occ. eigenvalues --   -0.35941  -0.35840  -0.35726  -0.35712  -0.35417
 Alpha  occ. eigenvalues --   -0.34833  -0.34749  -0.34366  -0.34196  -0.33340
 Alpha  occ. eigenvalues --   -0.32809  -0.32531  -0.32239  -0.31438  -0.30938
 Alpha  occ. eigenvalues --   -0.29454  -0.29218  -0.28294  -0.26731  -0.24378
 Alpha  occ. eigenvalues --   -0.21506
 Alpha virt. eigenvalues --   -0.07087  -0.03054   0.01749   0.03030   0.05295
 Alpha virt. eigenvalues --    0.05854   0.06016   0.06284   0.06845   0.07776
 Alpha virt. eigenvalues --    0.08523   0.10038   0.10757   0.11261   0.11732

 Mulliken charges:
               1
     1  Mg   0.796141
     2  C    0.048003
     3  C   -0.174209
     4  C   -0.151838
     5  C   -0.205424
     6  N   -0.652897
     7  C    0.226323
     8  C   -0.124545
     9  C   -0.150267
    10  C    0.342479
    11  C   -0.342594
    12  C   -0.185374
    13  C   -0.294693
    14  C    0.623652
    15  O   -0.443059
    16  O   -0.532634
    17  N   -0.704700
    18  C    0.333653
    19  C   -0.006826
    20  C    0.001440
    21  C    0.291076
    22  C   -0.385125
    23  C   -0.051017
    24  C   -0.271368
    25  N   -0.682270
    26  C    0.318135
    27  C    0.017355
    28  C    0.031508
    29  C    0.245814
    30  C   -0.356395
    31  C   -0.231643
    32  C   -0.276957
    33  N   -0.720301
    34  C    0.268172
    35  C    0.107133
    36  C   -0.057646
    37  C    0.414026
    38  C   -0.409515
    39  C    0.361256
    40  O   -0.478023
    41  C   -0.304206
    42  C    0.639708
    43  O   -0.491526
    44  O   -0.456450
    45  C   -0.076089
    46  C    0.082497
    47  C   -0.154229
    48  C    0.110861
    49  C   -0.357545
    50  C   -0.222788
    51  C   -0.171734
    52  C   -0.162393
    53  C   -0.067503
    54  C   -0.319143
    55  C   -0.173177
    56  C   -0.203292
    57  C   -0.162156
    58  C   -0.069168
    59  C   -0.325356
    60  C   -0.165279
    61  C   -0.189629
    62  C   -0.166708
    63  C   -0.055010
    64  C   -0.293049
    65  C   -0.284348
    66  H    0.078789
    67  H    0.098694
    68  H    0.090499
    69  H    0.143834
    70  H    0.105117
    71  H    0.104454
    72  H    0.124443
    73  H    0.113044
    74  H    0.107160
    75  H    0.143756
    76  H    0.149582
    77  H    0.153000
    78  H    0.108001
    79  H    0.127406
    80  H    0.130853
    81  H    0.095049
    82  H    0.077860
    83  H    0.113263
    84  H    0.117503
    85  H    0.117695
    86  H    0.076661
    87  H    0.119484
    88  H    0.085357
    89  H    0.050219
    90  H    0.128781
    91  H    0.125922
    92  H    0.125438
    93  H    0.153192
    94  H    0.130787
    95  H    0.160620
    96  H    0.121193
    97  H    0.142264
    98  H    0.125131
    99  H    0.120180
   100  H    0.091666
   101  H    0.095313
   102  H    0.095730
   103  H    0.128858
   104  H    0.120415
   105  H    0.085197
   106  H    0.077365
   107  H    0.088263
   108  H    0.100377
   109  H    0.082765
   110  H    0.093996
   111  H    0.092540
   112  H    0.097564
   113  H    0.107460
   114  H    0.109896
   115  H    0.046392
   116  H    0.092892
   117  H    0.102267
   118  H    0.078293
   119  H    0.097182
   120  H    0.109664
   121  H    0.079862
   122  H    0.102525
   123  H    0.113549
   124  H    0.099942
   125  H    0.100171
   126  H    0.080513
   127  H    0.089739
   128  H    0.097552
   129  H    0.041137
   130  H    0.075533
   131  H    0.099091
   132  H    0.089602
   133  H    0.112241
   134  H    0.093724
   135  H    0.104359
   136  H    0.060806
   137  H    0.101199
 Sum of Mulliken charges =   0.00000

 Dipole moment (field-independent basis, Debye):
    X=             -0.0453    Y=              2.8353    Z=             -1.1573  Tot=              3.0628
 Quadrupole moment (field-independent basis, Debye-Ang):
   XX=           -346.6463   YY=           -397.7408   ZZ=           -393.5937
   XY=            -20.0533   XZ=              9.6024   YZ=             -2.0518

 Normal termination of Gaussian 09 at Sun Jun 30 00:55:00 2019.
