 Gaussian 09, Revision D.01,
 Gaussian 09:  ES64L-G09RevD.01 24-Apr-2013

 -------------------------------------
 # td=(NStates=1) CAM-B3LYP/6-31G(d,p)
 -------------------------------------

 --
 TD
 --
 Symbolic Z-matrix:
 Charge =  0 Multiplicity = 1

                         Standard orientation:
 ---------------------------------------------------------------------
 Center     Atomic      Atomic             Coordinates (Angstroms)
 Number     Number       Type             X           Y           Z
 ---------------------------------------------------------------------
      1         12           0       -7.165569    0.547921    0.140162
      2          6           0       -4.842338   -1.950849    0.552996
      3          6           0       -4.793129    2.752245    1.090087
      4          6           0       -9.449718    3.073435   -0.328918
      5          6           0       -9.526095   -1.715897   -0.871705
      6          7           0       -5.066969    0.407810    0.671664
      7          6           0       -4.378504   -0.770780    0.800714
      8          6           0       -2.925361   -0.449748    1.272018
      9          6           0       -3.045807    0.971644    1.743371
     10          6           0       -4.378145    1.403657    1.131783
     11          6           0       -3.020890    1.192758    3.192682
     12          6           0       -1.874303   -0.591294    0.053389
     13          6           0       -0.462088   -0.477420    0.534749
     14          6           0        0.559043   -0.601192   -0.585585
     15          8           0        0.279507   -0.976791   -1.743159
     16          8           0        1.775254   -0.228933   -0.237437
     17          7           0       -7.185824    2.592547    0.417910
     18          6           0       -6.112986    3.317357    0.804253
     19          6           0       -6.369547    4.742285    0.875723
     20          6           0       -7.704674    4.807544    0.393733
     21          6           0       -8.175391    3.557604    0.159365
     22          6           0       -5.635379    5.896833    1.398735
     23          6           0       -8.610177    5.980856    0.262439
     24          6           0       -8.325423    7.309070   -0.020569
     25          7           0       -9.210845    0.669679   -0.508906
     26          6           0       -9.954557    1.835024   -0.565685
     27          6           0      -11.263710    1.490546   -1.080375
     28          6           0      -11.221315    0.101537   -1.303168
     29          6           0       -9.894955   -0.393976   -0.897057
     30          6           0      -12.371898    2.379831   -1.319259
     31          6           0      -12.406861   -0.852461   -1.663658
     32          6           0      -12.399359   -1.169074   -3.176413
     33          7           0       -7.224570   -1.428398   -0.155483
     34          6           0       -8.259242   -2.197735   -0.549379
     35          6           0       -7.820165   -3.597075   -0.584078
     36          6           0       -6.486665   -3.552919   -0.088583
     37          6           0       -6.143245   -2.241860    0.113058
     38          6           0       -8.650988   -4.873479   -0.821171
     39          6           0       -5.348935   -4.381695    0.202478
     40          8           0       -5.118822   -5.560617    0.141133
     41          6           0       -4.086028   -3.340958    0.637295
     42          6           0       -3.485352   -3.660257    1.902867
     43          8           0       -3.603717   -3.077670    2.950763
     44          8           0       -2.652666   -4.651271    1.737936
     45          6           0       -1.807938   -5.060244    2.921831
     46          6           0        2.881540   -0.587983   -1.208697
     47          6           0        4.205609   -0.442279   -0.615923
     48          6           0        5.142149    0.482452   -0.933595
     49          6           0        5.020589    1.228968   -2.293819
     50          6           0        6.471210    0.531821   -0.318215
     51          6           0        7.599116   -0.142646   -1.047422
     52          6           0        8.961326   -0.069048   -0.191585
     53          6           0       10.228100   -0.546143   -0.909784
     54          6           0       10.090562   -2.017099   -1.304057
     55          6           0       11.469084   -0.328398   -0.067114
     56          6           0       12.788544   -0.550075   -0.833641
     57          6           0       13.903641   -0.132502    0.154744
     58          6           0       15.342074   -0.182810   -0.479606
     59          6           0       15.574107   -1.679134   -0.845047
     60          6           0       16.354949    0.306909    0.479110
     61          6           0       17.806150    0.580752   -0.134128
     62          6           0       18.748184    1.250583    0.822244
     63          6           0       20.182802    1.424663    0.254827
     64          6           0       20.170327    2.359985   -0.946761
     65          6           0       21.198807    1.843410    1.269538
     66          1           0       -4.118995    3.376408    1.881474
     67          1           0      -10.052104    3.974951   -0.601250
     68          1           0      -10.326389   -2.556239   -1.078361
     69          1           0       -2.519190   -1.187805    2.163511
     70          1           0       -2.132670    1.739023    1.535556
     71          1           0       -2.063395    0.923724    3.598267
     72          1           0       -3.266129    2.292465    3.288855
     73          1           0       -3.667997    0.495718    3.726001
     74          1           0       -1.947709   -1.755123   -0.385343
     75          1           0       -2.131810    0.224329   -0.735549
     76          1           0       -0.174776    0.504215    1.054440
     77          1           0       -0.238602   -1.090660    1.281649
     78          1           0       -4.690307    6.098255    0.813184
     79          1           0       -6.334265    6.721951    1.701299
     80          1           0       -5.159097    5.366327    2.448601
     81          1           0       -9.698610    5.803469    0.514045
     82          1           0       -8.978362    8.125337    0.099924
     83          1           0       -7.233025    7.678422   -0.160612
     84          1           0      -12.145804    3.152333   -2.219025
     85          1           0      -13.418354    1.930903   -1.519546
     86          1           0      -12.641117    2.990561   -0.544618
     87          1           0      -12.360669   -1.828917   -1.107528
     88          1           0      -13.286528   -0.390147   -1.253723
     89          1           0      -13.211781   -1.760313   -3.427538
     90          1           0      -12.467468   -0.283176   -3.810871
     91          1           0      -11.655921   -1.760975   -3.496915
     92          1           0       -8.929685   -4.805958   -1.917529
     93          1           0       -7.802036   -5.593527   -0.668892
     94          1           0       -9.582287   -5.020288   -0.232369
     95          1           0       -3.374826   -3.350261   -0.346769
     96          1           0       -1.123171   -4.137267    3.251705
     97          1           0       -2.455122   -5.473647    3.534338
     98          1           0       -1.188908   -5.816693    2.398947
     99          1           0        2.621935   -1.790810   -1.352004
    100          1           0        2.847675   -0.096018   -2.096840
    101          1           0        4.241366   -1.034353    0.181040
    102          1           0        4.084238    1.299071   -2.750241
    103          1           0        5.153552    2.319120   -2.191021
    104          1           0        5.868770    0.729078   -2.853069
    105          1           0        6.812922    1.396875    0.067020
    106          1           0        6.342402    0.044385    0.761250
    107          1           0        7.319844   -1.394362   -0.954049
    108          1           0        8.042438    0.235065   -2.088810
    109          1           0        9.084112    1.022067    0.008822
    110          1           0        8.814156   -0.619700    0.738564
    111          1           0       10.196707    0.015896   -1.893255
    112          1           0        9.075675   -2.222675   -2.001972
    113          1           0       10.842648   -2.436082   -1.811207
    114          1           0       10.060435   -2.722110   -0.511529
    115          1           0       11.547712    0.895268    0.033915
    116          1           0       11.450176   -0.931537    1.014299
    117          1           0       12.861167   -1.583845   -1.093803
    118          1           0       12.725496   -0.217251   -1.893019
    119          1           0       13.760736    0.810159    0.546389
    120          1           0       14.141194   -0.863724    0.882860
    121          1           0       15.347201    0.392581   -1.382988
    122          1           0       15.543276   -2.313311    0.005102
    123          1           0       14.841992   -2.198432   -1.666686
    124          1           0       16.637767   -1.847016   -1.218645
    125          1           0       16.190116    1.430719    0.848702
    126          1           0       16.498766   -0.210509    1.310634
    127          1           0       18.060261   -0.407139   -0.664343
    128          1           0       17.542905    1.005998   -1.320807
    129          1           0       18.392702    2.330853    1.185141
    130          1           0       18.890411    0.820083    1.735811
    131          1           0       20.519092    0.262831   -0.174934
    132          1           0       19.583583    3.296682   -0.699405
    133          1           0       21.026813    2.640313   -1.194006
    134          1           0       19.656970    1.758060   -1.710791
    135          1           0       21.087737    1.174555    2.310744
    136          1           0       22.224977    1.742885    0.919497
    137          1           0       21.004520    2.786259    1.501950
 ---------------------------------------------------------------------

 SCF Done:  E(RCAM-B3LYP) =  -2932.61252136     A.U. after   17 cycles

 Excitation energies and oscillator strengths:

 Excited State   1:      Singlet-A      1.9720 eV  628.73 nm  f=0.3066  <S**2>=0.000
     240 -> 242       -0.12340
     240 -> 243        0.20253
     241 -> 242        0.65764
 This state for optimization and/or second-order correction.
 Total Energy, E(TD-HF/TD-KS) =  -2932.54005294
 Copying the excited state density for this state as the 1-particle RhoCI density.

 The electronic state is 1-A.
 Alpha  occ. eigenvalues --  -46.84911 -19.25988 -19.25309 -19.21048 -19.19419
 Alpha  occ. eigenvalues --  -19.19071 -14.41272 -14.39350 -14.39005 -14.38969
 Alpha  occ. eigenvalues --  -10.38269 -10.37759 -10.35799 -10.32038 -10.31939
 Alpha  occ. eigenvalues --  -10.30242 -10.30084 -10.29420 -10.29119 -10.29115
 Alpha  occ. eigenvalues --  -10.28947 -10.28896 -10.28849 -10.28798 -10.28777
 Alpha  occ. eigenvalues --  -10.28579 -10.28506 -10.28364 -10.28325 -10.28275
 Alpha  occ. eigenvalues --  -10.28082 -10.28072 -10.27772 -10.27494 -10.27444
 Alpha  occ. eigenvalues --  -10.27264 -10.27224 -10.27150 -10.27057 -10.26807
 Alpha  occ. eigenvalues --  -10.26752 -10.26664 -10.26547 -10.26439 -10.26428
 Alpha  occ. eigenvalues --  -10.26421 -10.26409 -10.26368 -10.26345 -10.26077
 Alpha  occ. eigenvalues --  -10.26003 -10.25915 -10.25759 -10.25679 -10.25611
 Alpha  occ. eigenvalues --  -10.25482 -10.25207 -10.24892 -10.24829 -10.24814
 Alpha  occ. eigenvalues --  -10.24590 -10.24330 -10.24187 -10.23399 -10.22812
 Alpha  occ. eigenvalues --   -3.13766  -1.88490  -1.87986  -1.87943  -1.18234
 Alpha  occ. eigenvalues --   -1.16930  -1.12103  -1.08137  -1.06087  -1.05460
 Alpha  occ. eigenvalues --   -1.04148  -1.03476  -1.02678  -0.92517  -0.91967
 Alpha  occ. eigenvalues --   -0.90976  -0.89900  -0.89625  -0.88887  -0.88596
 Alpha  occ. eigenvalues --   -0.88383  -0.87836  -0.87451  -0.86578  -0.86161
 Alpha  occ. eigenvalues --   -0.85387  -0.84220  -0.84001  -0.83632  -0.82526
 Alpha  occ. eigenvalues --   -0.81574  -0.81296  -0.80668  -0.80097  -0.78280
 Alpha  occ. eigenvalues --   -0.77584  -0.77021  -0.76770  -0.76705  -0.76337
 Alpha  occ. eigenvalues --   -0.75311  -0.74983  -0.74697  -0.73347  -0.72487
 Alpha  occ. eigenvalues --   -0.71293  -0.70351  -0.70071  -0.68919  -0.68524
 Alpha  occ. eigenvalues --   -0.66935  -0.66411  -0.65000  -0.64739  -0.64306
 Alpha  occ. eigenvalues --   -0.63940  -0.63600  -0.62850  -0.62635  -0.61837
 Alpha  occ. eigenvalues --   -0.61596  -0.61312  -0.60555  -0.59415  -0.59079
 Alpha  occ. eigenvalues --   -0.58477  -0.57634  -0.57425  -0.56848  -0.56714
 Alpha  occ. eigenvalues --   -0.56279  -0.55746  -0.55435  -0.55191  -0.54557
 Alpha  occ. eigenvalues --   -0.54261  -0.53890  -0.53540  -0.53393  -0.53025
 Alpha  occ. eigenvalues --   -0.52627  -0.52289  -0.52089  -0.51734  -0.51713
 Alpha  occ. eigenvalues --   -0.51669  -0.50957  -0.50787  -0.50719  -0.50554
 Alpha  occ. eigenvalues --   -0.50461  -0.50110  -0.49828  -0.49590  -0.49498
 Alpha  occ. eigenvalues --   -0.49371  -0.49117  -0.48843  -0.48740  -0.48622
 Alpha  occ. eigenvalues --   -0.48179  -0.47874  -0.47336  -0.47309  -0.47064
 Alpha  occ. eigenvalues --   -0.46934  -0.46480  -0.46273  -0.45944  -0.45841
 Alpha  occ. eigenvalues --   -0.45573  -0.45490  -0.45371  -0.45129  -0.45038
 Alpha  occ. eigenvalues --   -0.44918  -0.44849  -0.44647  -0.44596  -0.44369
 Alpha  occ. eigenvalues --   -0.44012  -0.43766  -0.43364  -0.43210  -0.43153
 Alpha  occ. eigenvalues --   -0.43022  -0.42934  -0.42677  -0.42509  -0.42258
 Alpha  occ. eigenvalues --   -0.42000  -0.41790  -0.41580  -0.41437  -0.41272
 Alpha  occ. eigenvalues --   -0.40887  -0.40667  -0.40573  -0.40484  -0.40217
 Alpha  occ. eigenvalues --   -0.39634  -0.39582  -0.39351  -0.39227  -0.39106
 Alpha  occ. eigenvalues --   -0.38694  -0.38504  -0.38241  -0.38104  -0.37730
 Alpha  occ. eigenvalues --   -0.37476  -0.37367  -0.37028  -0.36704  -0.36412
 Alpha  occ. eigenvalues --   -0.35929  -0.35552  -0.35519  -0.35405  -0.35253
 Alpha  occ. eigenvalues --   -0.35179  -0.34548  -0.34516  -0.33192  -0.32898
 Alpha  occ. eigenvalues --   -0.32604  -0.32413  -0.32102  -0.31002  -0.30025
 Alpha  occ. eigenvalues --   -0.29828  -0.29412  -0.27812  -0.26883  -0.23161
 Alpha  occ. eigenvalues --   -0.21267
 Alpha virt. eigenvalues --   -0.07517  -0.02458   0.01576   0.04145   0.04241
 Alpha virt. eigenvalues --    0.05782   0.06185   0.06644   0.06812   0.07317
 Alpha virt. eigenvalues --    0.08938   0.10457   0.10749   0.11090   0.11818

 Mulliken charges:
               1
     1  Mg   0.824110
     2  C    0.076366
     3  C   -0.214697
     4  C   -0.188079
     5  C   -0.165196
     6  N   -0.642197
     7  C    0.294378
     8  C   -0.166246
     9  C   -0.139564
    10  C    0.369256
    11  C   -0.291718
    12  C   -0.146836
    13  C   -0.253590
    14  C    0.604982
    15  O   -0.504642
    16  O   -0.477463
    17  N   -0.695039
    18  C    0.296765
    19  C    0.061834
    20  C    0.009628
    21  C    0.285629
    22  C   -0.372600
    23  C   -0.108618
    24  C   -0.252999
    25  N   -0.706175
    26  C    0.312299
    27  C    0.058117
    28  C   -0.021074
    29  C    0.345737
    30  C   -0.392900
    31  C   -0.233488
    32  C   -0.314685
    33  N   -0.765162
    34  C    0.309180
    35  C   -0.023102
    36  C    0.042112
    37  C    0.279779
    38  C   -0.364850
    39  C    0.333426
    40  O   -0.442882
    41  C   -0.326517
    42  C    0.639673
    43  O   -0.496016
    44  O   -0.460833
    45  C   -0.076147
    46  C    0.026829
    47  C   -0.092459
    48  C    0.102984
    49  C   -0.366217
    50  C   -0.222453
    51  C   -0.164436
    52  C   -0.171178
    53  C   -0.064023
    54  C   -0.308093
    55  C   -0.149539
    56  C   -0.188537
    57  C   -0.154352
    58  C   -0.083376
    59  C   -0.317208
    60  C   -0.160136
    61  C   -0.178164
    62  C   -0.152841
    63  C   -0.056101
    64  C   -0.280691
    65  C   -0.299817
    66  H    0.056826
    67  H    0.087896
    68  H    0.103034
    69  H    0.111052
    70  H    0.093027
    71  H    0.106930
    72  H    0.096221
    73  H    0.120913
    74  H    0.094879
    75  H    0.115484
    76  H    0.119213
    77  H    0.137675
    78  H    0.134148
    79  H    0.135246
    80  H    0.082337
    81  H    0.099380
    82  H    0.112165
    83  H    0.094046
    84  H    0.102239
    85  H    0.107298
    86  H    0.132665
    87  H    0.096598
    88  H    0.107612
    89  H    0.103479
    90  H    0.112563
    91  H    0.119713
    92  H    0.121510
    93  H    0.149618
    94  H    0.131984
    95  H    0.159125
    96  H    0.123573
    97  H    0.155064
    98  H    0.135417
    99  H    0.100154
   100  H    0.125986
   101  H    0.081526
   102  H    0.122488
   103  H    0.109630
   104  H    0.128580
   105  H    0.117141
   106  H    0.088788
   107  H    0.076165
   108  H    0.091260
   109  H    0.084310
   110  H    0.094014
   111  H    0.079712
   112  H    0.072349
   113  H    0.109492
   114  H    0.101328
   115  H    0.066563
   116  H    0.080397
   117  H    0.099062
   118  H    0.094446
   119  H    0.098706
   120  H    0.099017
   121  H    0.090001
   122  H    0.109485
   123  H    0.085643
   124  H    0.089611
   125  H    0.070976
   126  H    0.102362
   127  H    0.091016
   128  H    0.056049
   129  H    0.072233
   130  H    0.107707
   131  H    0.037949
   132  H    0.086126
   133  H    0.105506
   134  H    0.107935
   135  H    0.063504
   136  H    0.108728
   137  H    0.114974
 Sum of Mulliken charges =   0.00000

 Dipole moment (field-independent basis, Debye):
    X=              2.7693    Y=              2.8510    Z=              1.5709  Tot=              4.2738
 Quadrupole moment (field-independent basis, Debye-Ang):
   XX=           -317.0361   YY=           -391.1847   ZZ=           -400.2432
   XY=            -13.2391   XZ=              9.7275   YZ=             -2.4805

 Normal termination of Gaussian 09 at Sun Jun 30 12:21:52 2019.
