 Gaussian 09, Revision D.01,
 Gaussian 09:  ES64L-G09RevD.01 24-Apr-2013

 -------------------------------------
 # td=(NStates=1) CAM-B3LYP/6-31G(d,p)
 -------------------------------------

 --
 TD
 --
 Symbolic Z-matrix:
 Charge =  0 Multiplicity = 1

                         Standard orientation:
 ---------------------------------------------------------------------
 Center     Atomic      Atomic             Coordinates (Angstroms)
 Number     Number       Type             X           Y           Z
 ---------------------------------------------------------------------
      1         12           0       -7.181663    0.546494    0.094843
      2          6           0       -4.819522   -1.908534    0.530530
      3          6           0       -4.835052    2.781055    1.324129
      4          6           0       -9.424347    3.013123   -0.201509
      5          6           0       -9.525287   -1.755925   -0.937226
      6          7           0       -5.066379    0.434529    0.692085
      7          6           0       -4.240577   -0.715718    0.712305
      8          6           0       -2.889349   -0.374093    1.239649
      9          6           0       -3.064279    1.068518    1.751024
     10          6           0       -4.346520    1.433931    1.207696
     11          6           0       -2.891502    1.283330    3.297627
     12          6           0       -1.825219   -0.617474    0.172607
     13          6           0       -0.449880   -0.387381    0.660731
     14          6           0        0.485802   -0.485864   -0.597190
     15          8           0        0.177021   -0.971425   -1.610612
     16          8           0        1.725247   -0.306530   -0.142639
     17          7           0       -7.099774    2.622985    0.469685
     18          6           0       -6.026896    3.342103    0.888755
     19          6           0       -6.386601    4.696455    0.910033
     20          6           0       -7.708684    4.839369    0.404474
     21          6           0       -8.132203    3.418468    0.174812
     22          6           0       -5.490009    5.892529    1.364028
     23          6           0       -8.599301    6.035348    0.258122
     24          6           0       -8.213595    7.300979    0.029428
     25          7           0       -9.065483    0.587126   -0.557673
     26          6           0       -9.811528    1.692662   -0.589039
     27          6           0      -11.148871    1.420445   -1.092011
     28          6           0      -11.201140    0.023005   -1.335144
     29          6           0       -9.877145   -0.515897   -0.962412
     30          6           0      -12.316507    2.441089   -1.345373
     31          6           0      -12.489257   -0.666159   -1.789146
     32          6           0      -12.408870   -1.083204   -3.288283
     33          7           0       -7.165100   -1.393281   -0.174660
     34          6           0       -8.222844   -2.216297   -0.543684
     35          6           0       -7.776539   -3.594221   -0.568612
     36          6           0       -6.533369   -3.555795   -0.109947
     37          6           0       -6.133484   -2.254380    0.158726
     38          6           0       -8.622517   -4.810916   -0.851368
     39          6           0       -5.289097   -4.457185    0.128938
     40          8           0       -5.192818   -5.648395    0.185043
     41          6           0       -4.172141   -3.285617    0.570916
     42          6           0       -3.541869   -3.665195    1.846106
     43          8           0       -3.870837   -3.224803    2.928409
     44          8           0       -2.633383   -4.727209    1.668102
     45          6           0       -2.174219   -5.275108    2.886173
     46          6           0        2.811274   -0.660513   -1.115421
     47          6           0        4.117029   -0.305994   -0.514103
     48          6           0        5.087621    0.500615   -0.976066
     49          6           0        4.994772    1.246615   -2.167468
     50          6           0        6.467403    0.541221   -0.235536
     51          6           0        7.536568   -0.047949   -1.109515
     52          6           0        8.827109    0.044467   -0.226039
     53          6           0       10.115167   -0.446306   -0.923307
     54          6           0       10.098815   -1.808290   -1.498429
     55          6           0       11.394503   -0.177474    0.022598
     56          6           0       12.684295   -0.443597   -0.723214
     57          6           0       13.898047   -0.030411    0.125370
     58          6           0       15.236007   -0.127760   -0.517232
     59          6           0       15.628736   -1.695587   -0.861226
     60          6           0       16.437852    0.314990    0.397453
     61          6           0       17.846711    0.433364   -0.187616
     62          6           0       18.740733    1.234098    0.727457
     63          6           0       20.232379    1.270658    0.253175
     64          6           0       20.496443    1.914331   -1.136908
     65          6           0       21.144444    1.677446    1.426916
     66          1           0       -4.063413    3.653566    1.369267
     67          1           0      -10.009983    4.042808   -0.642202
     68          1           0      -10.171504   -2.635321   -1.046644
     69          1           0       -2.634620   -0.968173    2.189172
     70          1           0       -2.314226    1.830959    1.139585
     71          1           0       -1.952937    1.121877    3.516392
     72          1           0       -3.084274    2.273210    3.639208
     73          1           0       -3.678723    0.541759    3.684067
     74          1           0       -1.986137   -1.468586   -0.262380
     75          1           0       -2.164470    0.087448   -0.680346
     76          1           0       -0.398486    0.570991    1.028453
     77          1           0       -0.327764   -1.109932    1.476208
     78          1           0       -4.966621    6.317722    0.413852
     79          1           0       -6.203245    6.652585    2.048684
     80          1           0       -4.475668    5.431160    1.950333
     81          1           0       -9.795575    5.887771    0.160554
     82          1           0       -8.825080    8.247416    0.055954
     83          1           0       -7.177111    7.545884    0.065219
     84          1           0      -12.016090    2.989549   -2.292356
     85          1           0      -13.108378    1.850321   -1.594502
     86          1           0      -12.493201    3.094844   -0.491742
     87          1           0      -12.607055   -1.557711   -1.134218
     88          1           0      -13.316654   -0.014097   -1.633406
     89          1           0      -13.470385   -1.568149   -3.492277
     90          1           0      -12.265770   -0.277567   -3.978847
     91          1           0      -11.649698   -1.897394   -3.544313
     92          1           0       -8.772727   -4.785971   -1.859269
     93          1           0       -8.014497   -5.719663   -0.758362
     94          1           0       -9.447737   -5.050758   -0.240385
     95          1           0       -3.291871   -3.364013   -0.236624
     96          1           0       -1.440542   -4.684723    3.368103
     97          1           0       -3.080555   -5.382548    3.582442
     98          1           0       -1.709007   -6.236556    2.548905
     99          1           0        2.744858   -1.741023   -1.368033
    100          1           0        2.488959   -0.127772   -1.882379
    101          1           0        4.268918   -0.904073    0.338854
    102          1           0        3.874825    1.178016   -2.548462
    103          1           0        5.448662    2.443653   -2.080183
    104          1           0        5.556704    0.884659   -3.185063
    105          1           0        6.713124    1.468733   -0.132055
    106          1           0        6.464206    0.049412    0.681728
    107          1           0        7.419170   -1.192507   -1.231211
    108          1           0        7.821900    0.485156   -1.995830
    109          1           0        9.017740    1.102587    0.070249
    110          1           0        8.496299   -0.624249    0.643283
    111          1           0       10.274896    0.539596   -1.663214
    112          1           0        9.152502   -1.819290   -2.246084
    113          1           0       11.071274   -2.198939   -1.951389
    114          1           0       10.140901   -2.504119   -0.550450
    115          1           0       11.190957    0.699076    0.319219
    116          1           0       11.471817   -0.784945    0.788679
    117          1           0       12.893587   -1.466611   -1.002634
    118          1           0       12.446812    0.288503   -1.455987
    119          1           0       13.830114    0.850084    0.604754
    120          1           0       13.945756   -0.793363    1.003948
    121          1           0       15.366001    0.381504   -1.529857
    122          1           0       15.566784   -2.274253    0.176936
    123          1           0       14.860361   -1.986023   -1.615797
    124          1           0       16.648678   -1.980813   -1.389556
    125          1           0       16.100814    1.402097    0.579434
    126          1           0       16.559096   -0.210760    1.450400
    127          1           0       18.562917   -0.428743   -0.141951
    128          1           0       17.855557    0.732170   -1.347302
    129          1           0       18.345753    2.267720    1.180023
    130          1           0       18.781358    0.827566    1.652583
    131          1           0       20.537210    0.330491    0.184737
    132          1           0       20.062616    2.934435   -1.185400
    133          1           0       21.519176    1.930226   -1.293740
    134          1           0       20.172443    1.401144   -2.054874
    135          1           0       21.023736    1.083161    2.307546
    136          1           0       22.188496    1.434781    1.043587
    137          1           0       21.183359    2.665243    1.705832
 ---------------------------------------------------------------------

 SCF Done:  E(RCAM-B3LYP) =  -2932.63295995     A.U. after   17 cycles

 Excitation energies and oscillator strengths:

 Excited State   1:      Singlet-A      2.1575 eV  574.66 nm  f=0.2262  <S**2>=0.000
     240 -> 242       -0.16724
     240 -> 243       -0.21095
     241 -> 242        0.63787
     241 -> 243       -0.11471
 This state for optimization and/or second-order correction.
 Total Energy, E(TD-HF/TD-KS) =  -2932.55367190
 Copying the excited state density for this state as the 1-particle RhoCI density.

 The electronic state is 1-A.
 Alpha  occ. eigenvalues --  -46.83739 -19.25497 -19.25087 -19.21850 -19.21389
 Alpha  occ. eigenvalues --  -19.20909 -14.41959 -14.39386 -14.38591 -14.38590
 Alpha  occ. eigenvalues --  -10.38633 -10.38629 -10.36482 -10.31242 -10.31142
 Alpha  occ. eigenvalues --  -10.30189 -10.30161 -10.30044 -10.29955 -10.29614
 Alpha  occ. eigenvalues --  -10.29323 -10.29171 -10.29146 -10.28893 -10.28490
 Alpha  occ. eigenvalues --  -10.28431 -10.28317 -10.27887 -10.27806 -10.27795
 Alpha  occ. eigenvalues --  -10.27500 -10.27468 -10.27406 -10.27317 -10.27107
 Alpha  occ. eigenvalues --  -10.27046 -10.27005 -10.26865 -10.26685 -10.26675
 Alpha  occ. eigenvalues --  -10.26521 -10.26493 -10.26406 -10.26387 -10.26370
 Alpha  occ. eigenvalues --  -10.26168 -10.26163 -10.26096 -10.25994 -10.25971
 Alpha  occ. eigenvalues --  -10.25950 -10.25860 -10.25858 -10.25570 -10.25038
 Alpha  occ. eigenvalues --  -10.24719 -10.24691 -10.24655 -10.24461 -10.24370
 Alpha  occ. eigenvalues --  -10.24162 -10.24007 -10.23947 -10.23824 -10.22339
 Alpha  occ. eigenvalues --   -3.12870  -1.87571  -1.87127  -1.87035  -1.19045
 Alpha  occ. eigenvalues --   -1.16399  -1.12636  -1.10634  -1.08752  -1.04719
 Alpha  occ. eigenvalues --   -1.03854  -1.02899  -1.01825  -0.92479  -0.91888
 Alpha  occ. eigenvalues --   -0.90946  -0.90593  -0.89647  -0.88652  -0.88387
 Alpha  occ. eigenvalues --   -0.87952  -0.87747  -0.87503  -0.86668  -0.86539
 Alpha  occ. eigenvalues --   -0.85831  -0.84094  -0.83408  -0.82705  -0.82145
 Alpha  occ. eigenvalues --   -0.81835  -0.80848  -0.80426  -0.80238  -0.78605
 Alpha  occ. eigenvalues --   -0.77047  -0.76580  -0.76382  -0.75840  -0.75304
 Alpha  occ. eigenvalues --   -0.75271  -0.74701  -0.73994  -0.73424  -0.72459
 Alpha  occ. eigenvalues --   -0.72151  -0.70562  -0.69934  -0.69654  -0.67529
 Alpha  occ. eigenvalues --   -0.66920  -0.66355  -0.65325  -0.65103  -0.64251
 Alpha  occ. eigenvalues --   -0.64133  -0.63422  -0.63305  -0.62302  -0.61600
 Alpha  occ. eigenvalues --   -0.61100  -0.60944  -0.59901  -0.59627  -0.59024
 Alpha  occ. eigenvalues --   -0.58001  -0.57697  -0.57254  -0.57034  -0.56681
 Alpha  occ. eigenvalues --   -0.56422  -0.56167  -0.55989  -0.55333  -0.54886
 Alpha  occ. eigenvalues --   -0.54540  -0.54040  -0.53948  -0.53566  -0.53382
 Alpha  occ. eigenvalues --   -0.52710  -0.52503  -0.52273  -0.51971  -0.51882
 Alpha  occ. eigenvalues --   -0.51281  -0.51161  -0.51084  -0.50882  -0.50663
 Alpha  occ. eigenvalues --   -0.50145  -0.49847  -0.49613  -0.49560  -0.49251
 Alpha  occ. eigenvalues --   -0.49166  -0.48909  -0.48799  -0.48734  -0.48336
 Alpha  occ. eigenvalues --   -0.48170  -0.47826  -0.47680  -0.47459  -0.47017
 Alpha  occ. eigenvalues --   -0.46919  -0.46780  -0.46569  -0.46200  -0.45988
 Alpha  occ. eigenvalues --   -0.45831  -0.45677  -0.45306  -0.45271  -0.45147
 Alpha  occ. eigenvalues --   -0.44991  -0.44408  -0.44296  -0.44093  -0.44046
 Alpha  occ. eigenvalues --   -0.43983  -0.43705  -0.43465  -0.43260  -0.43193
 Alpha  occ. eigenvalues --   -0.42916  -0.42821  -0.42677  -0.42466  -0.42390
 Alpha  occ. eigenvalues --   -0.42214  -0.42095  -0.41921  -0.41542  -0.41210
 Alpha  occ. eigenvalues --   -0.41060  -0.40923  -0.40866  -0.40668  -0.40362
 Alpha  occ. eigenvalues --   -0.40277  -0.39975  -0.39794  -0.39660  -0.39292
 Alpha  occ. eigenvalues --   -0.39232  -0.39219  -0.38457  -0.38410  -0.38035
 Alpha  occ. eigenvalues --   -0.38014  -0.37459  -0.37040  -0.36607  -0.36553
 Alpha  occ. eigenvalues --   -0.36469  -0.36446  -0.36202  -0.35695  -0.35118
 Alpha  occ. eigenvalues --   -0.34982  -0.34807  -0.34207  -0.33703  -0.33471
 Alpha  occ. eigenvalues --   -0.33341  -0.32409  -0.32173  -0.30961  -0.29972
 Alpha  occ. eigenvalues --   -0.29927  -0.29451  -0.27961  -0.27406  -0.22935
 Alpha  occ. eigenvalues --   -0.21226
 Alpha virt. eigenvalues --   -0.06287  -0.02522   0.01829   0.03861   0.04521
 Alpha virt. eigenvalues --    0.05823   0.06399   0.06771   0.06903   0.07210
 Alpha virt. eigenvalues --    0.08132   0.10459   0.11336   0.11340   0.11772

 Mulliken charges:
               1
     1  Mg   0.830935
     2  C    0.135115
     3  C   -0.200793
     4  C   -0.189677
     5  C   -0.161858
     6  N   -0.596469
     7  C    0.244812
     8  C   -0.171298
     9  C   -0.159123
    10  C    0.355070
    11  C   -0.294525
    12  C   -0.153424
    13  C   -0.262371
    14  C    0.594657
    15  O   -0.434389
    16  O   -0.490606
    17  N   -0.718840
    18  C    0.350545
    19  C   -0.001316
    20  C    0.008399
    21  C    0.322010
    22  C   -0.355467
    23  C   -0.083180
    24  C   -0.250084
    25  N   -0.724463
    26  C    0.342377
    27  C   -0.034229
    28  C    0.025286
    29  C    0.310092
    30  C   -0.343353
    31  C   -0.232933
    32  C   -0.306881
    33  N   -0.731087
    34  C    0.229954
    35  C   -0.029095
    36  C    0.014378
    37  C    0.228374
    38  C   -0.383166
    39  C    0.402978
    40  O   -0.417162
    41  C   -0.371574
    42  C    0.639291
    43  O   -0.471463
    44  O   -0.474579
    45  C   -0.078601
    46  C    0.010310
    47  C   -0.135886
    48  C    0.162335
    49  C   -0.370649
    50  C   -0.196042
    51  C   -0.189926
    52  C   -0.175441
    53  C   -0.057134
    54  C   -0.304994
    55  C   -0.160164
    56  C   -0.177523
    57  C   -0.164958
    58  C   -0.071507
    59  C   -0.311049
    60  C   -0.160321
    61  C   -0.157403
    62  C   -0.170824
    63  C   -0.060905
    64  C   -0.318611
    65  C   -0.331635
    66  H    0.069094
    67  H    0.080159
    68  H    0.106112
    69  H    0.115984
    70  H    0.082418
    71  H    0.124348
    72  H    0.120924
    73  H    0.125177
    74  H    0.125447
    75  H    0.091581
    76  H    0.127887
    77  H    0.134199
    78  H    0.127733
    79  H    0.121584
    80  H    0.085823
    81  H    0.092149
    82  H    0.109476
    83  H    0.104323
    84  H    0.119578
    85  H    0.112679
    86  H    0.127405
    87  H    0.110237
    88  H    0.115921
    89  H    0.085049
    90  H    0.121727
    91  H    0.109910
    92  H    0.130559
    93  H    0.135267
    94  H    0.130574
    95  H    0.146099
    96  H    0.118049
    97  H    0.126307
    98  H    0.119320
    99  H    0.131638
   100  H    0.123799
   101  H    0.093035
   102  H    0.101614
   103  H    0.084647
   104  H    0.113537
   105  H    0.108295
   106  H    0.105738
   107  H    0.099064
   108  H    0.103205
   109  H    0.086887
   110  H    0.078716
   111  H    0.039348
   112  H    0.096886
   113  H    0.110073
   114  H    0.095252
   115  H    0.091103
   116  H    0.092298
   117  H    0.104118
   118  H    0.097600
   119  H    0.097878
   120  H    0.072774
   121  H    0.084351
   122  H    0.083275
   123  H    0.092590
   124  H    0.094317
   125  H    0.078791
   126  H    0.078570
   127  H    0.091406
   128  H    0.077036
   129  H    0.052855
   130  H    0.100716
   131  H    0.103257
   132  H    0.102881
   133  H    0.104648
   134  H    0.101602
   135  H    0.107147
   136  H    0.082952
   137  H    0.113065
 Sum of Mulliken charges =   0.00000

 Dipole moment (field-independent basis, Debye):
    X=              2.5554    Y=              4.5913    Z=             -0.2246  Tot=              5.2593
 Quadrupole moment (field-independent basis, Debye-Ang):
   XX=           -338.6880   YY=           -395.6312   ZZ=           -398.1892
   XY=            -25.4745   XZ=             15.6266   YZ=             -0.5211

 Normal termination of Gaussian 09 at Thu Jun 27 07:12:57 2019.
