 Gaussian 09, Revision D.01,
 Gaussian 09:  ES64L-G09RevD.01 24-Apr-2013

 -------------------------------------
 # td=(NStates=1) CAM-B3LYP/6-31G(d,p)
 -------------------------------------

 --
 TD
 --
 Symbolic Z-matrix:
 Charge =  0 Multiplicity = 1

                         Standard orientation:
 ---------------------------------------------------------------------
 Center     Atomic      Atomic             Coordinates (Angstroms)
 Number     Number       Type             X           Y           Z
 ---------------------------------------------------------------------
      1         12           0       -7.113319    0.597180    0.200936
      2          6           0       -4.757312   -1.954653    0.499290
      3          6           0       -4.906149    2.813089    1.359607
      4          6           0       -9.442596    3.095648   -0.331208
      5          6           0       -9.465316   -1.762954   -0.927516
      6          7           0       -5.083990    0.434825    0.691715
      7          6           0       -4.331130   -0.674089    0.859524
      8          6           0       -2.874126   -0.439933    1.277900
      9          6           0       -3.046065    1.088236    1.708596
     10          6           0       -4.425617    1.501342    1.183266
     11          6           0       -2.881389    1.199940    3.274347
     12          6           0       -1.944456   -0.568664    0.133971
     13          6           0       -0.489231   -0.382702    0.453897
     14          6           0        0.420850   -0.663811   -0.714477
     15          8           0        0.037144   -0.972909   -1.836893
     16          8           0        1.693793   -0.503778   -0.339618
     17          7           0       -7.160181    2.630335    0.354049
     18          6           0       -6.093764    3.337309    0.818987
     19          6           0       -6.504877    4.798224    0.849446
     20          6           0       -7.781934    4.834915    0.367741
     21          6           0       -8.241717    3.473413    0.052828
     22          6           0       -5.622351    5.935985    1.426652
     23          6           0       -8.654844    6.029051    0.266993
     24          6           0       -8.284240    7.238095    0.060233
     25          7           0       -9.185523    0.668241   -0.538554
     26          6           0       -9.954179    1.742841   -0.567107
     27          6           0      -11.275971    1.383976   -0.919639
     28          6           0      -11.295208    0.055211   -1.180014
     29          6           0       -9.975569   -0.396571   -0.771290
     30          6           0      -12.331833    2.431397   -1.191842
     31          6           0      -12.258403   -0.776995   -1.884317
     32          6           0      -12.148062   -1.120814   -3.379867
     33          7           0       -7.175020   -1.355480   -0.119847
     34          6           0       -8.287647   -2.234970   -0.512192
     35          6           0       -7.840456   -3.599209   -0.525276
     36          6           0       -6.471002   -3.599426   -0.171785
     37          6           0       -6.198384   -2.250083    0.197849
     38          6           0       -8.681011   -4.792944   -0.784836
     39          6           0       -5.249671   -4.365828    0.155545
     40          8           0       -5.055010   -5.577299    0.276456
     41          6           0       -4.245077   -3.332776    0.533269
     42          6           0       -3.504731   -3.711145    1.794837
     43          8           0       -3.728643   -3.174601    2.939645
     44          8           0       -2.587530   -4.648940    1.669557
     45          6           0       -1.825873   -5.092055    2.836322
     46          6           0        2.769332   -0.740291   -1.206727
     47          6           0        4.170410   -0.486604   -0.647192
     48          6           0        5.114966    0.310107   -1.029578
     49          6           0        5.039204    1.213738   -2.274654
     50          6           0        6.419262    0.452860   -0.282393
     51          6           0        7.570097   -0.143826   -1.034062
     52          6           0        8.909429   -0.127800   -0.189704
     53          6           0       10.172144   -0.552897   -0.869936
     54          6           0       10.151784   -2.055555   -1.247933
     55          6           0       11.384579   -0.290576    0.001851
     56          6           0       12.757408   -0.511804   -0.569631
     57          6           0       13.979931   -0.040226    0.225442
     58          6           0       15.371504   -0.174962   -0.442798
     59          6           0       15.634523   -1.629442   -0.747684
     60          6           0       16.434623    0.503130    0.507792
     61          6           0       17.755773    0.654721   -0.127277
     62          6           0       18.840573    1.162164    0.867324
     63          6           0       20.261712    1.350678    0.081972
     64          6           0       20.217394    2.261536   -1.099639
     65          6           0       21.364071    1.839673    1.170715
     66          1           0       -4.047874    3.636035    1.423428
     67          1           0      -10.176278    3.891882   -0.664527
     68          1           0      -10.201550   -2.560287   -1.055747
     69          1           0       -2.762804   -1.042369    2.076298
     70          1           0       -2.183408    1.699931    1.322869
     71          1           0       -1.884352    1.085541    3.681526
     72          1           0       -3.185784    2.263622    3.701162
     73          1           0       -3.625150    0.448339    3.688764
     74          1           0       -2.072319   -1.540645   -0.219903
     75          1           0       -2.331708    0.044176   -0.589365
     76          1           0       -0.250125    0.591730    0.978873
     77          1           0       -0.287839   -1.230106    1.151580
     78          1           0       -4.879057    6.174596    0.591159
     79          1           0       -6.342597    6.683532    1.602088
     80          1           0       -5.148784    5.581808    2.329146
     81          1           0       -9.677876    5.771079    0.529544
     82          1           0       -8.959425    8.036188    0.242664
     83          1           0       -7.268549    7.378527   -0.486285
     84          1           0      -11.903245    3.051694   -2.004230
     85          1           0      -13.153278    2.044437   -1.873273
     86          1           0      -12.635193    2.968705   -0.480986
     87          1           0      -12.380977   -1.870378   -1.492569
     88          1           0      -13.266856   -0.242830   -1.801230
     89          1           0      -12.920733   -1.777955   -3.608340
     90          1           0      -12.128869   -0.213059   -3.913637
     91          1           0      -11.152682   -1.574347   -3.651024
     92          1           0       -9.091177   -4.980618   -1.775781
     93          1           0       -8.208456   -5.725755   -0.435989
     94          1           0       -9.531290   -4.764963   -0.263780
     95          1           0       -3.397949   -3.392350   -0.109199
     96          1           0       -1.087238   -4.280421    3.252793
     97          1           0       -2.386319   -5.293381    3.689826
     98          1           0       -1.278319   -6.126536    2.656095
     99          1           0        2.767201   -1.753760   -1.539382
    100          1           0        2.530022   -0.210434   -2.192884
    101          1           0        4.213357   -0.952458    0.254856
    102          1           0        3.943731    1.296947   -2.611410
    103          1           0        5.376021    2.242877   -2.099754
    104          1           0        5.741627    0.882483   -3.218573
    105          1           0        6.730922    1.571671   -0.057354
    106          1           0        6.456271   -0.086383    0.715783
    107          1           0        7.381972   -1.135272   -1.363633
    108          1           0        7.777637    0.500334   -1.979962
    109          1           0        8.920656    0.896961    0.184333
    110          1           0        8.821043   -0.927029    0.614769
    111          1           0       10.186835    0.029708   -1.694774
    112          1           0        9.401434   -2.353778   -2.138571
    113          1           0       11.150557   -2.433324   -1.538061
    114          1           0        9.957693   -2.709188   -0.291254
    115          1           0       11.351338    0.651162    0.284361
    116          1           0       11.387991   -0.852229    1.048393
    117          1           0       12.820995   -1.606772   -0.747005
    118          1           0       12.784136   -0.077033   -1.469056
    119          1           0       13.805088    1.039046    0.169203
    120          1           0       14.009476   -0.602586    1.076955
    121          1           0       15.375445    0.459139   -1.215308
    122          1           0       15.365234   -2.087940    0.209115
    123          1           0       14.729855   -2.032007   -1.499894
    124          1           0       16.737084   -1.868368   -1.446370
    125          1           0       16.160681    1.420028    0.882310
    126          1           0       16.514961   -0.128906    1.266305
    127          1           0       18.182401   -0.248960   -0.581717
    128          1           0       17.881817    1.425298   -0.923257
    129          1           0       18.641773    2.269225    1.088906
    130          1           0       19.162088    0.610448    1.736962
    131          1           0       20.661480    0.278484   -0.400369
    132          1           0       19.974168    3.346380   -0.539030
    133          1           0       21.162153    2.262788   -1.511638
    134          1           0       19.240619    2.209129   -1.868747
    135          1           0       21.419038    1.013864    1.992816
    136          1           0       22.329654    2.074290    0.562107
    137          1           0       20.772135    2.656905    1.539199
 ---------------------------------------------------------------------

 SCF Done:  E(RCAM-B3LYP) =  -2932.71181128     A.U. after   17 cycles

 Excitation energies and oscillator strengths:

 Excited State   1:      Singlet-A      2.2229 eV  557.76 nm  f=0.1736  <S**2>=0.000
     240 -> 243       -0.29285
     241 -> 242        0.63287
 This state for optimization and/or second-order correction.
 Total Energy, E(TD-HF/TD-KS) =  -2932.63012166
 Copying the excited state density for this state as the 1-particle RhoCI density.

 The electronic state is 1-A.
 Alpha  occ. eigenvalues --  -46.84642 -19.27712 -19.26854 -19.21001 -19.20283
 Alpha  occ. eigenvalues --  -19.19555 -14.41977 -14.39705 -14.39644 -14.38689
 Alpha  occ. eigenvalues --  -10.39738 -10.39657 -10.35496 -10.33081 -10.32218
 Alpha  occ. eigenvalues --  -10.32163 -10.31185 -10.30908 -10.29656 -10.29353
 Alpha  occ. eigenvalues --  -10.29060 -10.28577 -10.28196 -10.28180 -10.28086
 Alpha  occ. eigenvalues --  -10.28062 -10.27913 -10.27891 -10.27789 -10.27786
 Alpha  occ. eigenvalues --  -10.27625 -10.27587 -10.27398 -10.27173 -10.27154
 Alpha  occ. eigenvalues --  -10.27114 -10.26778 -10.26733 -10.26577 -10.26572
 Alpha  occ. eigenvalues --  -10.26549 -10.26473 -10.26387 -10.26373 -10.26371
 Alpha  occ. eigenvalues --  -10.26009 -10.25996 -10.25800 -10.25768 -10.25743
 Alpha  occ. eigenvalues --  -10.25551 -10.25438 -10.25243 -10.25046 -10.24929
 Alpha  occ. eigenvalues --  -10.24868 -10.24777 -10.24714 -10.24626 -10.24393
 Alpha  occ. eigenvalues --  -10.24285 -10.24269 -10.24163 -10.23477 -10.22869
 Alpha  occ. eigenvalues --   -3.13625  -1.88334  -1.87864  -1.87802  -1.19038
 Alpha  occ. eigenvalues --   -1.18271  -1.10292  -1.09411  -1.05482  -1.05004
 Alpha  occ. eigenvalues --   -1.04186  -1.02518  -1.01842  -0.93180  -0.92026
 Alpha  occ. eigenvalues --   -0.91439  -0.91126  -0.90120  -0.89695  -0.88820
 Alpha  occ. eigenvalues --   -0.88086  -0.87984  -0.87700  -0.86954  -0.86470
 Alpha  occ. eigenvalues --   -0.85407  -0.84873  -0.84007  -0.83772  -0.83291
 Alpha  occ. eigenvalues --   -0.81977  -0.81654  -0.80908  -0.80226  -0.78738
 Alpha  occ. eigenvalues --   -0.78266  -0.77421  -0.76907  -0.75771  -0.75337
 Alpha  occ. eigenvalues --   -0.75090  -0.74624  -0.74453  -0.74230  -0.72730
 Alpha  occ. eigenvalues --   -0.71913  -0.70813  -0.69536  -0.69187  -0.68192
 Alpha  occ. eigenvalues --   -0.66819  -0.66618  -0.65917  -0.65265  -0.65152
 Alpha  occ. eigenvalues --   -0.64339  -0.64231  -0.64147  -0.63619  -0.62183
 Alpha  occ. eigenvalues --   -0.61302  -0.60253  -0.59904  -0.59879  -0.59493
 Alpha  occ. eigenvalues --   -0.58689  -0.58225  -0.57905  -0.57422  -0.57285
 Alpha  occ. eigenvalues --   -0.56502  -0.55938  -0.55675  -0.55390  -0.55252
 Alpha  occ. eigenvalues --   -0.55098  -0.54623  -0.54511  -0.54013  -0.53728
 Alpha  occ. eigenvalues --   -0.53092  -0.52942  -0.52558  -0.52437  -0.51692
 Alpha  occ. eigenvalues --   -0.51580  -0.51476  -0.51391  -0.50958  -0.50729
 Alpha  occ. eigenvalues --   -0.50338  -0.50027  -0.50016  -0.49895  -0.49658
 Alpha  occ. eigenvalues --   -0.49410  -0.49220  -0.48862  -0.48584  -0.48311
 Alpha  occ. eigenvalues --   -0.48199  -0.47825  -0.47452  -0.47331  -0.47265
 Alpha  occ. eigenvalues --   -0.46978  -0.46759  -0.46637  -0.46320  -0.46019
 Alpha  occ. eigenvalues --   -0.45707  -0.45449  -0.45317  -0.45200  -0.44990
 Alpha  occ. eigenvalues --   -0.44773  -0.44657  -0.44541  -0.44480  -0.44381
 Alpha  occ. eigenvalues --   -0.44071  -0.43803  -0.43569  -0.43206  -0.43049
 Alpha  occ. eigenvalues --   -0.42963  -0.42621  -0.42564  -0.42482  -0.42139
 Alpha  occ. eigenvalues --   -0.41976  -0.41933  -0.41723  -0.41480  -0.41327
 Alpha  occ. eigenvalues --   -0.41190  -0.41018  -0.40842  -0.40803  -0.40391
 Alpha  occ. eigenvalues --   -0.40186  -0.40067  -0.39791  -0.39655  -0.39545
 Alpha  occ. eigenvalues --   -0.39140  -0.38730  -0.38464  -0.37992  -0.37848
 Alpha  occ. eigenvalues --   -0.37706  -0.37483  -0.37079  -0.36997  -0.36810
 Alpha  occ. eigenvalues --   -0.36759  -0.36194  -0.35973  -0.35510  -0.35368
 Alpha  occ. eigenvalues --   -0.35123  -0.34816  -0.34423  -0.33858  -0.33443
 Alpha  occ. eigenvalues --   -0.32899  -0.32711  -0.32181  -0.31273  -0.30838
 Alpha  occ. eigenvalues --   -0.30484  -0.29352  -0.28382  -0.27598  -0.23539
 Alpha  occ. eigenvalues --   -0.21686
 Alpha virt. eigenvalues --   -0.05729  -0.03516   0.01448   0.04513   0.05421
 Alpha virt. eigenvalues --    0.05725   0.06136   0.06183   0.06733   0.07269
 Alpha virt. eigenvalues --    0.08112   0.10273   0.10946   0.11480   0.11533

 Mulliken charges:
               1
     1  Mg   0.829552
     2  C    0.067201
     3  C   -0.219206
     4  C   -0.197149
     5  C   -0.151592
     6  N   -0.632903
     7  C    0.264775
     8  C   -0.139710
     9  C   -0.173478
    10  C    0.366502
    11  C   -0.307683
    12  C   -0.142185
    13  C   -0.274767
    14  C    0.614869
    15  O   -0.480144
    16  O   -0.460664
    17  N   -0.731772
    18  C    0.328465
    19  C   -0.033049
    20  C   -0.002036
    21  C    0.356419
    22  C   -0.350788
    23  C   -0.044263
    24  C   -0.260718
    25  N   -0.633451
    26  C    0.296890
    27  C   -0.019419
    28  C    0.073385
    29  C    0.204143
    30  C   -0.363702
    31  C   -0.262095
    32  C   -0.298067
    33  N   -0.683196
    34  C    0.268613
    35  C    0.020453
    36  C   -0.005520
    37  C    0.239948
    38  C   -0.393948
    39  C    0.398280
    40  O   -0.472931
    41  C   -0.311182
    42  C    0.606875
    43  O   -0.523521
    44  O   -0.425398
    45  C   -0.085613
    46  C    0.012606
    47  C   -0.151753
    48  C    0.165477
    49  C   -0.363248
    50  C   -0.228330
    51  C   -0.176598
    52  C   -0.165012
    53  C   -0.048928
    54  C   -0.311259
    55  C   -0.158395
    56  C   -0.189715
    57  C   -0.178712
    58  C   -0.068206
    59  C   -0.282548
    60  C   -0.151406
    61  C   -0.175185
    62  C   -0.180455
    63  C   -0.075710
    64  C   -0.268723
    65  C   -0.300747
    66  H    0.080840
    67  H    0.095863
    68  H    0.094868
    69  H    0.130618
    70  H    0.095518
    71  H    0.115612
    72  H    0.092385
    73  H    0.122890
    74  H    0.114153
    75  H    0.124228
    76  H    0.131370
    77  H    0.136471
    78  H    0.119485
    79  H    0.132153
    80  H    0.127988
    81  H    0.095839
    82  H    0.106332
    83  H    0.106322
    84  H    0.116092
    85  H    0.101112
    86  H    0.125833
    87  H    0.086097
    88  H    0.091413
    89  H    0.114938
    90  H    0.110003
    91  H    0.098444
    92  H    0.128957
    93  H    0.145186
    94  H    0.137923
    95  H    0.172149
    96  H    0.115235
    97  H    0.155835
    98  H    0.123513
    99  H    0.126258
   100  H    0.108666
   101  H    0.092770
   102  H    0.107916
   103  H    0.120131
   104  H    0.103263
   105  H    0.087887
   106  H    0.097484
   107  H    0.109054
   108  H    0.074713
   109  H    0.086491
   110  H    0.081089
   111  H    0.091504
   112  H    0.085274
   113  H    0.107819
   114  H    0.087367
   115  H    0.091708
   116  H    0.061007
   117  H    0.081306
   118  H    0.094608
   119  H    0.091649
   120  H    0.093879
   121  H    0.086708
   122  H    0.106589
   123  H    0.082330
   124  H    0.075008
   125  H    0.095032
   126  H    0.096793
   127  H    0.096104
   128  H    0.082530
   129  H    0.077083
   130  H    0.097507
   131  H    0.043408
   132  H    0.055623
   133  H    0.115937
   134  H    0.090445
   135  H    0.099790
   136  H    0.098989
   137  H    0.113249
 Sum of Mulliken charges =   0.00000

 Dipole moment (field-independent basis, Debye):
    X=              2.4487    Y=              4.3981    Z=              0.4806  Tot=              5.0567
 Quadrupole moment (field-independent basis, Debye-Ang):
   XX=           -356.0416   YY=           -388.9262   ZZ=           -401.2280
   XY=            -17.2039   XZ=             10.3277   YZ=             -3.6527

 Normal termination of Gaussian 09 at Thu Jun 27 13:30:56 2019.
