 Gaussian 09, Revision D.01,
 Gaussian 09:  ES64L-G09RevD.01 24-Apr-2013

 -------------------------------------
 # td=(NStates=1) CAM-B3LYP/6-31G(d,p)
 -------------------------------------

 --
 TD
 --
 Symbolic Z-matrix:
 Charge =  0 Multiplicity = 1

                         Standard orientation:
 ---------------------------------------------------------------------
 Center     Atomic      Atomic             Coordinates (Angstroms)
 Number     Number       Type             X           Y           Z
 ---------------------------------------------------------------------
      1         12           0       -7.141015    0.612479    0.039854
      2          6           0       -4.870592   -1.964611    0.593339
      3          6           0       -4.828775    2.797557    1.193979
      4          6           0       -9.451764    3.020627   -0.306226
      5          6           0       -9.545816   -1.727005   -0.880722
      6          7           0       -5.040055    0.337478    0.655312
      7          6           0       -4.351946   -0.735247    0.792762
      8          6           0       -2.949146   -0.416691    1.264735
      9          6           0       -3.010481    1.028658    1.686026
     10          6           0       -4.390723    1.443424    1.111450
     11          6           0       -3.002125    1.229358    3.179090
     12          6           0       -1.901362   -0.705437    0.102886
     13          6           0       -0.447867   -0.485213    0.613098
     14          6           0        0.580573   -0.658742   -0.549555
     15          8           0        0.284822   -0.846553   -1.730079
     16          8           0        1.738793   -0.498181   -0.098763
     17          7           0       -7.110840    2.634328    0.381425
     18          6           0       -6.103094    3.344451    0.887892
     19          6           0       -6.543906    4.671349    1.029185
     20          6           0       -7.816207    4.776780    0.497352
     21          6           0       -8.250723    3.412390    0.195011
     22          6           0       -5.653613    5.805375    1.488489
     23          6           0       -8.627399    5.957865    0.307230
     24          6           0       -8.352794    7.231968   -0.127234
     25          7           0       -9.083865    0.638367   -0.467349
     26          6           0       -9.874497    1.750902   -0.674112
     27          6           0      -11.233478    1.417412   -1.127125
     28          6           0      -11.215306    0.142057   -1.268537
     29          6           0       -9.933376   -0.371396   -0.957507
     30          6           0      -12.379817    2.429086   -1.323412
     31          6           0      -12.350595   -0.715712   -1.823018
     32          6           0      -12.296352   -0.779072   -3.337834
     33          7           0       -7.152231   -1.435052   -0.117799
     34          6           0       -8.247076   -2.166601   -0.518525
     35          6           0       -7.878608   -3.555533   -0.678305
     36          6           0       -6.499662   -3.570684   -0.189320
     37          6           0       -6.175109   -2.241309    0.137474
     38          6           0       -8.590427   -4.760936   -1.004122
     39          6           0       -5.255334   -4.353299    0.034739
     40          8           0       -5.022503   -5.577143   -0.045795
     41          6           0       -4.167626   -3.317364    0.542123
     42          6           0       -3.558917   -3.694882    1.888152
     43          8           0       -3.698220   -3.114241    2.942315
     44          8           0       -2.679446   -4.750840    1.758571
     45          6           0       -2.197574   -5.120406    3.069351
     46          6           0        2.824972   -0.678926   -1.124749
     47          6           0        4.124380   -0.485844   -0.339334
     48          6           0        5.076234    0.304590   -0.814659
     49          6           0        5.145633    1.214631   -2.070421
     50          6           0        6.413591    0.376533   -0.074097
     51          6           0        7.607992   -0.072648   -0.952001
     52          6           0        8.919845   -0.198892   -0.069121
     53          6           0       10.262807   -0.657922   -0.867132
     54          6           0       10.190982   -2.078061   -1.293437
     55          6           0       11.425223   -0.414109    0.077322
     56          6           0       12.773016   -0.585567   -0.664339
     57          6           0       13.961693   -0.223853    0.186897
     58          6           0       15.372922   -0.167665   -0.547857
     59          6           0       15.725913   -1.684368   -0.981462
     60          6           0       16.436482    0.532166    0.360167
     61          6           0       17.656304    0.691403   -0.260097
     62          6           0       18.785973    1.333919    0.770671
     63          6           0       20.214783    1.416626    0.175230
     64          6           0       20.302225    2.382580   -1.145309
     65          6           0       21.163827    1.956929    1.207234
     66          1           0       -4.115510    3.557258    1.864908
     67          1           0      -10.060617    3.902516   -0.469395
     68          1           0      -10.301687   -2.499205   -1.204018
     69          1           0       -2.727863   -1.104538    2.008395
     70          1           0       -2.111410    1.371715    1.186904
     71          1           0       -2.125236    0.583945    3.430846
     72          1           0       -2.993782    2.266382    3.696210
     73          1           0       -3.855893    0.574411    3.799642
     74          1           0       -1.998526   -1.825804   -0.179936
     75          1           0       -2.120509   -0.131983   -0.829512
     76          1           0       -0.317213    0.476631    1.037135
     77          1           0       -0.109350   -1.028049    1.382464
     78          1           0       -4.864093    6.373579    0.793429
     79          1           0       -6.324503    6.669375    1.645123
     80          1           0       -5.185910    5.594969    2.441124
     81          1           0       -9.784790    5.884363    0.491823
     82          1           0       -9.235330    7.985975   -0.346830
     83          1           0       -7.403305    7.624205   -0.254077
     84          1           0      -11.968828    3.171251   -2.042685
     85          1           0      -13.268191    2.031973   -1.741903
     86          1           0      -12.738929    2.805861   -0.321651
     87          1           0      -12.450953   -1.528465   -1.248175
     88          1           0      -13.366119   -0.046745   -1.630852
     89          1           0      -13.235874   -1.276402   -3.762552
     90          1           0      -12.037369    0.235865   -3.831412
     91          1           0      -11.452057   -1.405561   -3.634674
     92          1           0       -8.902328   -4.799359   -2.110296
     93          1           0       -8.056068   -5.717213   -0.988022
     94          1           0       -9.389904   -5.178558   -0.401234
     95          1           0       -3.370997   -3.254501   -0.289700
     96          1           0       -1.419237   -4.253649    3.176955
     97          1           0       -2.983476   -5.507790    3.883906
     98          1           0       -1.503230   -5.984911    2.892725
     99          1           0        2.836344   -1.812827   -1.584214
    100          1           0        2.854010    0.083296   -1.804320
    101          1           0        4.214014   -1.124260    0.463924
    102          1           0        4.198056    1.324279   -2.337377
    103          1           0        5.650193    2.214185   -1.844607
    104          1           0        5.768875    0.956852   -2.786847
    105          1           0        6.565258    1.475194    0.149873
    106          1           0        6.327563   -0.171382    0.807195
    107          1           0        7.401587   -0.932210   -1.590185
    108          1           0        7.973189    0.553732   -1.771666
    109          1           0        8.938604    0.830528    0.405725
    110          1           0        8.870154   -0.798417    0.834743
    111          1           0       10.354714    0.229837   -1.706606
    112          1           0        9.218687   -2.402913   -1.821222
    113          1           0       11.110591   -2.284897   -2.011280
    114          1           0       10.247890   -2.763416   -0.503101
    115          1           0       11.453041    0.724287    0.438632
    116          1           0       11.290069   -1.031661    0.878480
    117          1           0       12.987404   -1.451614   -0.989567
    118          1           0       12.686082   -0.253305   -1.696003
    119          1           0       13.931449    0.777815    0.466058
    120          1           0       14.143592   -0.831724    1.124291
    121          1           0       15.208526    0.477442   -1.457404
    122          1           0       15.586473   -2.272290    0.010616
    123          1           0       15.032256   -1.959479   -1.789367
    124          1           0       16.725798   -1.617655   -1.443607
    125          1           0       16.220432    1.514702    0.517848
    126          1           0       16.611378   -0.046972    1.340086
    127          1           0       18.087933   -0.244048   -0.742990
    128          1           0       17.405924    1.352480   -1.046281
    129          1           0       18.355258    2.266301    1.104636
    130          1           0       18.746140    0.617547    1.633480
    131          1           0       20.626936    0.532710   -0.307650
    132          1           0       19.811262    3.366800   -0.890382
    133          1           0       21.319980    2.439043   -1.528097
    134          1           0       19.804517    1.918199   -2.047851
    135          1           0       21.169452    1.301181    2.176615
    136          1           0       22.195876    1.716990    0.569115
    137          1           0       21.183446    2.994379    1.551379
 ---------------------------------------------------------------------

 SCF Done:  E(RCAM-B3LYP) =  -2932.70622786     A.U. after   16 cycles

 Excitation energies and oscillator strengths:

 Excited State   1:      Singlet-A      2.0867 eV  594.16 nm  f=0.2747  <S**2>=0.000
     240 -> 242       -0.16412
     240 -> 243       -0.24404
     241 -> 242        0.63216
 This state for optimization and/or second-order correction.
 Total Energy, E(TD-HF/TD-KS) =  -2932.62954239
 Copying the excited state density for this state as the 1-particle RhoCI density.

 The electronic state is 1-A.
 Alpha  occ. eigenvalues --  -46.84584 -19.27561 -19.25466 -19.20959 -19.19354
 Alpha  occ. eigenvalues --  -19.19107 -14.41056 -14.40148 -14.38986 -14.38679
 Alpha  occ. eigenvalues --  -10.38954 -10.38178 -10.34883 -10.33125 -10.32153
 Alpha  occ. eigenvalues --  -10.31375 -10.29479 -10.29450 -10.29228 -10.29152
 Alpha  occ. eigenvalues --  -10.28938 -10.28756 -10.28592 -10.28486 -10.28416
 Alpha  occ. eigenvalues --  -10.28379 -10.27869 -10.27582 -10.27502 -10.27491
 Alpha  occ. eigenvalues --  -10.27369 -10.27361 -10.27309 -10.27201 -10.27043
 Alpha  occ. eigenvalues --  -10.26848 -10.26817 -10.26721 -10.26671 -10.26503
 Alpha  occ. eigenvalues --  -10.26467 -10.26455 -10.26347 -10.26140 -10.26067
 Alpha  occ. eigenvalues --  -10.26021 -10.25972 -10.25954 -10.25926 -10.25813
 Alpha  occ. eigenvalues --  -10.25783 -10.25715 -10.25698 -10.25629 -10.25522
 Alpha  occ. eigenvalues --  -10.25361 -10.25257 -10.25250 -10.25135 -10.25091
 Alpha  occ. eigenvalues --  -10.24923 -10.24187 -10.23871 -10.23587 -10.23141
 Alpha  occ. eigenvalues --   -3.13572  -1.88286  -1.87831  -1.87720  -1.20744
 Alpha  occ. eigenvalues --   -1.17247  -1.08531  -1.08172  -1.07488  -1.05927
 Alpha  occ. eigenvalues --   -1.04366  -1.04103  -1.02995  -0.91890  -0.91613
 Alpha  occ. eigenvalues --   -0.91001  -0.90011  -0.89910  -0.89808  -0.88951
 Alpha  occ. eigenvalues --   -0.88232  -0.87283  -0.87198  -0.86966  -0.86202
 Alpha  occ. eigenvalues --   -0.85247  -0.84424  -0.83413  -0.82993  -0.82608
 Alpha  occ. eigenvalues --   -0.81650  -0.80673  -0.79978  -0.79845  -0.78464
 Alpha  occ. eigenvalues --   -0.78228  -0.77264  -0.76809  -0.75387  -0.75035
 Alpha  occ. eigenvalues --   -0.74921  -0.74707  -0.74195  -0.73196  -0.72546
 Alpha  occ. eigenvalues --   -0.71310  -0.70839  -0.69982  -0.69409  -0.68065
 Alpha  occ. eigenvalues --   -0.67180  -0.66981  -0.65639  -0.64980  -0.64575
 Alpha  occ. eigenvalues --   -0.64202  -0.63513  -0.63220  -0.62970  -0.61588
 Alpha  occ. eigenvalues --   -0.61223  -0.61153  -0.60422  -0.60076  -0.59227
 Alpha  occ. eigenvalues --   -0.58946  -0.58661  -0.57523  -0.57315  -0.56676
 Alpha  occ. eigenvalues --   -0.56433  -0.55839  -0.55560  -0.55352  -0.54946
 Alpha  occ. eigenvalues --   -0.54702  -0.54358  -0.54099  -0.53243  -0.52756
 Alpha  occ. eigenvalues --   -0.52691  -0.52523  -0.52305  -0.51975  -0.51704
 Alpha  occ. eigenvalues --   -0.51035  -0.50894  -0.50636  -0.50489  -0.50211
 Alpha  occ. eigenvalues --   -0.50171  -0.50007  -0.49442  -0.49243  -0.49190
 Alpha  occ. eigenvalues --   -0.48927  -0.48867  -0.48426  -0.48317  -0.48163
 Alpha  occ. eigenvalues --   -0.48033  -0.47777  -0.47488  -0.47473  -0.47240
 Alpha  occ. eigenvalues --   -0.47075  -0.46710  -0.46511  -0.46374  -0.46152
 Alpha  occ. eigenvalues --   -0.45808  -0.45790  -0.45417  -0.45155  -0.45104
 Alpha  occ. eigenvalues --   -0.44787  -0.44525  -0.44448  -0.44272  -0.44163
 Alpha  occ. eigenvalues --   -0.44112  -0.43719  -0.43650  -0.43589  -0.43423
 Alpha  occ. eigenvalues --   -0.43221  -0.42939  -0.42737  -0.42658  -0.42431
 Alpha  occ. eigenvalues --   -0.42080  -0.42008  -0.41521  -0.41474  -0.41385
 Alpha  occ. eigenvalues --   -0.40670  -0.40595  -0.40407  -0.40183  -0.40023
 Alpha  occ. eigenvalues --   -0.40022  -0.39954  -0.39615  -0.39286  -0.38739
 Alpha  occ. eigenvalues --   -0.38627  -0.38563  -0.38146  -0.38112  -0.37559
 Alpha  occ. eigenvalues --   -0.37538  -0.37242  -0.37031  -0.36949  -0.36423
 Alpha  occ. eigenvalues --   -0.36399  -0.36278  -0.35713  -0.35477  -0.35307
 Alpha  occ. eigenvalues --   -0.35089  -0.34706  -0.34006  -0.33663  -0.33055
 Alpha  occ. eigenvalues --   -0.32771  -0.32506  -0.32438  -0.30853  -0.30457
 Alpha  occ. eigenvalues --   -0.30130  -0.29236  -0.28324  -0.27552  -0.22756
 Alpha  occ. eigenvalues --   -0.21528
 Alpha virt. eigenvalues --   -0.06751  -0.02561   0.01830   0.03949   0.05681
 Alpha virt. eigenvalues --    0.05919   0.06387   0.07003   0.07487   0.08412
 Alpha virt. eigenvalues --    0.09369   0.10701   0.11113   0.11483   0.11501

 Mulliken charges:
               1
     1  Mg   0.826659
     2  C    0.075892
     3  C   -0.205663
     4  C   -0.175134
     5  C   -0.177979
     6  N   -0.623572
     7  C    0.340258
     8  C   -0.169041
     9  C   -0.123682
    10  C    0.316957
    11  C   -0.300659
    12  C   -0.189074
    13  C   -0.275989
    14  C    0.595933
    15  O   -0.511455
    16  O   -0.427019
    17  N   -0.750762
    18  C    0.368709
    19  C   -0.007455
    20  C    0.043732
    21  C    0.303262
    22  C   -0.375585
    23  C   -0.121308
    24  C   -0.233403
    25  N   -0.684728
    26  C    0.280853
    27  C    0.052322
    28  C    0.003666
    29  C    0.284296
    30  C   -0.359004
    31  C   -0.209259
    32  C   -0.300646
    33  N   -0.729191
    34  C    0.270324
    35  C    0.049050
    36  C   -0.014441
    37  C    0.294872
    38  C   -0.420256
    39  C    0.357090
    40  O   -0.478118
    41  C   -0.340960
    42  C    0.639215
    43  O   -0.462483
    44  O   -0.458974
    45  C   -0.073832
    46  C    0.005527
    47  C   -0.138339
    48  C    0.095996
    49  C   -0.347336
    50  C   -0.214919
    51  C   -0.190252
    52  C   -0.185258
    53  C   -0.065129
    54  C   -0.300494
    55  C   -0.149848
    56  C   -0.180363
    57  C   -0.169149
    58  C   -0.099686
    59  C   -0.305286
    60  C   -0.142854
    61  C   -0.182795
    62  C   -0.178646
    63  C   -0.055924
    64  C   -0.322150
    65  C   -0.282135
    66  H    0.080581
    67  H    0.087251
    68  H    0.107439
    69  H    0.125494
    70  H    0.112471
    71  H    0.103983
    72  H    0.109387
    73  H    0.104051
    74  H    0.103414
    75  H    0.129024
    76  H    0.131888
    77  H    0.133781
    78  H    0.107599
    79  H    0.114309
    80  H    0.118244
    81  H    0.091616
    82  H    0.097791
    83  H    0.106500
    84  H    0.124757
    85  H    0.122107
    86  H    0.124508
    87  H    0.113713
    88  H    0.070332
    89  H    0.101660
    90  H    0.107909
    91  H    0.111701
    92  H    0.109929
    93  H    0.152405
    94  H    0.132138
    95  H    0.165887
    96  H    0.113873
    97  H    0.133901
    98  H    0.114892
    99  H    0.128797
   100  H    0.132590
   101  H    0.098315
   102  H    0.115588
   103  H    0.105571
   104  H    0.141646
   105  H    0.098289
   106  H    0.104484
   107  H    0.094763
   108  H    0.095375
   109  H    0.082404
   110  H    0.084925
   111  H    0.062050
   112  H    0.097668
   113  H    0.091415
   114  H    0.118127
   115  H    0.076033
   116  H    0.098156
   117  H    0.104519
   118  H    0.081725
   119  H    0.091413
   120  H    0.081982
   121  H    0.073063
   122  H    0.098131
   123  H    0.104582
   124  H    0.102126
   125  H    0.099364
   126  H    0.066788
   127  H    0.073889
   128  H    0.091389
   129  H    0.094528
   130  H    0.089246
   131  H    0.102925
   132  H    0.098096
   133  H    0.102141
   134  H    0.095480
   135  H    0.086040
   136  H    0.065193
   137  H    0.112272
 Sum of Mulliken charges =   0.00000

 Dipole moment (field-independent basis, Debye):
    X=              1.4814    Y=              4.6204    Z=             -0.0382  Tot=              4.8522
 Quadrupole moment (field-independent basis, Debye-Ang):
   XX=           -326.1367   YY=           -397.2536   ZZ=           -396.3074
   XY=            -22.1498   XZ=              8.0566   YZ=             -4.0243

 Normal termination of Gaussian 09 at Sun Jun 30 19:14:23 2019.
