 Gaussian 09, Revision D.01,
 Gaussian 09:  ES64L-G09RevD.01 24-Apr-2013

 -------------------------------------
 # td=(NStates=1) CAM-B3LYP/6-31G(d,p)
 -------------------------------------

 --
 TD
 --
 Symbolic Z-matrix:
 Charge =  0 Multiplicity = 1

                         Standard orientation:
 ---------------------------------------------------------------------
 Center     Atomic      Atomic             Coordinates (Angstroms)
 Number     Number       Type             X           Y           Z
 ---------------------------------------------------------------------
      1         12           0       -7.085339    0.629319    0.177463
      2          6           0       -4.859510   -1.873730    0.569067
      3          6           0       -4.852267    2.900395    1.243915
      4          6           0       -9.511767    3.075846   -0.294152
      5          6           0       -9.418946   -1.750436   -1.001055
      6          7           0       -5.194860    0.483261    0.828764
      7          6           0       -4.345181   -0.661602    0.813947
      8          6           0       -2.950074   -0.271420    1.188930
      9          6           0       -3.124604    1.102862    1.702559
     10          6           0       -4.439820    1.521523    1.256612
     11          6           0       -2.898724    1.354126    3.135425
     12          6           0       -1.899967   -0.495740    0.191779
     13          6           0       -0.478287   -0.369631    0.639948
     14          6           0        0.524204   -0.611159   -0.460153
     15          8           0        0.155018   -1.007051   -1.563308
     16          8           0        1.778071   -0.208771   -0.084197
     17          7           0       -7.225158    2.590728    0.435217
     18          6           0       -6.124157    3.403966    0.809227
     19          6           0       -6.507552    4.731813    0.948739
     20          6           0       -7.871722    4.890294    0.454570
     21          6           0       -8.274272    3.473503    0.119830
     22          6           0       -5.685472    5.965239    1.229003
     23          6           0       -8.665430    6.102883    0.231693
     24          6           0       -8.231623    7.286776    0.054383
     25          7           0       -9.147179    0.615938   -0.555524
     26          6           0       -9.914085    1.751113   -0.669072
     27          6           0      -11.222211    1.350296   -1.148003
     28          6           0      -11.184231   -0.074253   -1.419154
     29          6           0       -9.847915   -0.421279   -0.981713
     30          6           0      -12.381048    2.260430   -1.417208
     31          6           0      -12.289305   -0.955299   -1.965501
     32          6           0      -12.132946   -1.153696   -3.442516
     33          7           0       -7.129779   -1.448725   -0.242321
     34          6           0       -8.120912   -2.297316   -0.608700
     35          6           0       -7.801739   -3.686364   -0.493003
     36          6           0       -6.464439   -3.592509   -0.041047
     37          6           0       -6.175116   -2.237435    0.111411
     38          6           0       -8.546050   -4.846184   -0.926734
     39          6           0       -5.289670   -4.378569    0.252490
     40          8           0       -5.103816   -5.583734    0.293477
     41          6           0       -4.164436   -3.287400    0.559148
     42          6           0       -3.557321   -3.573564    1.884388
     43          8           0       -3.928002   -3.157312    2.945653
     44          8           0       -2.626849   -4.709652    1.753627
     45          6           0       -2.101706   -5.141275    2.985062
     46          6           0        2.809115   -0.653230   -1.180432
     47          6           0        4.085770   -0.527592   -0.537934
     48          6           0        5.032612    0.380707   -0.807169
     49          6           0        4.909373    1.439168   -1.936118
     50          6           0        6.455349    0.387385   -0.114504
     51          6           0        7.597344   -0.354615   -0.861255
     52          6           0        8.939740   -0.184277   -0.137681
     53          6           0       10.246138   -0.696850   -0.898692
     54          6           0       10.059841   -2.154131   -1.263102
     55          6           0       11.371761   -0.384793   -0.057460
     56          6           0       12.776320   -0.618707   -0.794317
     57          6           0       13.892598   -0.040772    0.179446
     58          6           0       15.393194   -0.277886   -0.467748
     59          6           0       15.781131   -1.658207   -0.885309
     60          6           0       16.433595    0.448342    0.443597
     61          6           0       17.895564    0.543082   -0.325140
     62          6           0       18.894104    1.313649    0.671273
     63          6           0       20.306333    1.367515    0.020694
     64          6           0       20.395611    2.164735   -1.243473
     65          6           0       21.195289    1.972446    1.188236
     66          1           0       -4.131008    3.581443    1.349810
     67          1           0      -10.232269    3.894265   -0.601625
     68          1           0      -10.136469   -2.572079   -1.302932
     69          1           0       -2.518792   -1.219014    1.822712
     70          1           0       -2.328323    1.902500    1.349084
     71          1           0       -1.764986    1.079157    3.409086
     72          1           0       -3.237849    2.440842    3.583874
     73          1           0       -3.628245    0.759407    3.661735
     74          1           0       -1.985821   -1.517569   -0.338206
     75          1           0       -1.944083    0.158156   -0.798787
     76          1           0       -0.385747    0.506805    1.180821
     77          1           0       -0.411213   -1.118229    1.493946
     78          1           0       -5.206033    6.405060    0.179107
     79          1           0       -6.161305    6.720099    1.975212
     80          1           0       -4.912378    5.725927    2.127012
     81          1           0       -9.682535    5.837165    0.236695
     82          1           0       -9.007243    7.936155   -0.108558
     83          1           0       -7.213747    7.612509   -0.087032
     84          1           0      -12.179990    2.815561   -2.295874
     85          1           0      -13.269759    1.676493   -1.503371
     86          1           0      -12.476338    3.084032   -0.539080
     87          1           0      -12.208412   -1.994780   -1.472495
     88          1           0      -13.334774   -0.423894   -1.629517
     89          1           0      -12.839125   -1.638382   -3.934997
     90          1           0      -11.962764   -0.245272   -4.113468
     91          1           0      -11.120861   -1.611460   -3.663484
     92          1           0       -8.944704   -4.633101   -2.078870
     93          1           0       -7.981283   -5.805109   -0.839336
     94          1           0       -9.601003   -5.060135   -0.408100
     95          1           0       -3.322933   -3.257151   -0.177772
     96          1           0       -1.527129   -4.551853    3.401891
     97          1           0       -2.892049   -5.629510    3.520214
     98          1           0       -1.320012   -5.842853    2.779722
     99          1           0        2.762126   -1.633424   -1.281470
    100          1           0        2.652445    0.120134   -2.081979
    101          1           0        4.266088   -0.941448    0.617678
    102          1           0        3.979115    1.420072   -2.436670
    103          1           0        4.990716    2.330298   -1.395920
    104          1           0        5.583496    1.327887   -2.919279
    105          1           0        6.678433    1.544549    0.084241
    106          1           0        6.498940    0.124833    1.129879
    107          1           0        7.176835   -1.306443   -1.025856
    108          1           0        7.624711    0.149017   -1.790796
    109          1           0        9.100523    0.974582    0.068767
    110          1           0        8.885417   -0.746174    0.806571
    111          1           0       10.089796   -0.183694   -1.631786
    112          1           0        9.144057   -2.495166   -1.894111
    113          1           0       10.812779   -2.459411   -1.878737
    114          1           0       10.000359   -2.780994   -0.330318
    115          1           0       11.443668    0.671063    0.246944
    116          1           0       11.540599   -0.975879    0.920891
    117          1           0       12.793907   -1.811590   -0.913062
    118          1           0       12.899561    0.031264   -1.854027
    119          1           0       13.610757    1.072420    0.415222
    120          1           0       13.805442   -0.470777    1.163666
    121          1           0       15.528955    0.321659   -1.331776
    122          1           0       15.714178   -2.526947   -0.030782
    123          1           0       15.030880   -1.965825   -1.415074
    124          1           0       16.802418   -1.558475   -1.349473
    125          1           0       16.051110    1.381160    0.657693
    126          1           0       16.585605   -0.153870    1.570403
    127          1           0       18.373238   -0.576393   -0.487977
    128          1           0       17.772801    1.183550   -1.162095
    129          1           0       18.410449    2.238668    0.771128
    130          1           0       18.780376    0.781759    1.646160
    131          1           0       20.681157    0.374070   -0.055124
    132          1           0       19.877595    3.218878   -1.213155
    133          1           0       21.532318    2.418574   -1.537958
    134          1           0       19.959594    1.572381   -2.110593
    135          1           0       21.216846    1.353955    2.211845
    136          1           0       22.326320    2.345917    0.997712
    137          1           0       20.618203    2.957509    1.445130
 ---------------------------------------------------------------------

 SCF Done:  E(RCAM-B3LYP) =  -2932.56383695     A.U. after   17 cycles

 Excitation energies and oscillator strengths:

 Excited State   1:      Singlet-A      2.0645 eV  600.55 nm  f=0.2236  <S**2>=0.000
     240 -> 243        0.23829
     241 -> 242        0.65336
 This state for optimization and/or second-order correction.
 Total Energy, E(TD-HF/TD-KS) =  -2932.48796719
 Copying the excited state density for this state as the 1-particle RhoCI density.

 The electronic state is 1-A.
 Alpha  occ. eigenvalues --  -46.84631 -19.26617 -19.23481 -19.21629 -19.21207
 Alpha  occ. eigenvalues --  -19.19892 -14.41828 -14.39464 -14.39125 -14.39092
 Alpha  occ. eigenvalues --  -10.39597 -10.38691 -10.34864 -10.32599 -10.31676
 Alpha  occ. eigenvalues --  -10.30698 -10.30287 -10.30132 -10.29415 -10.29337
 Alpha  occ. eigenvalues --  -10.28895 -10.28878 -10.28872 -10.28751 -10.28634
 Alpha  occ. eigenvalues --  -10.28557 -10.28360 -10.28342 -10.28281 -10.28216
 Alpha  occ. eigenvalues --  -10.28107 -10.28013 -10.28005 -10.27932 -10.27710
 Alpha  occ. eigenvalues --  -10.27640 -10.27474 -10.27026 -10.27014 -10.26955
 Alpha  occ. eigenvalues --  -10.26927 -10.26855 -10.26709 -10.26705 -10.26677
 Alpha  occ. eigenvalues --  -10.26669 -10.26630 -10.26584 -10.26562 -10.26435
 Alpha  occ. eigenvalues --  -10.26350 -10.26238 -10.26238 -10.26050 -10.25810
 Alpha  occ. eigenvalues --  -10.25806 -10.25422 -10.25280 -10.25270 -10.24914
 Alpha  occ. eigenvalues --  -10.24807 -10.24707 -10.24661 -10.24130 -10.24045
 Alpha  occ. eigenvalues --   -3.13639  -1.88344  -1.87861  -1.87839  -1.16069
 Alpha  occ. eigenvalues --   -1.15436  -1.10189  -1.08262  -1.08136  -1.06097
 Alpha  occ. eigenvalues --   -1.04352  -1.03324  -1.01319  -0.92046  -0.91750
 Alpha  occ. eigenvalues --   -0.91506  -0.90560  -0.89745  -0.89016  -0.88951
 Alpha  occ. eigenvalues --   -0.88251  -0.87804  -0.87650  -0.87551  -0.86243
 Alpha  occ. eigenvalues --   -0.85538  -0.84367  -0.83169  -0.83068  -0.82509
 Alpha  occ. eigenvalues --   -0.81381  -0.81027  -0.80417  -0.79967  -0.78965
 Alpha  occ. eigenvalues --   -0.77515  -0.76655  -0.76036  -0.75922  -0.75324
 Alpha  occ. eigenvalues --   -0.74909  -0.74591  -0.73741  -0.72793  -0.72264
 Alpha  occ. eigenvalues --   -0.71584  -0.70733  -0.69668  -0.68747  -0.68001
 Alpha  occ. eigenvalues --   -0.67492  -0.66112  -0.65015  -0.64936  -0.64583
 Alpha  occ. eigenvalues --   -0.63727  -0.63440  -0.63134  -0.62848  -0.61873
 Alpha  occ. eigenvalues --   -0.61236  -0.60839  -0.59981  -0.59422  -0.58862
 Alpha  occ. eigenvalues --   -0.58439  -0.58081  -0.57643  -0.56903  -0.56581
 Alpha  occ. eigenvalues --   -0.56062  -0.55662  -0.55518  -0.55143  -0.54996
 Alpha  occ. eigenvalues --   -0.54662  -0.53929  -0.53604  -0.53268  -0.52731
 Alpha  occ. eigenvalues --   -0.52662  -0.52367  -0.52285  -0.52201  -0.52005
 Alpha  occ. eigenvalues --   -0.51572  -0.51184  -0.50633  -0.50487  -0.50446
 Alpha  occ. eigenvalues --   -0.50295  -0.50270  -0.49949  -0.49676  -0.49597
 Alpha  occ. eigenvalues --   -0.49197  -0.49036  -0.48821  -0.48614  -0.48376
 Alpha  occ. eigenvalues --   -0.47995  -0.47860  -0.47777  -0.47491  -0.47238
 Alpha  occ. eigenvalues --   -0.47125  -0.46557  -0.46122  -0.45975  -0.45895
 Alpha  occ. eigenvalues --   -0.45578  -0.45454  -0.45139  -0.44953  -0.44729
 Alpha  occ. eigenvalues --   -0.44572  -0.44515  -0.44250  -0.44181  -0.43996
 Alpha  occ. eigenvalues --   -0.43817  -0.43729  -0.43614  -0.43425  -0.43216
 Alpha  occ. eigenvalues --   -0.42920  -0.42617  -0.42316  -0.42087  -0.41874
 Alpha  occ. eigenvalues --   -0.41766  -0.41444  -0.41200  -0.41066  -0.40750
 Alpha  occ. eigenvalues --   -0.40516  -0.40414  -0.40289  -0.39965  -0.39861
 Alpha  occ. eigenvalues --   -0.39726  -0.39552  -0.39493  -0.39043  -0.38786
 Alpha  occ. eigenvalues --   -0.38676  -0.38546  -0.38310  -0.38156  -0.38070
 Alpha  occ. eigenvalues --   -0.37893  -0.37579  -0.37411  -0.37252  -0.36911
 Alpha  occ. eigenvalues --   -0.36719  -0.36552  -0.36527  -0.36166  -0.35746
 Alpha  occ. eigenvalues --   -0.35625  -0.34437  -0.34176  -0.33993  -0.33559
 Alpha  occ. eigenvalues --   -0.33216  -0.32081  -0.31821  -0.30634  -0.30600
 Alpha  occ. eigenvalues --   -0.29876  -0.29202  -0.27751  -0.27145  -0.23038
 Alpha  occ. eigenvalues --   -0.21827
 Alpha virt. eigenvalues --   -0.06964  -0.03242   0.01507   0.03739   0.04285
 Alpha virt. eigenvalues --    0.05486   0.05889   0.06280   0.06716   0.07075
 Alpha virt. eigenvalues --    0.08002   0.10684   0.10908   0.11179   0.11344

 Mulliken charges:
               1
     1  Mg   0.834113
     2  C    0.063900
     3  C   -0.198836
     4  C   -0.190550
     5  C   -0.162319
     6  N   -0.688191
     7  C    0.306119
     8  C   -0.121270
     9  C   -0.166666
    10  C    0.380385
    11  C   -0.290565
    12  C   -0.182445
    13  C   -0.263488
    14  C    0.640130
    15  O   -0.477709
    16  O   -0.504917
    17  N   -0.730022
    18  C    0.329415
    19  C    0.007321
    20  C    0.005643
    21  C    0.313174
    22  C   -0.377019
    23  C   -0.056702
    24  C   -0.216777
    25  N   -0.678610
    26  C    0.300508
    27  C   -0.027244
    28  C    0.040853
    29  C    0.318534
    30  C   -0.363616
    31  C   -0.229532
    32  C   -0.303299
    33  N   -0.677434
    34  C    0.208080
    35  C    0.104539
    36  C    0.001255
    37  C    0.282244
    38  C   -0.400578
    39  C    0.371667
    40  O   -0.461663
    41  C   -0.332062
    42  C    0.611840
    43  O   -0.437578
    44  O   -0.500764
    45  C   -0.048932
    46  C    0.023010
    47  C   -0.135087
    48  C    0.083176
    49  C   -0.349566
    50  C   -0.212514
    51  C   -0.162931
    52  C   -0.193428
    53  C   -0.005913
    54  C   -0.323712
    55  C   -0.177044
    56  C   -0.176143
    57  C   -0.190730
    58  C   -0.057435
    59  C   -0.285862
    60  C   -0.161524
    61  C   -0.206911
    62  C   -0.173386
    63  C   -0.041689
    64  C   -0.302708
    65  C   -0.297875
    66  H    0.074287
    67  H    0.092032
    68  H    0.092534
    69  H    0.106315
    70  H    0.111023
    71  H    0.095756
    72  H    0.097408
    73  H    0.130215
    74  H    0.117147
    75  H    0.092417
    76  H    0.133362
    77  H    0.117750
    78  H    0.117825
    79  H    0.127698
    80  H    0.088370
    81  H    0.093779
    82  H    0.098465
    83  H    0.112133
    84  H    0.133412
    85  H    0.113846
    86  H    0.091416
    87  H    0.104906
    88  H    0.089745
    89  H    0.117564
    90  H    0.100756
    91  H    0.103464
    92  H    0.104875
    93  H    0.154129
    94  H    0.112593
    95  H    0.161632
    96  H    0.109499
    97  H    0.122982
    98  H    0.101597
    99  H    0.150561
   100  H    0.132917
   101  H    0.093444
   102  H    0.107784
   103  H    0.136798
   104  H    0.104549
   105  H    0.073922
   106  H    0.062468
   107  H    0.114746
   108  H    0.102072
   109  H    0.074319
   110  H    0.091317
   111  H    0.089142
   112  H    0.091398
   113  H    0.115155
   114  H    0.095882
   115  H    0.091966
   116  H    0.088841
   117  H    0.089015
   118  H    0.067869
   119  H    0.078424
   120  H    0.100649
   121  H    0.091321
   122  H    0.065021
   123  H    0.117256
   124  H    0.104000
   125  H    0.098555
   126  H    0.041658
   127  H    0.080900
   128  H    0.107394
   129  H    0.099154
   130  H    0.097586
   131  H    0.103000
   132  H    0.094202
   133  H    0.091565
   134  H    0.105511
   135  H    0.086948
   136  H    0.075670
   137  H    0.083429
 Sum of Mulliken charges =   0.00000

 Dipole moment (field-independent basis, Debye):
    X=              1.6303    Y=              6.3966    Z=             -1.3592  Tot=              6.7396
 Quadrupole moment (field-independent basis, Debye-Ang):
   XX=           -355.0462   YY=           -395.5015   ZZ=           -397.6445
   XY=            -24.6306   XZ=              8.0692   YZ=              0.1770

 Normal termination of Gaussian 09 at Thu Jun 27 04:01:25 2019.
