 Gaussian 09, Revision D.01,
 Gaussian 09:  ES64L-G09RevD.01 24-Apr-2013

 -------------------------------------
 # td=(NStates=1) CAM-B3LYP/6-31G(d,p)
 -------------------------------------

 --
 TD
 --
 Symbolic Z-matrix:
 Charge =  0 Multiplicity = 1

                         Standard orientation:
 ---------------------------------------------------------------------
 Center     Atomic      Atomic             Coordinates (Angstroms)
 Number     Number       Type             X           Y           Z
 ---------------------------------------------------------------------
      1         12           0       -7.176034    0.612893    0.121300
      2          6           0       -4.834946   -1.919101    0.459113
      3          6           0       -4.808272    2.822267    1.049770
      4          6           0       -9.541036    3.148872   -0.259344
      5          6           0       -9.554096   -1.697420   -0.834843
      6          7           0       -5.181085    0.404569    0.714986
      7          6           0       -4.391139   -0.677847    0.810685
      8          6           0       -2.903332   -0.339850    1.253072
      9          6           0       -2.946797    1.157573    1.630373
     10          6           0       -4.344912    1.510593    0.990644
     11          6           0       -2.823482    1.475725    3.182528
     12          6           0       -1.977817   -0.637131    0.106298
     13          6           0       -0.495279   -0.358524    0.484910
     14          6           0        0.535010   -0.650743   -0.606977
     15          8           0        0.337670   -0.897746   -1.839689
     16          8           0        1.848309   -0.459911   -0.077666
     17          7           0       -7.162214    2.691304    0.386191
     18          6           0       -6.116790    3.324927    0.754601
     19          6           0       -6.427288    4.765828    0.869141
     20          6           0       -7.732759    4.855263    0.430690
     21          6           0       -8.150854    3.482114    0.109356
     22          6           0       -5.549764    5.769667    1.422458
     23          6           0       -8.567197    6.084257    0.325760
     24          6           0       -8.070345    7.296542   -0.002369
     25          7           0       -9.143728    0.719276   -0.550750
     26          6           0       -9.924204    1.801900   -0.640759
     27          6           0      -11.229654    1.448161   -1.158288
     28          6           0      -11.272601    0.038898   -1.237296
     29          6           0       -9.922049   -0.337790   -0.797496
     30          6           0      -12.392766    2.372865   -1.385240
     31          6           0      -12.343335   -0.855617   -1.599043
     32          6           0      -12.420345   -1.057215   -3.089384
     33          7           0       -7.232399   -1.435171   -0.226715
     34          6           0       -8.286269   -2.256233   -0.514509
     35          6           0       -7.756380   -3.628759   -0.517388
     36          6           0       -6.483168   -3.640486   -0.126939
     37          6           0       -6.233580   -2.247914    0.094143
     38          6           0       -8.617650   -4.854303   -0.897072
     39          6           0       -5.315098   -4.474531    0.145429
     40          8           0       -5.119655   -5.635989    0.093207
     41          6           0       -4.111103   -3.341701    0.524799
     42          6           0       -3.508242   -3.708051    1.849508
     43          8           0       -3.732640   -3.088686    2.925901
     44          8           0       -2.649741   -4.747075    1.843459
     45          6           0       -2.118062   -5.184789    2.973743
     46          6           0        2.785211   -0.649599   -1.111284
     47          6           0        4.234488   -0.491449   -0.413395
     48          6           0        5.129461    0.324512   -0.984678
     49          6           0        5.084716    1.134510   -2.274114
     50          6           0        6.521754    0.471803   -0.290478
     51          6           0        7.692173   -0.113721   -1.060546
     52          6           0        8.848550   -0.157275   -0.142876
     53          6           0       10.230593   -0.653410   -0.831359
     54          6           0       10.172101   -2.155938   -1.293671
     55          6           0       11.445195   -0.394006    0.067965
     56          6           0       12.814318   -0.525007   -0.632122
     57          6           0       14.007221   -0.109782    0.225641
     58          6           0       15.300734   -0.201871   -0.482259
     59          6           0       15.691861   -1.692175   -0.930963
     60          6           0       16.296695    0.387156    0.404477
     61          6           0       17.719977    0.577410   -0.203673
     62          6           0       18.686170    1.267388    0.750691
     63          6           0       20.180109    1.313449    0.256330
     64          6           0       20.342494    2.154095   -1.079342
     65          6           0       20.968170    2.097219    1.374312
     66          1           0       -4.062887    3.534794    1.529872
     67          1           0      -10.175248    3.890648   -0.435027
     68          1           0      -10.305089   -2.436145   -0.930127
     69          1           0       -2.711408   -0.985938    2.334083
     70          1           0       -2.081879    1.758466    1.058333
     71          1           0       -1.809468    1.145967    3.516407
     72          1           0       -3.106920    2.476177    3.273928
     73          1           0       -3.619129    0.909086    3.556176
     74          1           0       -1.964309   -1.780449   -0.361744
     75          1           0       -2.334458   -0.015080   -0.689722
     76          1           0       -0.343361    0.682228    0.881807
     77          1           0       -0.177904   -0.834778    1.302020
     78          1           0       -4.805100    6.334225    0.550731
     79          1           0       -6.014767    6.687827    1.883438
     80          1           0       -4.874753    5.374696    2.266595
     81          1           0       -9.681551    6.065115    0.551028
     82          1           0       -8.868097    8.125420   -0.173620
     83          1           0       -6.973157    7.535892   -0.025911
     84          1           0      -12.123967    3.183680   -2.038105
     85          1           0      -13.110387    1.740551   -2.102083
     86          1           0      -12.928082    2.724531   -0.570083
     87          1           0      -12.299402   -1.878639   -1.142089
     88          1           0      -13.140746   -0.417633   -1.340121
     89          1           0      -13.362001   -1.668971   -3.474491
     90          1           0      -12.644155   -0.306030   -3.662366
     91          1           0      -11.483577   -1.588741   -3.434092
     92          1           0       -9.175194   -4.884840   -1.835638
     93          1           0       -7.953359   -5.741427   -0.641916
     94          1           0       -9.322765   -4.979084   -0.079234
     95          1           0       -3.278464   -3.322806   -0.257964
     96          1           0       -1.498995   -4.304304    3.582706
     97          1           0       -2.850093   -5.496269    3.716881
     98          1           0       -1.489972   -6.100858    2.737065
     99          1           0        2.783994   -1.632949   -1.548440
    100          1           0        2.779259    0.015492   -1.876569
    101          1           0        4.453254   -0.998797    0.681150
    102          1           0        4.100215    1.200500   -2.607762
    103          1           0        5.471981    2.120344   -2.317382
    104          1           0        5.613158    0.569249   -3.086992
    105          1           0        6.796013    1.432279   -0.124544
    106          1           0        6.457488   -0.050914    0.709696
    107          1           0        7.281990   -1.033969   -1.402791
    108          1           0        7.905491    0.497180   -1.885267
    109          1           0        9.174658    0.750482    0.253000
    110          1           0        8.942517   -0.853253    0.685820
    111          1           0       10.393085    0.034464   -1.790899
    112          1           0        9.314272   -2.250368   -1.892966
    113          1           0       10.980559   -2.373156   -2.003615
    114          1           0       10.348954   -2.759040   -0.285734
    115          1           0       11.361403    0.631830    0.246067
    116          1           0       11.465970   -0.849872    1.177055
    117          1           0       12.566496   -1.485979   -1.081881
    118          1           0       12.660256    0.059014   -1.679582
    119          1           0       13.808767    0.848705    0.527098
    120          1           0       14.029897   -0.689886    1.133146
    121          1           0       15.219838    0.484840   -1.457434
    122          1           0       15.554767   -2.422050   -0.198743
    123          1           0       15.120715   -1.943143   -1.899507
    124          1           0       16.636577   -1.722022   -1.445926
    125          1           0       15.979298    1.257610    1.008857
    126          1           0       16.257502   -0.283931    1.254640
    127          1           0       18.048192   -0.406050   -0.735662
    128          1           0       17.504778    1.181075   -1.125218
    129          1           0       18.163024    2.446285    0.760350
    130          1           0       18.777789    0.780271    1.801036
    131          1           0       20.690599    0.245592    0.187371
    132          1           0       19.974336    3.250785   -1.123851
    133          1           0       21.304501    2.344401   -1.484359
    134          1           0       19.615678    1.708441   -1.850776
    135          1           0       20.860544    1.651069    2.421213
    136          1           0       21.912230    1.862552    1.185739
    137          1           0       20.839113    3.151784    1.151253
 ---------------------------------------------------------------------

 SCF Done:  E(RCAM-B3LYP) =  -2932.68427912     A.U. after   16 cycles

 Excitation energies and oscillator strengths:

 Excited State   1:      Singlet-A      2.0174 eV  614.59 nm  f=0.2577  <S**2>=0.000
     240 -> 243       -0.23241
     241 -> 242        0.66212
 This state for optimization and/or second-order correction.
 Total Energy, E(TD-HF/TD-KS) =  -2932.61014275
 Copying the excited state density for this state as the 1-particle RhoCI density.

 The electronic state is 1-A.
 Alpha  occ. eigenvalues --  -46.86048 -19.26817 -19.26657 -19.22662 -19.22210
 Alpha  occ. eigenvalues --  -19.20242 -14.42138 -14.39980 -14.39854 -14.39772
 Alpha  occ. eigenvalues --  -10.40744 -10.39656 -10.37163 -10.31743 -10.31454
 Alpha  occ. eigenvalues --  -10.30585 -10.30455 -10.30039 -10.29935 -10.29706
 Alpha  occ. eigenvalues --  -10.29694 -10.29423 -10.29261 -10.29186 -10.29056
 Alpha  occ. eigenvalues --  -10.28922 -10.28870 -10.28410 -10.28219 -10.27953
 Alpha  occ. eigenvalues --  -10.27924 -10.27856 -10.27806 -10.27688 -10.27524
 Alpha  occ. eigenvalues --  -10.27217 -10.27010 -10.26974 -10.26925 -10.26921
 Alpha  occ. eigenvalues --  -10.26477 -10.26438 -10.26421 -10.26414 -10.26399
 Alpha  occ. eigenvalues --  -10.26241 -10.26197 -10.25961 -10.25949 -10.25814
 Alpha  occ. eigenvalues --  -10.25469 -10.25372 -10.25321 -10.25085 -10.24987
 Alpha  occ. eigenvalues --  -10.24972 -10.24673 -10.24474 -10.24393 -10.24226
 Alpha  occ. eigenvalues --  -10.24157 -10.24070 -10.24033 -10.23813 -10.23272
 Alpha  occ. eigenvalues --   -3.14880  -1.89606  -1.89097  -1.89062  -1.19954
 Alpha  occ. eigenvalues --   -1.16286  -1.14771  -1.07537  -1.07521  -1.07459
 Alpha  occ. eigenvalues --   -1.05402  -1.04330  -1.03131  -0.91113  -0.90965
 Alpha  occ. eigenvalues --   -0.90570  -0.90334  -0.90279  -0.89025  -0.88558
 Alpha  occ. eigenvalues --   -0.88308  -0.87620  -0.87248  -0.86961  -0.85938
 Alpha  occ. eigenvalues --   -0.85004  -0.84215  -0.83864  -0.82905  -0.82394
 Alpha  occ. eigenvalues --   -0.81663  -0.80996  -0.80030  -0.79406  -0.78395
 Alpha  occ. eigenvalues --   -0.77795  -0.77125  -0.76167  -0.75992  -0.75839
 Alpha  occ. eigenvalues --   -0.75248  -0.75192  -0.74327  -0.73351  -0.72758
 Alpha  occ. eigenvalues --   -0.72078  -0.71224  -0.70240  -0.68811  -0.68525
 Alpha  occ. eigenvalues --   -0.66819  -0.66669  -0.65045  -0.64643  -0.64479
 Alpha  occ. eigenvalues --   -0.64348  -0.63545  -0.63098  -0.62701  -0.61197
 Alpha  occ. eigenvalues --   -0.61094  -0.60467  -0.60106  -0.59940  -0.59168
 Alpha  occ. eigenvalues --   -0.58606  -0.58189  -0.58074  -0.56995  -0.56588
 Alpha  occ. eigenvalues --   -0.56179  -0.55882  -0.55361  -0.55175  -0.54737
 Alpha  occ. eigenvalues --   -0.54537  -0.54465  -0.54059  -0.53888  -0.53543
 Alpha  occ. eigenvalues --   -0.53237  -0.52608  -0.52082  -0.51828  -0.51469
 Alpha  occ. eigenvalues --   -0.51395  -0.51286  -0.51253  -0.51005  -0.50818
 Alpha  occ. eigenvalues --   -0.50582  -0.50251  -0.50011  -0.49629  -0.49513
 Alpha  occ. eigenvalues --   -0.49482  -0.49324  -0.48899  -0.48733  -0.48528
 Alpha  occ. eigenvalues --   -0.48108  -0.48005  -0.47845  -0.47805  -0.47356
 Alpha  occ. eigenvalues --   -0.47237  -0.47007  -0.46783  -0.46603  -0.46325
 Alpha  occ. eigenvalues --   -0.46247  -0.46055  -0.45897  -0.45868  -0.45712
 Alpha  occ. eigenvalues --   -0.44829  -0.44721  -0.44598  -0.44452  -0.44357
 Alpha  occ. eigenvalues --   -0.44261  -0.43735  -0.43656  -0.43273  -0.43106
 Alpha  occ. eigenvalues --   -0.42862  -0.42780  -0.42523  -0.42279  -0.42065
 Alpha  occ. eigenvalues --   -0.41926  -0.41673  -0.41560  -0.41518  -0.41286
 Alpha  occ. eigenvalues --   -0.41098  -0.40942  -0.40865  -0.40438  -0.40169
 Alpha  occ. eigenvalues --   -0.39998  -0.39949  -0.39587  -0.39232  -0.39108
 Alpha  occ. eigenvalues --   -0.38888  -0.38624  -0.38242  -0.38004  -0.37801
 Alpha  occ. eigenvalues --   -0.37090  -0.36930  -0.36464  -0.36400  -0.36336
 Alpha  occ. eigenvalues --   -0.36105  -0.36021  -0.35898  -0.35216  -0.35185
 Alpha  occ. eigenvalues --   -0.34950  -0.34613  -0.34210  -0.34010  -0.33424
 Alpha  occ. eigenvalues --   -0.33213  -0.32471  -0.32376  -0.31074  -0.31018
 Alpha  occ. eigenvalues --   -0.30806  -0.29558  -0.28507  -0.27750  -0.23002
 Alpha  occ. eigenvalues --   -0.21383
 Alpha virt. eigenvalues --   -0.06785  -0.02973   0.01578   0.03643   0.03974
 Alpha virt. eigenvalues --    0.04867   0.05292   0.06108   0.06433   0.07768
 Alpha virt. eigenvalues --    0.08023   0.10318   0.10800   0.11386   0.11963

 Mulliken charges:
               1
     1  Mg   0.836587
     2  C    0.014356
     3  C   -0.214542
     4  C   -0.125576
     5  C   -0.162059
     6  N   -0.630089
     7  C    0.321511
     8  C   -0.156902
     9  C   -0.147435
    10  C    0.303826
    11  C   -0.293395
    12  C   -0.156222
    13  C   -0.260524
    14  C    0.605203
    15  O   -0.485671
    16  O   -0.481908
    17  N   -0.680622
    18  C    0.325721
    19  C    0.066031
    20  C   -0.016488
    21  C    0.274996
    22  C   -0.393670
    23  C   -0.093394
    24  C   -0.235287
    25  N   -0.680817
    26  C    0.291207
    27  C   -0.022848
    28  C    0.057123
    29  C    0.281524
    30  C   -0.374541
    31  C   -0.225051
    32  C   -0.304159
    33  N   -0.682578
    34  C    0.269405
    35  C   -0.053302
    36  C    0.087729
    37  C    0.252807
    38  C   -0.387721
    39  C    0.374412
    40  O   -0.407031
    41  C   -0.328224
    42  C    0.616314
    43  O   -0.498565
    44  O   -0.393324
    45  C   -0.079400
    46  C    0.032752
    47  C   -0.172161
    48  C    0.113695
    49  C   -0.370924
    50  C   -0.223934
    51  C   -0.172713
    52  C   -0.167077
    53  C   -0.101038
    54  C   -0.303161
    55  C   -0.180507
    56  C   -0.179993
    57  C   -0.165669
    58  C   -0.051997
    59  C   -0.316610
    60  C   -0.163984
    61  C   -0.179652
    62  C   -0.132071
    63  C   -0.062883
    64  C   -0.326683
    65  C   -0.303922
    66  H    0.084282
    67  H    0.080931
    68  H    0.088356
    69  H    0.115767
    70  H    0.092598
    71  H    0.115247
    72  H    0.115311
    73  H    0.136876
    74  H    0.097700
    75  H    0.131882
    76  H    0.137115
    77  H    0.150166
    78  H    0.084062
    79  H    0.125288
    80  H    0.109166
    81  H    0.098582
    82  H    0.095252
    83  H    0.108186
    84  H    0.123566
    85  H    0.089808
    86  H    0.135621
    87  H    0.108772
    88  H    0.109684
    89  H    0.070884
    90  H    0.124734
    91  H    0.105467
    92  H    0.132267
    93  H    0.134410
    94  H    0.129887
    95  H    0.151519
    96  H    0.084769
    97  H    0.122838
    98  H    0.114428
    99  H    0.126101
   100  H    0.118585
   101  H    0.091633
   102  H    0.116775
   103  H    0.125439
   104  H    0.121072
   105  H    0.102297
   106  H    0.085438
   107  H    0.107116
   108  H    0.100676
   109  H    0.098498
   110  H    0.098292
   111  H    0.056192
   112  H    0.108572
   113  H    0.104943
   114  H    0.092058
   115  H    0.094062
   116  H    0.063674
   117  H    0.099623
   118  H    0.059426
   119  H    0.108094
   120  H    0.094726
   121  H    0.058976
   122  H    0.114194
   123  H    0.092765
   124  H    0.106684
   125  H    0.082750
   126  H    0.081411
   127  H    0.080800
   128  H    0.091780
   129  H    0.062794
   130  H    0.087163
   131  H    0.081139
   132  H    0.089248
   133  H    0.111551
   134  H    0.095668
   135  H    0.086612
   136  H    0.109822
   137  H    0.109054
 Sum of Mulliken charges =   0.00000

 Dipole moment (field-independent basis, Debye):
    X=             -0.9410    Y=              4.0039    Z=              0.5556  Tot=              4.1503
 Quadrupole moment (field-independent basis, Debye-Ang):
   XX=           -329.1559   YY=           -394.0463   ZZ=           -399.4420
   XY=            -15.1758   XZ=              5.6829   YZ=             -1.6955

 Normal termination of Gaussian 09 at Thu Jun 27 15:17:14 2019.
