 Gaussian 09, Revision D.01,
 Gaussian 09:  ES64L-G09RevD.01 24-Apr-2013

 -------------------------------------
 # td=(NStates=1) CAM-B3LYP/6-31G(d,p)
 -------------------------------------

 --
 TD
 --
 Symbolic Z-matrix:
 Charge =  0 Multiplicity = 1

                         Standard orientation:
 ---------------------------------------------------------------------
 Center     Atomic      Atomic             Coordinates (Angstroms)
 Number     Number       Type             X           Y           Z
 ---------------------------------------------------------------------
      1         12           0       -7.119160    0.617235    0.089559
      2          6           0       -4.838628   -1.981519    0.501722
      3          6           0       -4.783740    2.825847    1.373901
      4          6           0       -9.315860    3.096270   -0.306627
      5          6           0       -9.548528   -1.741904   -0.827725
      6          7           0       -5.103010    0.498725    0.762822
      7          6           0       -4.360157   -0.726586    0.802077
      8          6           0       -2.895131   -0.445690    1.243918
      9          6           0       -2.984299    0.986974    1.747030
     10          6           0       -4.422902    1.509568    1.231772
     11          6           0       -2.854424    1.129070    3.211461
     12          6           0       -1.852041   -0.598029    0.001119
     13          6           0       -0.396994   -0.433124    0.484690
     14          6           0        0.528335   -0.613111   -0.697598
     15          8           0        0.216012   -0.851828   -1.858129
     16          8           0        1.778818   -0.518768   -0.349349
     17          7           0       -7.084932    2.626665    0.521827
     18          6           0       -5.972312    3.419675    0.903614
     19          6           0       -6.353546    4.843930    0.842886
     20          6           0       -7.703628    4.855591    0.532503
     21          6           0       -8.085867    3.485261    0.215473
     22          6           0       -5.484984    5.842472    1.469498
     23          6           0       -8.601847    6.013961    0.489238
     24          6           0       -8.266200    7.240408    0.238495
     25          7           0       -9.129307    0.667949   -0.451986
     26          6           0       -9.816719    1.786334   -0.612639
     27          6           0      -11.194365    1.521396   -1.158338
     28          6           0      -11.263406    0.189955   -1.366618
     29          6           0       -9.951833   -0.336409   -0.874122
     30          6           0      -12.158113    2.547578   -1.586069
     31          6           0      -12.394497   -0.644476   -1.828526
     32          6           0      -12.350524   -0.777939   -3.382403
     33          7           0       -7.174013   -1.352909   -0.061236
     34          6           0       -8.308661   -2.235859   -0.420386
     35          6           0       -7.920214   -3.676185   -0.555076
     36          6           0       -6.512883   -3.573208   -0.128448
     37          6           0       -6.216478   -2.217807    0.075027
     38          6           0       -8.795474   -4.846729   -0.907704
     39          6           0       -5.374815   -4.401537    0.187225
     40          8           0       -5.234035   -5.620840    0.189314
     41          6           0       -4.156891   -3.336283    0.599498
     42          6           0       -3.590609   -3.757605    1.908401
     43          8           0       -3.810709   -3.245234    2.965409
     44          8           0       -2.748424   -4.822098    1.737682
     45          6           0       -2.131953   -5.232272    2.968119
     46          6           0        2.826341   -0.833690   -1.255211
     47          6           0        4.139061   -0.555846   -0.558532
     48          6           0        5.062669    0.224053   -1.103682
     49          6           0        4.973567    1.059717   -2.244664
     50          6           0        6.385358    0.409446   -0.282312
     51          6           0        7.594634   -0.264431   -1.022746
     52          6           0        8.828745   -0.166861   -0.111726
     53          6           0       10.155964   -0.503987   -0.931045
     54          6           0       10.190303   -1.887343   -1.392199
     55          6           0       11.367911   -0.387105   -0.002323
     56          6           0       12.715261   -0.559475   -0.661732
     57          6           0       13.911857   -0.104321    0.256736
     58          6           0       15.344676   -0.112074   -0.440264
     59          6           0       15.763553   -1.553295   -0.817192
     60          6           0       16.427313    0.456124    0.456622
     61          6           0       17.782648    0.582390   -0.181463
     62          6           0       18.802578    1.382312    0.707795
     63          6           0       20.188313    1.350659    0.274853
     64          6           0       20.231318    2.145431   -1.068130
     65          6           0       21.189069    1.904290    1.238311
     66          1           0       -3.882260    3.401972    1.740324
     67          1           0      -10.061179    3.872037   -0.638820
     68          1           0      -10.237269   -2.404241   -1.047300
     69          1           0       -2.658758   -1.108083    2.184428
     70          1           0       -2.256951    1.447789    1.121030
     71          1           0       -1.839536    0.799972    3.471557
     72          1           0       -3.070541    2.095214    3.566765
     73          1           0       -3.573182    0.137974    3.486770
     74          1           0       -1.901263   -1.648558   -0.437137
     75          1           0       -2.146916    0.147239   -0.826723
     76          1           0       -0.271944    0.655624    0.809777
     77          1           0       -0.139034   -0.969560    1.513389
     78          1           0       -4.881820    6.540033    0.729346
     79          1           0       -6.011310    6.717513    1.799651
     80          1           0       -4.767449    5.486414    2.112334
     81          1           0       -9.610154    5.932465    0.361638
     82          1           0       -8.821347    8.008281    0.136229
     83          1           0       -7.231480    7.550819    0.214756
     84          1           0      -12.003116    2.849197   -2.749258
     85          1           0      -13.172422    2.069316   -1.411646
     86          1           0      -11.954826    3.602098   -0.911891
     87          1           0      -12.335311   -1.741423   -1.570159
     88          1           0      -13.313295   -0.181324   -1.612201
     89          1           0      -13.266598   -1.322211   -3.651884
     90          1           0      -12.037378    0.305810   -3.747012
     91          1           0      -11.620299   -1.412424   -3.695458
     92          1           0       -9.143532   -4.709816   -1.880047
     93          1           0       -8.078954   -5.776654   -0.618548
     94          1           0       -9.739495   -4.966765   -0.320936
     95          1           0       -3.388325   -3.539716   -0.177011
     96          1           0       -1.728623   -4.474441    3.488021
     97          1           0       -2.726761   -5.820793    3.643950
     98          1           0       -1.334469   -5.990995    2.632485
     99          1           0        2.593338   -1.857669   -1.824248
    100          1           0        2.416476   -0.138385   -2.206581
    101          1           0        4.064542   -1.122521    0.558955
    102          1           0        4.018979    0.846707   -2.794587
    103          1           0        5.304701    2.166744   -1.974940
    104          1           0        5.766243    0.886225   -3.137349
    105          1           0        6.485516    1.539491    0.151521
    106          1           0        6.351640   -0.197853    0.649759
    107          1           0        7.301077   -1.268770   -1.253392
    108          1           0        7.916104    0.310454   -1.823112
    109          1           0        8.803627    0.778315    0.332449
    110          1           0        8.817722   -0.860774    0.669568
    111          1           0       10.366966    0.147057   -1.881253
    112          1           0        9.211023   -1.980263   -1.999504
    113          1           0       11.003295   -1.999761   -2.156498
    114          1           0       10.156814   -2.599784   -0.496042
    115          1           0       11.347829    0.632291    0.808782
    116          1           0       11.387518   -1.041253    0.731495
    117          1           0       12.991027   -1.701505   -1.025577
    118          1           0       12.852800    0.023567   -1.633286
    119          1           0       13.845906    0.826347    0.763760
    120          1           0       14.062054   -0.860255    1.179429
    121          1           0       15.329227    0.559925   -1.313063
    122          1           0       15.912689   -2.086275    0.114283
    123          1           0       14.872667   -1.998023   -1.462061
    124          1           0       16.625624   -1.571680   -1.399138
    125          1           0       16.175183    1.432187    0.769228
    126          1           0       16.518437   -0.106494    1.349837
    127          1           0       18.247282   -0.414052   -0.551395
    128          1           0       17.581358    1.027999   -1.012760
    129          1           0       18.492155    2.371970    0.729691
    130          1           0       18.601780    1.019390    1.862806
    131          1           0       20.573687    0.426990   -0.065403
    132          1           0       19.859366    3.250632   -1.001189
    133          1           0       21.253784    2.358830   -1.186616
    134          1           0       19.929680    1.727155   -1.984357
    135          1           0       21.354128    1.131059    1.937070
    136          1           0       22.027698    1.977225    0.846683
    137          1           0       20.735596    2.968223    1.637608
 ---------------------------------------------------------------------

 SCF Done:  E(RCAM-B3LYP) =  -2932.66634635     A.U. after   17 cycles

 Excitation energies and oscillator strengths:

 Excited State   1:      Singlet-A      2.0120 eV  616.21 nm  f=0.2692  <S**2>=0.000
     240 -> 243        0.22295
     241 -> 242        0.66373
 This state for optimization and/or second-order correction.
 Total Energy, E(TD-HF/TD-KS) =  -2932.59240491
 Copying the excited state density for this state as the 1-particle RhoCI density.

 The electronic state is 1-A.
 Alpha  occ. eigenvalues --  -46.84585 -19.26057 -19.25573 -19.20441 -19.20197
 Alpha  occ. eigenvalues --  -19.20115 -14.41286 -14.40162 -14.40097 -14.39461
 Alpha  occ. eigenvalues --  -10.38940 -10.38370 -10.35107 -10.33507 -10.31083
 Alpha  occ. eigenvalues --  -10.30677 -10.30553 -10.30299 -10.29808 -10.29774
 Alpha  occ. eigenvalues --  -10.29630 -10.29487 -10.29300 -10.29075 -10.29055
 Alpha  occ. eigenvalues --  -10.29046 -10.28142 -10.28093 -10.28091 -10.27857
 Alpha  occ. eigenvalues --  -10.27798 -10.27737 -10.27670 -10.27624 -10.27554
 Alpha  occ. eigenvalues --  -10.27540 -10.27298 -10.27207 -10.27041 -10.26850
 Alpha  occ. eigenvalues --  -10.26653 -10.26456 -10.26443 -10.26355 -10.26320
 Alpha  occ. eigenvalues --  -10.26248 -10.26150 -10.26010 -10.25857 -10.25801
 Alpha  occ. eigenvalues --  -10.25714 -10.25470 -10.25463 -10.25358 -10.25349
 Alpha  occ. eigenvalues --  -10.25008 -10.24849 -10.24794 -10.24480 -10.24474
 Alpha  occ. eigenvalues --  -10.24135 -10.23664 -10.23598 -10.23334 -10.23103
 Alpha  occ. eigenvalues --   -3.13640  -1.88341  -1.87885  -1.87821  -1.19730
 Alpha  occ. eigenvalues --   -1.17613  -1.09886  -1.09126  -1.08448  -1.04369
 Alpha  occ. eigenvalues --   -1.03496  -1.03016  -1.02095  -0.91726  -0.91255
 Alpha  occ. eigenvalues --   -0.91024  -0.90519  -0.90014  -0.89710  -0.89450
 Alpha  occ. eigenvalues --   -0.88843  -0.88383  -0.87514  -0.86738  -0.86258
 Alpha  occ. eigenvalues --   -0.85379  -0.84965  -0.83701  -0.83295  -0.82993
 Alpha  occ. eigenvalues --   -0.81784  -0.81118  -0.80714  -0.80163  -0.78816
 Alpha  occ. eigenvalues --   -0.77637  -0.76924  -0.76756  -0.75934  -0.75474
 Alpha  occ. eigenvalues --   -0.74913  -0.74625  -0.74379  -0.73365  -0.72421
 Alpha  occ. eigenvalues --   -0.70769  -0.69990  -0.69815  -0.68876  -0.68386
 Alpha  occ. eigenvalues --   -0.67098  -0.66976  -0.65036  -0.64880  -0.64277
 Alpha  occ. eigenvalues --   -0.63961  -0.63689  -0.63109  -0.62350  -0.62190
 Alpha  occ. eigenvalues --   -0.61938  -0.61219  -0.60650  -0.59965  -0.59487
 Alpha  occ. eigenvalues --   -0.58686  -0.57958  -0.57555  -0.56932  -0.56474
 Alpha  occ. eigenvalues --   -0.56273  -0.55790  -0.55232  -0.54914  -0.54734
 Alpha  occ. eigenvalues --   -0.54383  -0.54061  -0.53383  -0.53163  -0.53128
 Alpha  occ. eigenvalues --   -0.52974  -0.52701  -0.52472  -0.52196  -0.52080
 Alpha  occ. eigenvalues --   -0.51728  -0.51465  -0.51305  -0.50863  -0.50768
 Alpha  occ. eigenvalues --   -0.50480  -0.50181  -0.50030  -0.49997  -0.49484
 Alpha  occ. eigenvalues --   -0.49406  -0.49051  -0.48767  -0.48490  -0.48350
 Alpha  occ. eigenvalues --   -0.48218  -0.47973  -0.47847  -0.47467  -0.47454
 Alpha  occ. eigenvalues --   -0.47289  -0.46634  -0.46516  -0.46086  -0.45613
 Alpha  occ. eigenvalues --   -0.45462  -0.45339  -0.45203  -0.44781  -0.44721
 Alpha  occ. eigenvalues --   -0.44638  -0.44363  -0.44320  -0.44060  -0.44037
 Alpha  occ. eigenvalues --   -0.43868  -0.43632  -0.43445  -0.43386  -0.43198
 Alpha  occ. eigenvalues --   -0.42979  -0.42880  -0.42727  -0.42249  -0.42076
 Alpha  occ. eigenvalues --   -0.41815  -0.41640  -0.41508  -0.41491  -0.41409
 Alpha  occ. eigenvalues --   -0.41293  -0.40732  -0.40607  -0.40519  -0.40364
 Alpha  occ. eigenvalues --   -0.40124  -0.39888  -0.39815  -0.39603  -0.39158
 Alpha  occ. eigenvalues --   -0.38961  -0.38774  -0.38550  -0.38250  -0.38037
 Alpha  occ. eigenvalues --   -0.37600  -0.37481  -0.37152  -0.36883  -0.36616
 Alpha  occ. eigenvalues --   -0.36499  -0.36237  -0.36056  -0.35885  -0.35633
 Alpha  occ. eigenvalues --   -0.35325  -0.34899  -0.34522  -0.33536  -0.33511
 Alpha  occ. eigenvalues --   -0.33439  -0.33006  -0.32240  -0.30638  -0.30219
 Alpha  occ. eigenvalues --   -0.29613  -0.29429  -0.28728  -0.27759  -0.23510
 Alpha  occ. eigenvalues --   -0.20976
 Alpha virt. eigenvalues --   -0.06497  -0.02923   0.01713   0.04615   0.05212
 Alpha virt. eigenvalues --    0.05322   0.06293   0.06640   0.07391   0.08020
 Alpha virt. eigenvalues --    0.08230   0.09920   0.10910   0.11345   0.11792

 Mulliken charges:
               1
     1  Mg   0.827589
     2  C    0.088159
     3  C   -0.211619
     4  C   -0.197083
     5  C   -0.131943
     6  N   -0.634567
     7  C    0.260504
     8  C   -0.175567
     9  C   -0.133579
    10  C    0.350118
    11  C   -0.287811
    12  C   -0.175277
    13  C   -0.276436
    14  C    0.615542
    15  O   -0.496936
    16  O   -0.441382
    17  N   -0.708265
    18  C    0.278692
    19  C    0.038898
    20  C    0.012823
    21  C    0.347615
    22  C   -0.386667
    23  C   -0.056636
    24  C   -0.218600
    25  N   -0.662909
    26  C    0.314177
    27  C    0.011151
    28  C    0.070159
    29  C    0.225253
    30  C   -0.355507
    31  C   -0.247850
    32  C   -0.312421
    33  N   -0.721919
    34  C    0.199358
    35  C    0.059858
    36  C   -0.008039
    37  C    0.341163
    38  C   -0.379193
    39  C    0.340170
    40  O   -0.468801
    41  C   -0.340752
    42  C    0.641660
    43  O   -0.473015
    44  O   -0.460431
    45  C   -0.083308
    46  C   -0.010530
    47  C   -0.129850
    48  C    0.154140
    49  C   -0.360202
    50  C   -0.244870
    51  C   -0.176816
    52  C   -0.175297
    53  C   -0.077611
    54  C   -0.290176
    55  C   -0.137212
    56  C   -0.182361
    57  C   -0.167035
    58  C   -0.078426
    59  C   -0.294137
    60  C   -0.179348
    61  C   -0.175017
    62  C   -0.141871
    63  C   -0.072316
    64  C   -0.326961
    65  C   -0.276493
    66  H    0.082281
    67  H    0.081527
    68  H    0.064328
    69  H    0.114616
    70  H    0.098565
    71  H    0.107208
    72  H    0.117521
    73  H    0.106913
    74  H    0.121172
    75  H    0.122535
    76  H    0.131467
    77  H    0.132143
    78  H    0.097950
    79  H    0.128073
    80  H    0.131479
    81  H    0.085006
    82  H    0.100662
    83  H    0.085454
    84  H    0.114052
    85  H    0.115509
    86  H    0.086175
    87  H    0.103558
    88  H    0.114880
    89  H    0.102969
    90  H    0.098853
    91  H    0.122469
    92  H    0.141760
    93  H    0.148661
    94  H    0.132052
    95  H    0.160595
    96  H    0.132699
    97  H    0.128685
    98  H    0.107548
    99  H    0.122109
   100  H    0.106137
   101  H    0.103527
   102  H    0.114040
   103  H    0.117156
   104  H    0.104520
   105  H    0.081127
   106  H    0.099026
   107  H    0.114188
   108  H    0.109082
   109  H    0.103942
   110  H    0.094648
   111  H    0.072870
   112  H    0.084320
   113  H    0.111274
   114  H    0.097155
   115  H    0.033518
   116  H    0.112550
   117  H    0.082857
   118  H    0.085055
   119  H    0.097888
   120  H    0.060389
   121  H    0.076291
   122  H    0.105059
   123  H    0.074624
   124  H    0.109604
   125  H    0.088133
   126  H    0.089741
   127  H    0.073256
   128  H    0.106566
   129  H    0.099723
   130  H    0.048726
   131  H    0.091448
   132  H    0.077665
   133  H    0.097615
   134  H    0.112446
   135  H    0.104640
   136  H    0.107270
   137  H    0.076466
 Sum of Mulliken charges =   0.00000

 Dipole moment (field-independent basis, Debye):
    X=              1.3002    Y=              4.6807    Z=             -0.6972  Tot=              4.9077
 Quadrupole moment (field-independent basis, Debye-Ang):
   XX=           -325.0455   YY=           -391.9343   ZZ=           -401.0176
   XY=            -19.1505   XZ=             14.8293   YZ=             -0.8222

 Normal termination of Gaussian 09 at Thu Jun 27 02:21:19 2019.
