 Gaussian 09, Revision D.01,
 Gaussian 09:  ES64L-G09RevD.01 24-Apr-2013

 -------------------------------------
 # td=(NStates=1) CAM-B3LYP/6-31G(d,p)
 -------------------------------------

 --
 TD
 --
 Symbolic Z-matrix:
 Charge =  0 Multiplicity = 1

                         Standard orientation:
 ---------------------------------------------------------------------
 Center     Atomic      Atomic             Coordinates (Angstroms)
 Number     Number       Type             X           Y           Z
 ---------------------------------------------------------------------
      1         12           0       -7.170942    0.596821    0.089369
      2          6           0       -4.766978   -1.859174    0.470496
      3          6           0       -4.838492    2.863793    1.105145
      4          6           0       -9.476873    2.985361   -0.513597
      5          6           0       -9.500690   -1.805862   -0.832438
      6          7           0       -5.103455    0.428348    0.831609
      7          6           0       -4.313190   -0.710709    0.837429
      8          6           0       -2.895254   -0.374469    1.267476
      9          6           0       -3.000542    1.136836    1.720907
     10          6           0       -4.415211    1.520254    1.142389
     11          6           0       -3.019850    1.391556    3.188155
     12          6           0       -1.831404   -0.692736    0.137853
     13          6           0       -0.442805   -0.254681    0.580627
     14          6           0        0.622388   -0.564653   -0.539799
     15          8           0        0.298897   -1.070023   -1.569143
     16          8           0        1.804314   -0.322109   -0.206564
     17          7           0       -7.132792    2.563815    0.250574
     18          6           0       -6.126435    3.285605    0.824116
     19          6           0       -6.489508    4.756202    0.874024
     20          6           0       -7.812271    4.713961    0.398593
     21          6           0       -8.217505    3.426127    0.005314
     22          6           0       -5.776677    5.958883    1.365093
     23          6           0       -8.722307    5.933813    0.361231
     24          6           0       -8.394792    7.221532   -0.033838
     25          7           0       -9.171325    0.650902   -0.474209
     26          6           0       -9.882222    1.749553   -0.598861
     27          6           0      -11.265772    1.405114   -1.055258
     28          6           0      -11.273952    0.049055   -1.143590
     29          6           0       -9.939771   -0.369589   -0.821307
     30          6           0      -12.332597    2.352403   -1.352284
     31          6           0      -12.478008   -0.779412   -1.802959
     32          6           0      -12.120821   -1.169322   -3.224605
     33          7           0       -7.289971   -1.440052   -0.077862
     34          6           0       -8.301584   -2.308096   -0.554807
     35          6           0       -7.743092   -3.665574   -0.573374
     36          6           0       -6.422732   -3.534901   -0.091223
     37          6           0       -6.183959   -2.131204    0.025884
     38          6           0       -8.614051   -4.815365   -0.864118
     39          6           0       -5.279223   -4.359777    0.185803
     40          8           0       -5.060009   -5.563102    0.018586
     41          6           0       -4.190930   -3.240975    0.515099
     42          6           0       -3.486263   -3.597625    1.864067
     43          8           0       -3.642429   -3.048720    2.900311
     44          8           0       -2.695962   -4.770734    1.677231
     45          6           0       -2.060098   -5.164354    2.840558
     46          6           0        2.758576   -0.659433   -1.175081
     47          6           0        4.074039   -0.447800   -0.517203
     48          6           0        5.107799    0.326180   -0.902312
     49          6           0        5.032043    1.141048   -2.125660
     50          6           0        6.418116    0.466855   -0.083043
     51          6           0        7.605956   -0.045016   -0.895192
     52          6           0        8.912445   -0.094102    0.012546
     53          6           0       10.180887   -0.462571   -0.775331
     54          6           0        9.996095   -1.979551   -1.207054
     55          6           0       11.448778   -0.427240    0.080246
     56          6           0       12.784218   -0.601928   -0.666207
     57          6           0       13.971393   -0.108103    0.198937
     58          6           0       15.405582   -0.254035   -0.506521
     59          6           0       15.675412   -1.785513   -0.787243
     60          6           0       16.585804    0.328261    0.393916
     61          6           0       17.961104    0.600867   -0.354702
     62          6           0       18.866039    1.349714    0.614281
     63          6           0       20.280329    1.462185    0.135358
     64          6           0       20.378535    2.134813   -1.209460
     65          6           0       21.145995    2.108686    1.193513
     66          1           0       -4.203894    3.555042    1.487730
     67          1           0      -10.143280    3.839333   -0.735115
     68          1           0      -10.186977   -2.516533   -1.189701
     69          1           0       -2.762784   -0.949780    2.232400
     70          1           0       -2.255055    1.583478    1.122028
     71          1           0       -2.010955    0.959013    3.665908
     72          1           0       -3.123499    2.316910    3.404807
     73          1           0       -3.741092    0.819787    3.719414
     74          1           0       -1.952465   -1.771063   -0.115529
     75          1           0       -2.234069   -0.161496   -0.735994
     76          1           0       -0.461522    0.901134    0.878007
     77          1           0        0.132813   -0.664252    1.463510
     78          1           0       -4.922745    6.142475    0.658827
     79          1           0       -6.561980    6.762434    1.333466
     80          1           0       -5.372656    5.750963    2.354028
     81          1           0       -9.843206    5.756542    0.358096
     82          1           0       -9.099501    8.047710   -0.146339
     83          1           0       -7.396555    7.348204   -0.250260
     84          1           0      -12.136346    3.136973   -2.306623
     85          1           0      -13.359534    1.793281   -1.496082
     86          1           0      -12.649953    2.990676   -0.529680
     87          1           0      -12.708449   -1.609418   -1.306250
     88          1           0      -13.325730   -0.223468   -1.802462
     89          1           0      -13.034334   -1.588129   -3.651746
     90          1           0      -11.923320   -0.259953   -3.661841
     91          1           0      -11.151429   -1.484558   -3.463159
     92          1           0       -9.404602   -4.645529   -1.879182
     93          1           0       -7.983797   -5.745921   -1.085261
     94          1           0       -9.306603   -5.082135   -0.028192
     95          1           0       -3.303393   -3.435489   -0.143660
     96          1           0       -1.517189   -4.209026    3.348933
     97          1           0       -2.897749   -5.561331    3.527086
     98          1           0       -1.347037   -6.052670    2.697680
     99          1           0        2.535037   -1.813449   -1.378253
    100          1           0        2.533967    0.016634   -2.160776
    101          1           0        4.478271   -0.852440    0.338443
    102          1           0        3.916797    1.094832   -2.510567
    103          1           0        5.360259    2.032574   -1.764123
    104          1           0        5.628053    0.754595   -2.930099
    105          1           0        6.553025    1.436339    0.220545
    106          1           0        6.468592   -0.226336    0.752974
    107          1           0        7.445622   -1.060263   -1.042224
    108          1           0        8.056987    0.422934   -1.809531
    109          1           0        8.992551    0.953545    0.428901
    110          1           0        8.927329   -0.962703    0.720926
    111          1           0       10.299455    0.305642   -1.744416
    112          1           0        8.889963   -2.038169   -1.698098
    113          1           0       10.858005   -2.613759   -1.648617
    114          1           0        9.768381   -2.750063   -0.323080
    115          1           0       11.472197    0.614689    0.565233
    116          1           0       11.419762   -1.346199    0.803043
    117          1           0       13.061451   -1.717579   -0.745477
    118          1           0       12.614768    0.100522   -1.573915
    119          1           0       13.768329    0.917305    0.525666
    120          1           0       13.973945   -0.506563    1.247293
    121          1           0       15.411040    0.380285   -1.564049
    122          1           0       15.770593   -2.294274    0.147563
    123          1           0       14.888544   -2.350797   -1.343097
    124          1           0       16.704679   -1.964323   -1.254012
    125          1           0       16.252425    1.352209    0.582511
    126          1           0       16.520198   -0.369123    1.195778
    127          1           0       18.448999   -0.355351   -0.692570
    128          1           0       17.633431    1.189025   -1.311181
    129          1           0       18.268848    2.184167    0.958841
    130          1           0       19.055301    0.569892    1.542721
    131          1           0       20.701947    0.470723   -0.012392
    132          1           0       20.123205    3.217164   -1.396427
    133          1           0       21.358528    2.162045   -1.524131
    134          1           0       19.808091    1.623921   -1.906194
    135          1           0       21.100385    1.551738    2.121445
    136          1           0       22.159581    2.228852    0.839785
    137          1           0       20.681937    3.083777    1.478226
 ---------------------------------------------------------------------

 SCF Done:  E(RCAM-B3LYP) =  -2932.71249292     A.U. after   15 cycles

 Excitation energies and oscillator strengths:

 Excited State   1:      Singlet-A      1.8928 eV  655.04 nm  f=0.3262  <S**2>=0.000
     240 -> 243       -0.16039
     241 -> 242        0.67829
 This state for optimization and/or second-order correction.
 Total Energy, E(TD-HF/TD-KS) =  -2932.64293527
 Copying the excited state density for this state as the 1-particle RhoCI density.

 The electronic state is 1-A.
 Alpha  occ. eigenvalues --  -46.84601 -19.27344 -19.25330 -19.22409 -19.20809
 Alpha  occ. eigenvalues --  -19.19503 -14.41032 -14.40027 -14.39411 -14.39138
 Alpha  occ. eigenvalues --  -10.39631 -10.38058 -10.35622 -10.34286 -10.31880
 Alpha  occ. eigenvalues --  -10.30675 -10.30179 -10.29905 -10.29505 -10.29500
 Alpha  occ. eigenvalues --  -10.29473 -10.29003 -10.28913 -10.28836 -10.28753
 Alpha  occ. eigenvalues --  -10.28671 -10.28191 -10.28112 -10.27854 -10.27809
 Alpha  occ. eigenvalues --  -10.27613 -10.27548 -10.27454 -10.27452 -10.27154
 Alpha  occ. eigenvalues --  -10.27042 -10.26876 -10.26840 -10.26795 -10.26593
 Alpha  occ. eigenvalues --  -10.26459 -10.26456 -10.26311 -10.26305 -10.26289
 Alpha  occ. eigenvalues --  -10.26228 -10.26184 -10.25984 -10.25950 -10.25942
 Alpha  occ. eigenvalues --  -10.25736 -10.25671 -10.25662 -10.25535 -10.25297
 Alpha  occ. eigenvalues --  -10.25107 -10.24925 -10.24899 -10.24887 -10.24805
 Alpha  occ. eigenvalues --  -10.24788 -10.24436 -10.23839 -10.23451 -10.22695
 Alpha  occ. eigenvalues --   -3.13627  -1.88338  -1.87863  -1.87804  -1.23235
 Alpha  occ. eigenvalues --   -1.17953  -1.10731  -1.10256  -1.10106  -1.05605
 Alpha  occ. eigenvalues --   -1.04539  -1.03472  -1.01960  -0.92707  -0.92025
 Alpha  occ. eigenvalues --   -0.90345  -0.89893  -0.89251  -0.89146  -0.88611
 Alpha  occ. eigenvalues --   -0.88153  -0.87914  -0.87673  -0.87540  -0.86280
 Alpha  occ. eigenvalues --   -0.85034  -0.84357  -0.84089  -0.83261  -0.82891
 Alpha  occ. eigenvalues --   -0.81974  -0.81355  -0.80058  -0.79947  -0.78312
 Alpha  occ. eigenvalues --   -0.78129  -0.76823  -0.76744  -0.76243  -0.75149
 Alpha  occ. eigenvalues --   -0.74568  -0.74171  -0.74122  -0.73486  -0.72465
 Alpha  occ. eigenvalues --   -0.71507  -0.71137  -0.70104  -0.69110  -0.68348
 Alpha  occ. eigenvalues --   -0.66906  -0.66435  -0.65122  -0.64933  -0.64349
 Alpha  occ. eigenvalues --   -0.63976  -0.63397  -0.62946  -0.61738  -0.61729
 Alpha  occ. eigenvalues --   -0.60935  -0.60673  -0.60149  -0.59605  -0.59239
 Alpha  occ. eigenvalues --   -0.58921  -0.58535  -0.58281  -0.57747  -0.56730
 Alpha  occ. eigenvalues --   -0.56420  -0.55891  -0.55591  -0.55111  -0.55094
 Alpha  occ. eigenvalues --   -0.54791  -0.54593  -0.54141  -0.53812  -0.53502
 Alpha  occ. eigenvalues --   -0.52858  -0.52616  -0.52550  -0.52395  -0.51764
 Alpha  occ. eigenvalues --   -0.51597  -0.51378  -0.51043  -0.50956  -0.50565
 Alpha  occ. eigenvalues --   -0.50388  -0.50228  -0.49978  -0.49958  -0.49664
 Alpha  occ. eigenvalues --   -0.49474  -0.49259  -0.49031  -0.48909  -0.48638
 Alpha  occ. eigenvalues --   -0.48547  -0.48408  -0.47909  -0.47751  -0.47252
 Alpha  occ. eigenvalues --   -0.46971  -0.46843  -0.46614  -0.46294  -0.46057
 Alpha  occ. eigenvalues --   -0.45857  -0.45641  -0.45583  -0.45079  -0.44816
 Alpha  occ. eigenvalues --   -0.44739  -0.44364  -0.44185  -0.44035  -0.43950
 Alpha  occ. eigenvalues --   -0.43916  -0.43826  -0.43772  -0.43599  -0.43475
 Alpha  occ. eigenvalues --   -0.43266  -0.43032  -0.42877  -0.42812  -0.42598
 Alpha  occ. eigenvalues --   -0.42233  -0.42142  -0.41954  -0.41742  -0.41460
 Alpha  occ. eigenvalues --   -0.41247  -0.40753  -0.40138  -0.40122  -0.40034
 Alpha  occ. eigenvalues --   -0.39920  -0.39645  -0.39299  -0.39179  -0.39092
 Alpha  occ. eigenvalues --   -0.38729  -0.38653  -0.38359  -0.38121  -0.37830
 Alpha  occ. eigenvalues --   -0.37396  -0.37366  -0.37179  -0.37075  -0.36579
 Alpha  occ. eigenvalues --   -0.36371  -0.36217  -0.35746  -0.35491  -0.35395
 Alpha  occ. eigenvalues --   -0.34863  -0.34856  -0.34754  -0.34267  -0.33547
 Alpha  occ. eigenvalues --   -0.33380  -0.32839  -0.32171  -0.31331  -0.30644
 Alpha  occ. eigenvalues --   -0.29798  -0.29739  -0.28852  -0.27075  -0.24598
 Alpha  occ. eigenvalues --   -0.20074
 Alpha virt. eigenvalues --   -0.06722  -0.02622   0.01212   0.04162   0.05689
 Alpha virt. eigenvalues --    0.06061   0.06642   0.06753   0.06810   0.08301
 Alpha virt. eigenvalues --    0.09097   0.10815   0.11044   0.11521   0.11671

 Mulliken charges:
               1
     1  Mg   0.817976
     2  C    0.096256
     3  C   -0.175929
     4  C   -0.179596
     5  C   -0.181135
     6  N   -0.635908
     7  C    0.298912
     8  C   -0.184492
     9  C   -0.133222
    10  C    0.316458
    11  C   -0.292056
    12  C   -0.160308
    13  C   -0.275741
    14  C    0.585223
    15  O   -0.482512
    16  O   -0.391606
    17  N   -0.738656
    18  C    0.309725
    19  C    0.020923
    20  C   -0.021199
    21  C    0.301109
    22  C   -0.371001
    23  C   -0.107278
    24  C   -0.242659
    25  N   -0.675051
    26  C    0.341827
    27  C    0.057801
    28  C   -0.027047
    29  C    0.259008
    30  C   -0.390645
    31  C   -0.201572
    32  C   -0.324880
    33  N   -0.710140
    34  C    0.292539
    35  C    0.067721
    36  C   -0.008836
    37  C    0.309851
    38  C   -0.389396
    39  C    0.381784
    40  O   -0.459402
    41  C   -0.358776
    42  C    0.606301
    43  O   -0.430681
    44  O   -0.456877
    45  C   -0.070007
    46  C   -0.014468
    47  C   -0.090771
    48  C    0.073076
    49  C   -0.336812
    50  C   -0.230420
    51  C   -0.184617
    52  C   -0.176013
    53  C   -0.052269
    54  C   -0.321194
    55  C   -0.156057
    56  C   -0.161091
    57  C   -0.186279
    58  C   -0.059912
    59  C   -0.321055
    60  C   -0.171351
    61  C   -0.185565
    62  C   -0.139930
    63  C   -0.058517
    64  C   -0.316296
    65  C   -0.303915
    66  H    0.065225
    67  H    0.096171
    68  H    0.089460
    69  H    0.130600
    70  H    0.101239
    71  H    0.082125
    72  H    0.120753
    73  H    0.132347
    74  H    0.121504
    75  H    0.126851
    76  H    0.115029
    77  H    0.131022
    78  H    0.121415
    79  H    0.121120
    80  H    0.122890
    81  H    0.086250
    82  H    0.112871
    83  H    0.108878
    84  H    0.095802
    85  H    0.100322
    86  H    0.126976
    87  H    0.109457
    88  H    0.103621
    89  H    0.103733
    90  H    0.117444
    91  H    0.116465
    92  H    0.088561
    93  H    0.143492
    94  H    0.143256
    95  H    0.165284
    96  H    0.098058
    97  H    0.110449
    98  H    0.117398
    99  H    0.128499
   100  H    0.122307
   101  H    0.073270
   102  H    0.082152
   103  H    0.118131
   104  H    0.129484
   105  H    0.114635
   106  H    0.108663
   107  H    0.114501
   108  H    0.100146
   109  H    0.084304
   110  H    0.094860
   111  H    0.056397
   112  H    0.086358
   113  H    0.110655
   114  H    0.081597
   115  H    0.076961
   116  H    0.080995
   117  H    0.095426
   118  H    0.090969
   119  H    0.083729
   120  H    0.083212
   121  H    0.052603
   122  H    0.103063
   123  H    0.102685
   124  H    0.093540
   125  H    0.093298
   126  H    0.098779
   127  H    0.088913
   128  H    0.087671
   129  H    0.097283
   130  H    0.062308
   131  H    0.093696
   132  H    0.087450
   133  H    0.100971
   134  H    0.109676
   135  H    0.098117
   136  H    0.098084
   137  H    0.095193
 Sum of Mulliken charges =   0.00000

 Dipole moment (field-independent basis, Debye):
    X=              1.7704    Y=              4.0593    Z=              0.6116  Tot=              4.4706
 Quadrupole moment (field-independent basis, Debye-Ang):
   XX=           -331.2761   YY=           -399.1360   ZZ=           -402.1031
   XY=            -17.5744   XZ=             13.7035   YZ=             -4.0992

 Normal termination of Gaussian 09 at Thu Jun 27 00:45:27 2019.
