 Gaussian 09, Revision D.01,
 Gaussian 09:  ES64L-G09RevD.01 24-Apr-2013

 -------------------------------------
 # td=(NStates=1) CAM-B3LYP/6-31G(d,p)
 -------------------------------------

 --
 TD
 --
 Symbolic Z-matrix:
 Charge =  0 Multiplicity = 1

                         Standard orientation:
 ---------------------------------------------------------------------
 Center     Atomic      Atomic             Coordinates (Angstroms)
 Number     Number       Type             X           Y           Z
 ---------------------------------------------------------------------
      1         12           0       -7.118709    0.644585    0.093380
      2          6           0       -4.794847   -1.995986    0.569915
      3          6           0       -4.831915    2.753526    1.124561
      4          6           0       -9.440688    3.072719   -0.355517
      5          6           0       -9.550444   -1.732991   -0.889082
      6          7           0       -5.105221    0.353187    0.720467
      7          6           0       -4.326955   -0.744273    0.837334
      8          6           0       -2.826422   -0.485386    1.305621
      9          6           0       -2.953442    1.104390    1.705546
     10          6           0       -4.332165    1.395738    1.077936
     11          6           0       -2.862200    1.304796    3.202147
     12          6           0       -1.916745   -0.659821    0.056351
     13          6           0       -0.435156   -0.519387    0.576526
     14          6           0        0.532582   -0.792078   -0.586041
     15          8           0        0.205543   -1.071080   -1.706483
     16          8           0        1.784539   -0.547226   -0.226506
     17          7           0       -7.158271    2.573914    0.418045
     18          6           0       -6.040247    3.236508    0.770795
     19          6           0       -6.490762    4.740474    0.829329
     20          6           0       -7.820385    4.790882    0.483225
     21          6           0       -8.125846    3.489885    0.252045
     22          6           0       -5.635196    5.813020    1.500675
     23          6           0       -8.620613    5.924578    0.489754
     24          6           0       -8.312368    7.233120    0.153019
     25          7           0       -9.085389    0.660027   -0.534815
     26          6           0       -9.860704    1.816470   -0.601435
     27          6           0      -11.231145    1.433559   -1.170250
     28          6           0      -11.257159    0.060982   -1.274880
     29          6           0      -10.001690   -0.443036   -0.840527
     30          6           0      -12.256494    2.560296   -1.439808
     31          6           0      -12.379514   -0.825481   -1.850366
     32          6           0      -12.293021   -0.949764   -3.327123
     33          7           0       -7.216559   -1.381713   -0.123792
     34          6           0       -8.283819   -2.203964   -0.498480
     35          6           0       -7.830572   -3.560426   -0.466043
     36          6           0       -6.425073   -3.567215   -0.126347
     37          6           0       -6.126143   -2.161574    0.151153
     38          6           0       -8.574818   -4.791221   -0.901388
     39          6           0       -5.272653   -4.383238    0.134812
     40          8           0       -5.104777   -5.546933    0.022049
     41          6           0       -4.114736   -3.320025    0.630775
     42          6           0       -3.503698   -3.723344    1.976282
     43          8           0       -3.628003   -3.084477    2.971029
     44          8           0       -2.712215   -4.793898    1.740263
     45          6           0       -2.060317   -5.347707    2.969270
     46          6           0        2.785125   -0.616464   -1.346190
     47          6           0        4.062829   -0.520068   -0.692730
     48          6           0        5.069041    0.364523   -0.994398
     49          6           0        4.963906    1.384826   -2.222657
     50          6           0        6.405904    0.524003   -0.223375
     51          6           0        7.638465    0.124687   -1.001279
     52          6           0        8.987324   -0.004766   -0.194261
     53          6           0       10.339854   -0.305667   -0.931552
     54          6           0       10.063981   -1.786186   -1.559484
     55          6           0       11.501386   -0.146957    0.062725
     56          6           0       12.776290   -0.584533   -0.725836
     57          6           0       13.957175   -0.165341    0.263659
     58          6           0       15.280109   -0.248418   -0.500666
     59          6           0       15.593629   -1.789928   -0.781879
     60          6           0       16.400727    0.320315    0.432565
     61          6           0       17.748890    0.504416   -0.145969
     62          6           0       18.675398    1.282062    0.750154
     63          6           0       20.177414    1.330125    0.162238
     64          6           0       20.189720    2.224053   -1.097936
     65          6           0       21.110690    1.902256    1.303516
     66          1           0       -4.061443    3.438668    1.371986
     67          1           0      -10.088371    3.925539   -0.382612
     68          1           0      -10.310194   -2.637526   -0.952456
     69          1           0       -2.623013   -1.146182    2.215591
     70          1           0       -1.937128    1.573553    1.104027
     71          1           0       -1.836522    1.017849    3.582607
     72          1           0       -3.216427    2.280258    3.494506
     73          1           0       -3.528415    0.492621    3.767494
     74          1           0       -1.984649   -1.564912   -0.534803
     75          1           0       -2.220977    0.270796   -0.699091
     76          1           0       -0.360926    0.517129    1.036867
     77          1           0       -0.396168   -1.051917    1.620910
     78          1           0       -5.159582    6.309662    0.722646
     79          1           0       -6.164343    6.763586    1.776887
     80          1           0       -4.903388    5.673917    2.174416
     81          1           0       -9.691217    5.910023    0.636245
     82          1           0       -9.090473    7.989394    0.342205
     83          1           0       -7.275616    7.638960    0.079053
     84          1           0      -11.879164    3.416076   -2.105397
     85          1           0      -13.090146    1.871518   -1.670843
     86          1           0      -12.426296    2.915649   -0.308764
     87          1           0      -12.389504   -1.860325   -1.384167
     88          1           0      -13.338846   -0.268899   -1.837202
     89          1           0      -13.178972   -1.414872   -3.719194
     90          1           0      -12.308910    0.107318   -3.555435
     91          1           0      -11.337366   -1.447690   -3.820568
     92          1           0       -8.730008   -4.835478   -1.985390
     93          1           0       -7.827820   -5.779402   -0.591505
     94          1           0       -9.511919   -5.078634   -0.469827
     95          1           0       -3.273698   -3.352740   -0.036491
     96          1           0       -1.200586   -4.724554    3.425037
     97          1           0       -2.926150   -5.345825    3.838573
     98          1           0       -1.722582   -6.420767    2.641589
     99          1           0        2.725053   -1.567332   -1.935666
    100          1           0        2.439610    0.216657   -1.993428
    101          1           0        4.468764   -1.122998    0.199730
    102          1           0        3.996618    1.044171   -2.747090
    103          1           0        5.024946    2.263021   -1.988777
    104          1           0        5.865736    1.105431   -2.810004
    105          1           0        6.371587    1.649909    0.169579
    106          1           0        6.001372   -0.163292    0.696200
    107          1           0        7.468322   -0.897344   -1.479219
    108          1           0        7.894564    0.960576   -1.771923
    109          1           0        9.185158    0.960066    0.316256
    110          1           0        9.106995   -0.717221    0.660923
    111          1           0       10.505181    0.394898   -1.786393
    112          1           0        9.145995   -1.845590   -2.086189
    113          1           0       10.802247   -2.114704   -2.150424
    114          1           0       10.234821   -2.518079   -0.718926
    115          1           0       11.474203    1.144767    0.256689
    116          1           0       11.319700   -0.809320    0.878785
    117          1           0       12.802309   -1.745815   -0.782686
    118          1           0       12.939528   -0.157902   -1.797722
    119          1           0       13.901528    0.887352    0.594475
    120          1           0       13.898146   -0.699983    1.187690
    121          1           0       15.238908    0.318951   -1.249103
    122          1           0       15.292192   -2.367322    0.168561
    123          1           0       14.923560   -1.971569   -1.728470
    124          1           0       16.680461   -1.999512   -1.066721
    125          1           0       16.109758    1.262431    0.854370
    126          1           0       16.444834   -0.333721    1.360368
    127          1           0       18.368610   -0.497111   -0.441657
    128          1           0       17.544080    0.847017   -1.101434
    129          1           0       18.341303    2.295128    1.206930
    130          1           0       18.696707    0.808425    1.703283
    131          1           0       20.650429    0.487574   -0.075072
    132          1           0       19.884264    3.311499   -0.998555
    133          1           0       21.192011    2.087369   -1.406467
    134          1           0       19.425005    1.801807   -1.666303
    135          1           0       20.901859    1.061528    2.156367
    136          1           0       22.106056    1.808266    0.976175
    137          1           0       20.805380    2.903394    1.577673
 ---------------------------------------------------------------------

 SCF Done:  E(RCAM-B3LYP) =  -2932.63760446     A.U. after   17 cycles

 Excitation energies and oscillator strengths:

 Excited State   1:      Singlet-A      1.9028 eV  651.60 nm  f=0.2952  <S**2>=0.000
     240 -> 243       -0.21019
     241 -> 242        0.67344
 This state for optimization and/or second-order correction.
 Total Energy, E(TD-HF/TD-KS) =  -2932.56767864
 Copying the excited state density for this state as the 1-particle RhoCI density.

 The electronic state is 1-A.
 Alpha  occ. eigenvalues --  -46.83790 -19.26717 -19.26132 -19.21319 -19.20887
 Alpha  occ. eigenvalues --  -19.19757 -14.43059 -14.39825 -14.38838 -14.38765
 Alpha  occ. eigenvalues --  -10.39224 -10.39031 -10.34304 -10.34135 -10.32898
 Alpha  occ. eigenvalues --  -10.32066 -10.30359 -10.30216 -10.29936 -10.29762
 Alpha  occ. eigenvalues --  -10.28859 -10.28817 -10.28758 -10.28709 -10.28694
 Alpha  occ. eigenvalues --  -10.28342 -10.28336 -10.28223 -10.28129 -10.28129
 Alpha  occ. eigenvalues --  -10.28005 -10.27919 -10.27582 -10.27565 -10.27528
 Alpha  occ. eigenvalues --  -10.27451 -10.27285 -10.27250 -10.27148 -10.27089
 Alpha  occ. eigenvalues --  -10.27034 -10.26972 -10.26617 -10.26570 -10.26515
 Alpha  occ. eigenvalues --  -10.26395 -10.26207 -10.26190 -10.26190 -10.26056
 Alpha  occ. eigenvalues --  -10.26031 -10.25523 -10.25230 -10.25225 -10.25045
 Alpha  occ. eigenvalues --  -10.24949 -10.24895 -10.24767 -10.24746 -10.24658
 Alpha  occ. eigenvalues --  -10.24430 -10.24357 -10.24132 -10.23888 -10.23303
 Alpha  occ. eigenvalues --   -3.12980  -1.87668  -1.87221  -1.87170  -1.18526
 Alpha  occ. eigenvalues --   -1.17881  -1.12198  -1.10096  -1.09341  -1.05570
 Alpha  occ. eigenvalues --   -1.04723  -1.01566  -0.99705  -0.91921  -0.90905
 Alpha  occ. eigenvalues --   -0.90714  -0.90432  -0.89218  -0.88983  -0.88848
 Alpha  occ. eigenvalues --   -0.87760  -0.87673  -0.86714  -0.85734  -0.85403
 Alpha  occ. eigenvalues --   -0.84452  -0.83755  -0.83280  -0.83066  -0.82358
 Alpha  occ. eigenvalues --   -0.81458  -0.80753  -0.80389  -0.79334  -0.79133
 Alpha  occ. eigenvalues --   -0.77339  -0.76961  -0.76285  -0.75596  -0.75223
 Alpha  occ. eigenvalues --   -0.74943  -0.74171  -0.73968  -0.72918  -0.71823
 Alpha  occ. eigenvalues --   -0.70708  -0.69611  -0.68694  -0.68284  -0.67954
 Alpha  occ. eigenvalues --   -0.67275  -0.66162  -0.65124  -0.64601  -0.64561
 Alpha  occ. eigenvalues --   -0.64137  -0.63610  -0.63369  -0.63073  -0.62372
 Alpha  occ. eigenvalues --   -0.61684  -0.60847  -0.60401  -0.59571  -0.58658
 Alpha  occ. eigenvalues --   -0.58180  -0.57856  -0.57193  -0.56694  -0.56511
 Alpha  occ. eigenvalues --   -0.55442  -0.55348  -0.55148  -0.54670  -0.54161
 Alpha  occ. eigenvalues --   -0.53949  -0.53606  -0.53465  -0.53196  -0.53064
 Alpha  occ. eigenvalues --   -0.52554  -0.52015  -0.51684  -0.51592  -0.51316
 Alpha  occ. eigenvalues --   -0.51243  -0.51152  -0.51073  -0.50597  -0.50440
 Alpha  occ. eigenvalues --   -0.50239  -0.50038  -0.49680  -0.49390  -0.49224
 Alpha  occ. eigenvalues --   -0.49076  -0.48770  -0.48670  -0.48435  -0.48221
 Alpha  occ. eigenvalues --   -0.48070  -0.47914  -0.47678  -0.47566  -0.47471
 Alpha  occ. eigenvalues --   -0.47222  -0.46703  -0.46361  -0.45951  -0.45677
 Alpha  occ. eigenvalues --   -0.45539  -0.45250  -0.45176  -0.45033  -0.44828
 Alpha  occ. eigenvalues --   -0.44606  -0.44509  -0.44422  -0.44271  -0.44164
 Alpha  occ. eigenvalues --   -0.44090  -0.43858  -0.43716  -0.43578  -0.43220
 Alpha  occ. eigenvalues --   -0.42953  -0.42803  -0.42519  -0.42473  -0.42313
 Alpha  occ. eigenvalues --   -0.42109  -0.41986  -0.41783  -0.41700  -0.41182
 Alpha  occ. eigenvalues --   -0.41065  -0.40829  -0.40806  -0.40787  -0.40625
 Alpha  occ. eigenvalues --   -0.40345  -0.39850  -0.39587  -0.39300  -0.39111
 Alpha  occ. eigenvalues --   -0.39011  -0.38627  -0.38233  -0.38054  -0.37592
 Alpha  occ. eigenvalues --   -0.37472  -0.37405  -0.36710  -0.36597  -0.36497
 Alpha  occ. eigenvalues --   -0.36097  -0.36058  -0.35617  -0.35576  -0.35515
 Alpha  occ. eigenvalues --   -0.34907  -0.34851  -0.34728  -0.34209  -0.34080
 Alpha  occ. eigenvalues --   -0.32490  -0.32327  -0.31707  -0.31246  -0.29803
 Alpha  occ. eigenvalues --   -0.29105  -0.28504  -0.27870  -0.27400  -0.23064
 Alpha  occ. eigenvalues --   -0.20422
 Alpha virt. eigenvalues --   -0.06782  -0.02193   0.01400   0.03437   0.05440
 Alpha virt. eigenvalues --    0.06078   0.06099   0.06486   0.06805   0.07191
 Alpha virt. eigenvalues --    0.08954   0.10343   0.11026   0.11181   0.11344

 Mulliken charges:
               1
     1  Mg   0.819880
     2  C    0.079299
     3  C   -0.209759
     4  C   -0.199646
     5  C   -0.185048
     6  N   -0.602288
     7  C    0.283607
     8  C   -0.169333
     9  C   -0.128559
    10  C    0.326922
    11  C   -0.302695
    12  C   -0.160103
    13  C   -0.283097
    14  C    0.624489
    15  O   -0.471020
    16  O   -0.477410
    17  N   -0.721666
    18  C    0.334673
    19  C   -0.032327
    20  C    0.124983
    21  C    0.256994
    22  C   -0.387808
    23  C   -0.119346
    24  C   -0.244211
    25  N   -0.676981
    26  C    0.343627
    27  C   -0.025205
    28  C    0.047344
    29  C    0.275158
    30  C   -0.348266
    31  C   -0.237646
    32  C   -0.288909
    33  N   -0.740716
    34  C    0.296084
    35  C   -0.001520
    36  C    0.012762
    37  C    0.290822
    38  C   -0.391835
    39  C    0.353297
    40  O   -0.434480
    41  C   -0.347711
    42  C    0.625302
    43  O   -0.458255
    44  O   -0.453937
    45  C   -0.090263
    46  C   -0.004704
    47  C   -0.108046
    48  C    0.054611
    49  C   -0.326155
    50  C   -0.199657
    51  C   -0.168379
    52  C   -0.168005
    53  C   -0.075610
    54  C   -0.320647
    55  C   -0.149164
    56  C   -0.190169
    57  C   -0.175203
    58  C   -0.048893
    59  C   -0.301602
    60  C   -0.188095
    61  C   -0.157237
    62  C   -0.176905
    63  C   -0.073930
    64  C   -0.297146
    65  C   -0.305055
    66  H    0.085862
    67  H    0.074714
    68  H    0.094559
    69  H    0.133381
    70  H    0.082046
    71  H    0.110526
    72  H    0.118652
    73  H    0.116190
    74  H    0.136443
    75  H    0.091983
    76  H    0.126678
    77  H    0.126745
    78  H    0.133828
    79  H    0.114064
    80  H    0.129212
    81  H    0.102892
    82  H    0.102657
    83  H    0.092811
    84  H    0.135367
    85  H    0.112694
    86  H    0.115597
    87  H    0.100338
    88  H    0.105180
    89  H    0.106478
    90  H    0.106411
    91  H    0.096957
    92  H    0.130404
    93  H    0.111404
    94  H    0.122025
    95  H    0.160513
    96  H    0.127437
    97  H    0.125775
    98  H    0.135683
    99  H    0.143334
   100  H    0.139292
   101  H    0.089923
   102  H    0.088992
   103  H    0.124138
   104  H    0.112956
   105  H    0.096662
   106  H    0.077283
   107  H    0.105113
   108  H    0.097960
   109  H    0.075392
   110  H    0.084513
   111  H    0.076347
   112  H    0.109189
   113  H    0.107908
   114  H    0.086544
   115  H    0.067645
   116  H    0.105999
   117  H    0.099790
   118  H    0.091439
   119  H    0.085121
   120  H    0.095920
   121  H    0.086670
   122  H    0.100280
   123  H    0.088922
   124  H    0.098874
   125  H    0.087615
   126  H    0.072723
   127  H    0.065037
   128  H    0.099562
   129  H    0.076857
   130  H    0.094640
   131  H    0.099457
   132  H    0.090490
   133  H    0.097710
   134  H    0.107443
   135  H    0.073001
   136  H    0.101053
   137  H    0.107484
 Sum of Mulliken charges =   0.00000

 Dipole moment (field-independent basis, Debye):
    X=              3.2948    Y=              5.0073    Z=              1.2838  Tot=              6.1300
 Quadrupole moment (field-independent basis, Debye-Ang):
   XX=           -357.8334   YY=           -391.0552   ZZ=           -398.9957
   XY=            -28.6347   XZ=             -0.1687   YZ=             -3.7505

 Normal termination of Gaussian 09 at Sun Jun 30 02:27:36 2019.
