 Gaussian 09, Revision D.01,
 Gaussian 09:  ES64L-G09RevD.01 24-Apr-2013

 -------------------------------------
 # td=(NStates=1) CAM-B3LYP/6-31G(d,p)
 -------------------------------------

 --
 TD
 --
 Symbolic Z-matrix:
 Charge =  0 Multiplicity = 1

                         Standard orientation:
 ---------------------------------------------------------------------
 Center     Atomic      Atomic             Coordinates (Angstroms)
 Number     Number       Type             X           Y           Z
 ---------------------------------------------------------------------
      1         12           0       -7.075660    0.596254    0.137168
      2          6           0       -4.787982   -2.029440    0.356376
      3          6           0       -4.706811    2.786512    1.165891
      4          6           0       -9.399994    3.140002   -0.333443
      5          6           0       -9.565605   -1.639471   -0.828901
      6          7           0       -5.084368    0.379246    0.700172
      7          6           0       -4.267127   -0.769485    0.728577
      8          6           0       -2.933483   -0.458624    1.226945
      9          6           0       -2.963847    1.012076    1.712901
     10          6           0       -4.335589    1.429257    1.104717
     11          6           0       -2.898424    1.157126    3.174017
     12          6           0       -1.919576   -0.636775    0.038053
     13          6           0       -0.465901   -0.503887    0.510136
     14          6           0        0.475425   -0.627079   -0.655618
     15          8           0        0.184753   -0.900031   -1.762178
     16          8           0        1.708984   -0.449998   -0.171807
     17          7           0       -7.060676    2.533437    0.292360
     18          6           0       -5.989226    3.320328    0.788047
     19          6           0       -6.325835    4.743510    0.850272
     20          6           0       -7.667750    4.824972    0.415124
     21          6           0       -8.082805    3.461469    0.000610
     22          6           0       -5.417434    5.778857    1.409837
     23          6           0       -8.569008    5.947311    0.285819
     24          6           0       -8.233014    7.319608    0.366783
     25          7           0       -9.110074    0.670885   -0.594399
     26          6           0       -9.801419    1.863550   -0.671904
     27          6           0      -11.195619    1.567401   -1.059941
     28          6           0      -11.264955    0.151649   -1.103434
     29          6           0       -9.971073   -0.303015   -0.897095
     30          6           0      -12.331265    2.496009   -1.261106
     31          6           0      -12.439081   -0.649963   -1.701888
     32          6           0      -12.236330   -1.030845   -3.194937
     33          7           0       -7.245945   -1.424574   -0.136521
     34          6           0       -8.319402   -2.254335   -0.564302
     35          6           0       -7.872477   -3.588504   -0.445685
     36          6           0       -6.566869   -3.575470   -0.098523
     37          6           0       -6.172907   -2.167357    0.098439
     38          6           0       -8.710127   -4.837555   -0.870811
     39          6           0       -5.416534   -4.368125    0.190675
     40          8           0       -5.287482   -5.595598    0.241218
     41          6           0       -4.220475   -3.311854    0.529246
     42          6           0       -3.599554   -3.703782    1.744933
     43          8           0       -3.678362   -3.045336    2.840734
     44          8           0       -2.809126   -4.767827    1.679156
     45          6           0       -2.376876   -5.334014    2.870226
     46          6           0        2.745465   -0.454977   -1.195221
     47          6           0        4.053533   -0.318594   -0.568574
     48          6           0        5.113020    0.441730   -0.935483
     49          6           0        4.986288    1.256854   -2.210898
     50          6           0        6.432714    0.425666   -0.177874
     51          6           0        7.641361   -0.056002   -0.993712
     52          6           0        8.920652   -0.153010   -0.170310
     53          6           0       10.165616   -0.445463   -0.874440
     54          6           0       10.186959   -1.960532   -1.382654
     55          6           0       11.412534   -0.265497   -0.043618
     56          6           0       12.721737   -0.500963   -0.741134
     57          6           0       13.909135   -0.176726    0.258675
     58          6           0       15.237309   -0.297059   -0.489410
     59          6           0       15.646749   -1.691171   -0.843933
     60          6           0       16.352608    0.325115    0.366513
     61          6           0       17.861253    0.482339   -0.152129
     62          6           0       18.814393    1.343917    0.717012
     63          6           0       20.244172    1.365686    0.253054
     64          6           0       20.504695    2.113636   -1.085308
     65          6           0       21.249440    1.741496    1.405814
     66          1           0       -3.998148    3.338511    1.564763
     67          1           0      -10.208994    3.800460   -0.508010
     68          1           0      -10.341336   -2.154818   -1.142766
     69          1           0       -2.774477   -1.267509    2.069849
     70          1           0       -2.020615    1.476627    1.377474
     71          1           0       -1.897792    1.062435    3.638226
     72          1           0       -3.058077    2.353061    3.572919
     73          1           0       -3.575985    0.383246    3.864845
     74          1           0       -2.029483   -1.694103   -0.378524
     75          1           0       -2.034404    0.154143   -0.763919
     76          1           0       -0.392567    0.515217    0.898269
     77          1           0       -0.122336   -1.166399    1.256956
     78          1           0       -4.782482    6.266406    0.709138
     79          1           0       -6.046169    6.376307    1.943123
     80          1           0       -4.882837    5.181549    2.369900
     81          1           0       -9.514742    5.550657    0.154687
     82          1           0       -8.929648    8.212924    0.310944
     83          1           0       -7.111402    7.587546    0.577919
     84          1           0      -11.971397    3.206083   -1.991241
     85          1           0      -13.152707    2.009408   -1.706525
     86          1           0      -12.679729    2.974569   -0.389966
     87          1           0      -12.557303   -1.602322   -1.203699
     88          1           0      -13.336610   -0.002676   -1.633960
     89          1           0      -12.915938   -1.841191   -3.484712
     90          1           0      -12.324004   -0.103865   -3.896506
     91          1           0      -11.156605   -1.337984   -3.450884
     92          1           0       -9.267664   -4.641691   -1.778255
     93          1           0       -8.102507   -5.759685   -0.855255
     94          1           0       -9.566745   -4.918442   -0.153637
     95          1           0       -3.528345   -3.408755   -0.355306
     96          1           0       -1.827482   -4.576466    3.381318
     97          1           0       -3.215766   -5.572476    3.469325
     98          1           0       -1.776885   -6.114497    2.490118
     99          1           0        2.473246   -1.543333   -1.635965
    100          1           0        2.509875    0.230910   -2.046553
    101          1           0        4.213058   -0.916402    0.356988
    102          1           0        4.104910    1.401291   -2.633303
    103          1           0        5.310923    2.303305   -2.180904
    104          1           0        5.771314    0.978975   -2.937277
    105          1           0        6.740272    1.471838    0.058123
    106          1           0        6.236276    0.009937    0.729661
    107          1           0        7.573593   -1.227804   -1.263216
    108          1           0        7.758073    0.697089   -1.731853
    109          1           0        9.169060    0.920940    0.335796
    110          1           0        8.834711   -0.708097    0.679879
    111          1           0       10.129242    0.332367   -1.746982
    112          1           0        9.436278   -2.316378   -1.810349
    113          1           0       11.148862   -2.179711   -1.867914
    114          1           0       10.273446   -2.609204   -0.358948
    115          1           0       11.319265    0.775119    0.321094
    116          1           0       11.156312   -0.670327    0.810449
    117          1           0       12.797231   -1.530232   -0.954419
    118          1           0       12.850262    0.052284   -1.570185
    119          1           0       13.746702    0.900655    0.367416
    120          1           0       13.977526   -0.846275    1.156407
    121          1           0       15.121612    0.174212   -1.451404
    122          1           0       15.809991   -2.180492    0.186072
    123          1           0       14.834553   -2.280686   -1.539323
    124          1           0       16.563505   -1.860061   -1.447165
    125          1           0       16.102563    1.462689    0.694286
    126          1           0       16.303780    0.107858    1.482168
    127          1           0       18.322655   -0.532403   -0.387541
    128          1           0       17.912901    0.974015   -1.187576
    129          1           0       18.167596    2.412475    0.949762
    130          1           0       18.917163    0.650609    1.709814
    131          1           0       20.305730    0.336308   -0.006162
    132          1           0       20.521898    3.245773   -0.944185
    133          1           0       21.616541    1.562370   -1.524417
    134          1           0       19.892586    1.839146   -1.827810
    135          1           0       21.440042    1.182183    2.450277
    136          1           0       22.354764    1.816446    0.994040
    137          1           0       20.943977    2.759653    1.621889
 ---------------------------------------------------------------------

 SCF Done:  E(RCAM-B3LYP) =  -2932.69389387     A.U. after   18 cycles

 Excitation energies and oscillator strengths:

 Excited State   1:      Singlet-A      1.9824 eV  625.42 nm  f=0.2458  <S**2>=0.000
     240 -> 243       -0.24339
     241 -> 242        0.65620
 This state for optimization and/or second-order correction.
 Total Energy, E(TD-HF/TD-KS) =  -2932.62104175
 Copying the excited state density for this state as the 1-particle RhoCI density.

 The electronic state is 1-A.
 Alpha  occ. eigenvalues --  -46.83690 -19.26160 -19.25795 -19.21175 -19.20406
 Alpha  occ. eigenvalues --  -19.19779 -14.41863 -14.40054 -14.39084 -14.38362
 Alpha  occ. eigenvalues --  -10.39078 -10.38327 -10.35411 -10.32633 -10.31262
 Alpha  occ. eigenvalues --  -10.30986 -10.30826 -10.29988 -10.29631 -10.29244
 Alpha  occ. eigenvalues --  -10.28972 -10.28584 -10.28350 -10.28211 -10.28191
 Alpha  occ. eigenvalues --  -10.28113 -10.28028 -10.28007 -10.27704 -10.27647
 Alpha  occ. eigenvalues --  -10.27505 -10.27488 -10.27435 -10.27187 -10.27148
 Alpha  occ. eigenvalues --  -10.27020 -10.26926 -10.26861 -10.26801 -10.26786
 Alpha  occ. eigenvalues --  -10.26639 -10.26638 -10.26586 -10.26463 -10.26458
 Alpha  occ. eigenvalues --  -10.26394 -10.26328 -10.26302 -10.26259 -10.26168
 Alpha  occ. eigenvalues --  -10.26123 -10.26102 -10.26045 -10.26006 -10.25833
 Alpha  occ. eigenvalues --  -10.25577 -10.25419 -10.24998 -10.24980 -10.24893
 Alpha  occ. eigenvalues --  -10.24867 -10.24779 -10.24180 -10.24158 -10.23487
 Alpha  occ. eigenvalues --   -3.12826  -1.87522  -1.87069  -1.87015  -1.19219
 Alpha  occ. eigenvalues --   -1.19023  -1.10806  -1.09957  -1.06342  -1.04114
 Alpha  occ. eigenvalues --   -1.03239  -1.02716  -1.01091  -0.93702  -0.92184
 Alpha  occ. eigenvalues --   -0.90970  -0.90126  -0.89748  -0.89217  -0.88732
 Alpha  occ. eigenvalues --   -0.88622  -0.87854  -0.87533  -0.86896  -0.86541
 Alpha  occ. eigenvalues --   -0.85608  -0.84884  -0.84010  -0.82880  -0.82557
 Alpha  occ. eigenvalues --   -0.82371  -0.81281  -0.80423  -0.80105  -0.78289
 Alpha  occ. eigenvalues --   -0.77836  -0.77345  -0.77192  -0.76705  -0.76005
 Alpha  occ. eigenvalues --   -0.75232  -0.75173  -0.74142  -0.73600  -0.73053
 Alpha  occ. eigenvalues --   -0.71087  -0.70674  -0.69226  -0.69165  -0.68737
 Alpha  occ. eigenvalues --   -0.67499  -0.66868  -0.65871  -0.65698  -0.65037
 Alpha  occ. eigenvalues --   -0.63924  -0.63765  -0.62857  -0.62608  -0.62503
 Alpha  occ. eigenvalues --   -0.61395  -0.60970  -0.60709  -0.59957  -0.59667
 Alpha  occ. eigenvalues --   -0.59124  -0.58562  -0.57586  -0.57430  -0.56969
 Alpha  occ. eigenvalues --   -0.56454  -0.56225  -0.56111  -0.55334  -0.54829
 Alpha  occ. eigenvalues --   -0.54600  -0.54503  -0.54081  -0.53769  -0.53461
 Alpha  occ. eigenvalues --   -0.53080  -0.52856  -0.52494  -0.52277  -0.52099
 Alpha  occ. eigenvalues --   -0.51866  -0.51437  -0.51063  -0.50867  -0.50594
 Alpha  occ. eigenvalues --   -0.50412  -0.50349  -0.50244  -0.49983  -0.49883
 Alpha  occ. eigenvalues --   -0.49603  -0.49460  -0.48877  -0.48579  -0.48468
 Alpha  occ. eigenvalues --   -0.48379  -0.47760  -0.47477  -0.47159  -0.47075
 Alpha  occ. eigenvalues --   -0.46686  -0.46491  -0.46377  -0.46161  -0.45873
 Alpha  occ. eigenvalues --   -0.45707  -0.45645  -0.45459  -0.45323  -0.45136
 Alpha  occ. eigenvalues --   -0.44875  -0.44871  -0.44574  -0.44445  -0.44205
 Alpha  occ. eigenvalues --   -0.43991  -0.43892  -0.43529  -0.43309  -0.43233
 Alpha  occ. eigenvalues --   -0.43040  -0.42616  -0.42498  -0.42390  -0.42177
 Alpha  occ. eigenvalues --   -0.42065  -0.41833  -0.41585  -0.41416  -0.41271
 Alpha  occ. eigenvalues --   -0.41137  -0.41077  -0.40804  -0.40581  -0.40358
 Alpha  occ. eigenvalues --   -0.39940  -0.39839  -0.39672  -0.39599  -0.39496
 Alpha  occ. eigenvalues --   -0.39239  -0.38906  -0.38862  -0.38222  -0.37828
 Alpha  occ. eigenvalues --   -0.37741  -0.37193  -0.36886  -0.36651  -0.36586
 Alpha  occ. eigenvalues --   -0.36502  -0.36157  -0.35805  -0.35605  -0.35527
 Alpha  occ. eigenvalues --   -0.35387  -0.34832  -0.34472  -0.34224  -0.34034
 Alpha  occ. eigenvalues --   -0.33151  -0.32780  -0.31989  -0.30892  -0.29852
 Alpha  occ. eigenvalues --   -0.29564  -0.29279  -0.27523  -0.26893  -0.23071
 Alpha  occ. eigenvalues --   -0.21177
 Alpha virt. eigenvalues --   -0.06704  -0.03216   0.01103   0.03353   0.04676
 Alpha virt. eigenvalues --    0.05391   0.06330   0.06687   0.07159   0.07907
 Alpha virt. eigenvalues --    0.08125   0.10940   0.11034   0.11683   0.11968

 Mulliken charges:
               1
     1  Mg   0.818053
     2  C    0.065421
     3  C   -0.166695
     4  C   -0.149471
     5  C   -0.125198
     6  N   -0.654059
     7  C    0.348430
     8  C   -0.197586
     9  C   -0.120130
    10  C    0.341643
    11  C   -0.294677
    12  C   -0.178223
    13  C   -0.271173
    14  C    0.612881
    15  O   -0.457851
    16  O   -0.483272
    17  N   -0.722746
    18  C    0.308982
    19  C    0.010021
    20  C   -0.001642
    21  C    0.288489
    22  C   -0.365838
    23  C   -0.038267
    24  C   -0.268228
    25  N   -0.674065
    26  C    0.281048
    27  C   -0.018214
    28  C    0.006180
    29  C    0.286587
    30  C   -0.375300
    31  C   -0.227960
    32  C   -0.306592
    33  N   -0.738455
    34  C    0.262679
    35  C    0.007738
    36  C    0.036053
    37  C    0.333937
    38  C   -0.368167
    39  C    0.329172
    40  O   -0.471408
    41  C   -0.339222
    42  C    0.627304
    43  O   -0.534177
    44  O   -0.428306
    45  C   -0.072179
    46  C    0.012394
    47  C   -0.133517
    48  C    0.137955
    49  C   -0.382369
    50  C   -0.230902
    51  C   -0.156487
    52  C   -0.174688
    53  C   -0.048239
    54  C   -0.300890
    55  C   -0.163594
    56  C   -0.183326
    57  C   -0.178792
    58  C   -0.054116
    59  C   -0.293887
    60  C   -0.177558
    61  C   -0.180679
    62  C   -0.152264
    63  C   -0.048903
    64  C   -0.290557
    65  C   -0.308317
    66  H    0.058607
    67  H    0.096824
    68  H    0.058427
    69  H    0.148756
    70  H    0.105891
    71  H    0.114989
    72  H    0.068153
    73  H    0.113112
    74  H    0.109278
    75  H    0.119910
    76  H    0.126397
    77  H    0.143064
    78  H    0.137371
    79  H    0.139245
    80  H    0.091709
    81  H    0.084974
    82  H    0.116137
    83  H    0.097033
    84  H    0.121914
    85  H    0.116319
    86  H    0.130540
    87  H    0.107589
    88  H    0.102415
    89  H    0.107567
    90  H    0.095680
    91  H    0.104905
    92  H    0.128008
    93  H    0.147975
    94  H    0.120215
    95  H    0.173089
    96  H    0.126253
    97  H    0.135439
    98  H    0.127266
    99  H    0.112518
   100  H    0.125373
   101  H    0.086734
   102  H    0.119093
   103  H    0.104818
   104  H    0.119312
   105  H    0.102124
   106  H    0.106132
   107  H    0.090076
   108  H    0.107374
   109  H    0.044888
   110  H    0.098734
   111  H    0.058908
   112  H    0.106041
   113  H    0.105775
   114  H    0.062438
   115  H    0.073700
   116  H    0.099201
   117  H    0.110263
   118  H    0.105135
   119  H    0.104038
   120  H    0.093794
   121  H    0.087316
   122  H    0.088028
   123  H    0.072584
   124  H    0.108488
   125  H    0.058336
   126  H    0.091419
   127  H    0.085867
   128  H    0.081031
   129  H    0.058182
   130  H    0.074868
   131  H    0.099798
   132  H    0.102562
   133  H    0.054601
   134  H    0.124783
   135  H    0.096373
   136  H    0.086671
   137  H    0.110796
 Sum of Mulliken charges =   0.00000

 Dipole moment (field-independent basis, Debye):
    X=              1.8524    Y=              4.3383    Z=              0.1562  Tot=              4.7198
 Quadrupole moment (field-independent basis, Debye-Ang):
   XX=           -347.4487   YY=           -392.3462   ZZ=           -399.4736
   XY=            -22.3808   XZ=              5.6897   YZ=             -1.6602

 Normal termination of Gaussian 09 at Sun Jun 30 16:47:14 2019.
