 Gaussian 09, Revision D.01,
 Gaussian 09:  ES64L-G09RevD.01 24-Apr-2013

 -------------------------------------
 # td=(NStates=1) CAM-B3LYP/6-31G(d,p)
 -------------------------------------

 --
 TD
 --
 Symbolic Z-matrix:
 Charge =  0 Multiplicity = 1

                         Standard orientation:
 ---------------------------------------------------------------------
 Center     Atomic      Atomic             Coordinates (Angstroms)
 Number     Number       Type             X           Y           Z
 ---------------------------------------------------------------------
      1         12           0       -7.138886    0.658978    0.064538
      2          6           0       -4.851739   -1.965255    0.446724
      3          6           0       -4.767545    2.768005    1.225195
      4          6           0       -9.424801    3.142671   -0.218685
      5          6           0       -9.537660   -1.723116   -0.964755
      6          7           0       -5.061892    0.431844    0.725842
      7          6           0       -4.336911   -0.744652    0.786274
      8          6           0       -2.914560   -0.364776    1.150123
      9          6           0       -2.936037    1.040077    1.670103
     10          6           0       -4.330750    1.463997    1.191571
     11          6           0       -2.746906    1.167224    3.202689
     12          6           0       -1.919055   -0.601849    0.048221
     13          6           0       -0.455289   -0.576824    0.525556
     14          6           0        0.479751   -0.645437   -0.635508
     15          8           0        0.230805   -0.903029   -1.775694
     16          8           0        1.767052   -0.461357   -0.199628
     17          7           0       -7.118664    2.587452    0.417125
     18          6           0       -6.012510    3.252921    0.806577
     19          6           0       -6.382938    4.721338    0.931024
     20          6           0       -7.759758    4.758755    0.508897
     21          6           0       -8.125876    3.453542    0.185114
     22          6           0       -5.518654    5.857779    1.344556
     23          6           0       -8.589953    5.960384    0.358793
     24          6           0       -8.195168    7.228046    0.080736
     25          7           0       -9.067025    0.660710   -0.527638
     26          6           0       -9.829318    1.829682   -0.531860
     27          6           0      -11.265973    1.457469   -0.893139
     28          6           0      -11.149752    0.100863   -1.115896
     29          6           0       -9.837991   -0.365580   -0.923240
     30          6           0      -12.333382    2.426172   -1.083942
     31          6           0      -12.319227   -0.646700   -1.693741
     32          6           0      -12.332083   -0.779524   -3.228515
     33          7           0       -7.162036   -1.399360   -0.134931
     34          6           0       -8.286449   -2.192405   -0.585026
     35          6           0       -7.743277   -3.578741   -0.619390
     36          6           0       -6.510864   -3.593825   -0.169678
     37          6           0       -6.215847   -2.267191    0.068025
     38          6           0       -8.673173   -4.835125   -1.023681
     39          6           0       -5.441782   -4.421054    0.188532
     40          8           0       -5.251896   -5.580720    0.076590
     41          6           0       -4.169812   -3.337419    0.527616
     42          6           0       -3.612506   -3.730477    1.950824
     43          8           0       -3.877368   -3.255836    2.933110
     44          8           0       -2.727546   -4.761029    1.728185
     45          6           0       -2.257064   -5.384126    2.919325
     46          6           0        2.794010   -0.525357   -1.264405
     47          6           0        4.144775   -0.447654   -0.664002
     48          6           0        5.041834    0.514255   -1.067674
     49          6           0        4.965206    1.437571   -2.196074
     50          6           0        6.420809    0.474850   -0.289851
     51          6           0        7.641671   -0.174695   -1.100276
     52          6           0        8.861625   -0.030395   -0.238766
     53          6           0       10.197333   -0.619941   -0.870644
     54          6           0       10.076653   -2.039726   -1.153800
     55          6           0       11.406013   -0.236199    0.059960
     56          6           0       12.764419   -0.395218   -0.610810
     57          6           0       13.950486    0.100035    0.243153
     58          6           0       15.298635   -0.137324   -0.533258
     59          6           0       15.578971   -1.613279   -0.836748
     60          6           0       16.388657    0.378458    0.395623
     61          6           0       17.803689    0.609855   -0.234758
     62          6           0       18.926134    1.188917    0.778311
     63          6           0       20.298884    1.232549    0.349235
     64          6           0       20.430854    1.880852   -1.044786
     65          6           0       21.244191    1.941854    1.395367
     66          1           0       -3.989458    3.439869    1.316124
     67          1           0      -10.303005    3.905103   -0.372034
     68          1           0      -10.255844   -2.391492   -1.416157
     69          1           0       -2.523660   -1.073841    2.000201
     70          1           0       -2.092914    1.619773    1.203496
     71          1           0       -1.725223    0.571076    3.395256
     72          1           0       -2.576888    2.193240    3.564615
     73          1           0       -3.684259    0.628508    3.686743
     74          1           0       -2.207627   -1.538879   -0.556820
     75          1           0       -2.056484    0.065784   -0.782961
     76          1           0       -0.001594    0.250095    1.123072
     77          1           0       -0.247612   -1.461732    1.313234
     78          1           0       -4.967001    6.251912    0.445701
     79          1           0       -6.203719    6.605943    1.759967
     80          1           0       -4.680606    5.716179    2.233523
     81          1           0       -9.624452    5.795573    0.616652
     82          1           0       -9.100821    7.792701   -0.031327
     83          1           0       -7.172941    7.753207   -0.276124
     84          1           0      -11.900657    3.029743   -1.835316
     85          1           0      -13.287706    2.042593   -1.503773
     86          1           0      -12.531196    3.096789   -0.186928
     87          1           0      -12.450585   -1.632072   -1.172458
     88          1           0      -13.354858   -0.149468   -1.634588
     89          1           0      -13.075242   -1.544964   -3.571739
     90          1           0      -12.667408    0.367291   -3.690167
     91          1           0      -11.430931   -1.303251   -3.559854
     92          1           0       -9.005196   -4.765471   -2.103042
     93          1           0       -8.278680   -5.920045   -0.849241
     94          1           0       -9.554503   -4.876693   -0.263736
     95          1           0       -3.192701   -3.382642   -0.127370
     96          1           0       -1.749759   -4.604962    3.266498
     97          1           0       -3.103853   -5.652262    3.625420
     98          1           0       -1.630357   -6.080330    2.445752
     99          1           0        2.642081   -1.512537   -1.915404
    100          1           0        2.477931    0.272379   -2.083658
    101          1           0        4.273180   -0.856063    0.396235
    102          1           0        3.798713    1.376720   -2.583511
    103          1           0        5.372740    2.444588   -2.037512
    104          1           0        5.200414    1.083528   -3.156749
    105          1           0        6.935650    1.361799   -0.031020
    106          1           0        6.472436   -0.156258    0.658994
    107          1           0        7.328492   -1.205287   -1.050787
    108          1           0        7.797542    0.324479   -2.264244
    109          1           0        9.038419    1.063637   -0.274243
    110          1           0        8.740537   -0.501188    0.703480
    111          1           0       10.459314   -0.315948   -1.853873
    112          1           0        9.163078   -2.412616   -1.615842
    113          1           0       10.873688   -2.370798   -1.785541
    114          1           0       10.154850   -2.588733   -0.242024
    115          1           0       11.431764    0.753535    0.409140
    116          1           0       11.389958   -1.054929    0.937002
    117          1           0       12.765973   -1.482411   -1.041485
    118          1           0       12.645733    0.108993   -1.649312
    119          1           0       13.788944    1.239835    0.585841
    120          1           0       14.003163   -0.604546    1.284763
    121          1           0       15.267879    0.355345   -1.473223
    122          1           0       15.502347   -2.348940    0.012718
    123          1           0       14.677703   -1.860332   -1.560515
    124          1           0       16.532833   -1.814731   -1.379061
    125          1           0       16.167817    1.350321    0.728697
    126          1           0       16.539796   -0.200715    1.429381
    127          1           0       17.965104   -0.439758   -0.641892
    128          1           0       17.592897    1.136023   -1.236673
    129          1           0       18.507995    2.083073    0.915831
    130          1           0       18.895112    0.627982    1.715130
    131          1           0       20.590221    0.281932    0.130955
    132          1           0       19.979566    2.782774   -1.047426
    133          1           0       21.431046    2.051409   -1.370490
    134          1           0       19.944872    1.116775   -1.878288
    135          1           0       21.005391    1.485981    2.456589
    136          1           0       22.215868    1.903529    1.015624
    137          1           0       20.882346    3.111825    1.220729
 ---------------------------------------------------------------------

 SCF Done:  E(RCAM-B3LYP) =  -2932.68966627     A.U. after   17 cycles

 Excitation energies and oscillator strengths:

 Excited State   1:      Singlet-A      2.0315 eV  610.30 nm  f=0.2622  <S**2>=0.000
     240 -> 243       -0.23123
     241 -> 242        0.65932
 This state for optimization and/or second-order correction.
 Total Energy, E(TD-HF/TD-KS) =  -2932.61500909
 Copying the excited state density for this state as the 1-particle RhoCI density.

 The electronic state is 1-A.
 Alpha  occ. eigenvalues --  -46.83885 -19.25518 -19.23972 -19.21452 -19.21078
 Alpha  occ. eigenvalues --  -19.21034 -14.41285 -14.39692 -14.39441 -14.39406
 Alpha  occ. eigenvalues --  -10.38812 -10.37686 -10.35225 -10.33047 -10.30363
 Alpha  occ. eigenvalues --  -10.30257 -10.30254 -10.29607 -10.29342 -10.29126
 Alpha  occ. eigenvalues --  -10.29048 -10.29005 -10.28964 -10.28796 -10.28634
 Alpha  occ. eigenvalues --  -10.28285 -10.28227 -10.28135 -10.28060 -10.27935
 Alpha  occ. eigenvalues --  -10.27834 -10.27772 -10.27629 -10.27534 -10.27421
 Alpha  occ. eigenvalues --  -10.27350 -10.27290 -10.27225 -10.27005 -10.26960
 Alpha  occ. eigenvalues --  -10.26864 -10.26823 -10.26614 -10.26523 -10.26465
 Alpha  occ. eigenvalues --  -10.26311 -10.26290 -10.26278 -10.26201 -10.26193
 Alpha  occ. eigenvalues --  -10.26104 -10.26103 -10.25628 -10.25469 -10.25306
 Alpha  occ. eigenvalues --  -10.25168 -10.25128 -10.25104 -10.24720 -10.24637
 Alpha  occ. eigenvalues --  -10.24416 -10.24280 -10.23949 -10.23920 -10.22997
 Alpha  occ. eigenvalues --   -3.13058  -1.87759  -1.87276  -1.87264  -1.19908
 Alpha  occ. eigenvalues --   -1.17548  -1.13323  -1.11299  -1.08952  -1.04957
 Alpha  occ. eigenvalues --   -1.04294  -1.03475  -1.02549  -0.91387  -0.91025
 Alpha  occ. eigenvalues --   -0.90465  -0.90208  -0.89712  -0.89210  -0.88653
 Alpha  occ. eigenvalues --   -0.88520  -0.88196  -0.87953  -0.86976  -0.85882
 Alpha  occ. eigenvalues --   -0.85010  -0.83670  -0.83552  -0.82639  -0.82541
 Alpha  occ. eigenvalues --   -0.81340  -0.81018  -0.80202  -0.80029  -0.78090
 Alpha  occ. eigenvalues --   -0.77828  -0.77151  -0.76041  -0.75340  -0.75077
 Alpha  occ. eigenvalues --   -0.74665  -0.74368  -0.74193  -0.72812  -0.72244
 Alpha  occ. eigenvalues --   -0.70714  -0.69987  -0.68660  -0.68421  -0.68079
 Alpha  occ. eigenvalues --   -0.67013  -0.65465  -0.64982  -0.64394  -0.63802
 Alpha  occ. eigenvalues --   -0.63573  -0.63380  -0.62950  -0.62344  -0.62214
 Alpha  occ. eigenvalues --   -0.61642  -0.60753  -0.60156  -0.59923  -0.59373
 Alpha  occ. eigenvalues --   -0.58910  -0.57758  -0.57454  -0.56562  -0.56115
 Alpha  occ. eigenvalues --   -0.55887  -0.55792  -0.55434  -0.54725  -0.54487
 Alpha  occ. eigenvalues --   -0.54094  -0.53762  -0.53580  -0.53430  -0.53064
 Alpha  occ. eigenvalues --   -0.52924  -0.52567  -0.52520  -0.52098  -0.51590
 Alpha  occ. eigenvalues --   -0.51315  -0.51169  -0.50716  -0.50683  -0.50497
 Alpha  occ. eigenvalues --   -0.50284  -0.50068  -0.49696  -0.49681  -0.49418
 Alpha  occ. eigenvalues --   -0.49209  -0.48982  -0.48915  -0.48590  -0.48512
 Alpha  occ. eigenvalues --   -0.48250  -0.48095  -0.47519  -0.47240  -0.47116
 Alpha  occ. eigenvalues --   -0.47076  -0.46833  -0.46698  -0.46409  -0.46300
 Alpha  occ. eigenvalues --   -0.46076  -0.45735  -0.45554  -0.45514  -0.45330
 Alpha  occ. eigenvalues --   -0.45112  -0.44757  -0.44676  -0.44421  -0.44129
 Alpha  occ. eigenvalues --   -0.44011  -0.43817  -0.43415  -0.43203  -0.43125
 Alpha  occ. eigenvalues --   -0.42970  -0.42816  -0.42493  -0.42369  -0.41904
 Alpha  occ. eigenvalues --   -0.41480  -0.41381  -0.41182  -0.41092  -0.40735
 Alpha  occ. eigenvalues --   -0.40714  -0.40595  -0.40464  -0.40278  -0.40036
 Alpha  occ. eigenvalues --   -0.39771  -0.39549  -0.39527  -0.39231  -0.39161
 Alpha  occ. eigenvalues --   -0.38754  -0.38638  -0.38107  -0.37917  -0.37694
 Alpha  occ. eigenvalues --   -0.37329  -0.37259  -0.37015  -0.36511  -0.36495
 Alpha  occ. eigenvalues --   -0.36273  -0.36133  -0.35571  -0.35274  -0.35255
 Alpha  occ. eigenvalues --   -0.35087  -0.34917  -0.34773  -0.33919  -0.33778
 Alpha  occ. eigenvalues --   -0.33347  -0.33098  -0.32275  -0.31449  -0.30522
 Alpha  occ. eigenvalues --   -0.29581  -0.29034  -0.28101  -0.27145  -0.23270
 Alpha  occ. eigenvalues --   -0.20948
 Alpha virt. eigenvalues --   -0.06488  -0.02767   0.01953   0.04223   0.04791
 Alpha virt. eigenvalues --    0.05733   0.06048   0.06681   0.07383   0.08344
 Alpha virt. eigenvalues --    0.09276   0.10132   0.10969   0.11417   0.11664

 Mulliken charges:
               1
     1  Mg   0.829613
     2  C    0.062942
     3  C   -0.182625
     4  C   -0.177063
     5  C   -0.154521
     6  N   -0.634060
     7  C    0.305044
     8  C   -0.153157
     9  C   -0.138209
    10  C    0.341810
    11  C   -0.287822
    12  C   -0.179869
    13  C   -0.273971
    14  C    0.626588
    15  O   -0.465366
    16  O   -0.506899
    17  N   -0.750472
    18  C    0.317611
    19  C   -0.002206
    20  C    0.011784
    21  C    0.345668
    22  C   -0.382016
    23  C   -0.105741
    24  C   -0.229152
    25  N   -0.727131
    26  C    0.262361
    27  C    0.051211
    28  C   -0.001039
    29  C    0.342001
    30  C   -0.390320
    31  C   -0.258099
    32  C   -0.287488
    33  N   -0.706411
    34  C    0.250294
    35  C   -0.059410
    36  C    0.146447
    37  C    0.277816
    38  C   -0.370237
    39  C    0.342720
    40  O   -0.414345
    41  C   -0.351311
    42  C    0.580231
    43  O   -0.398040
    44  O   -0.483326
    45  C   -0.076691
    46  C    0.015361
    47  C   -0.140289
    48  C    0.140012
    49  C   -0.368427
    50  C   -0.233413
    51  C   -0.175028
    52  C   -0.167585
    53  C   -0.074211
    54  C   -0.317664
    55  C   -0.153605
    56  C   -0.192583
    57  C   -0.151321
    58  C   -0.056066
    59  C   -0.302458
    60  C   -0.166283
    61  C   -0.209918
    62  C   -0.146759
    63  C   -0.065470
    64  C   -0.310552
    65  C   -0.291603
    66  H    0.080016
    67  H    0.101834
    68  H    0.110105
    69  H    0.100402
    70  H    0.104792
    71  H    0.088190
    72  H    0.116377
    73  H    0.118731
    74  H    0.120859
    75  H    0.123143
    76  H    0.141233
    77  H    0.130165
    78  H    0.122842
    79  H    0.131774
    80  H    0.093477
    81  H    0.101416
    82  H    0.098481
    83  H    0.112913
    84  H    0.140043
    85  H    0.114927
    86  H    0.117562
    87  H    0.093746
    88  H    0.097726
    89  H    0.100974
    90  H    0.079216
    91  H    0.107439
    92  H    0.122561
    93  H    0.134056
    94  H    0.116915
    95  H    0.136270
    96  H    0.127368
    97  H    0.124935
    98  H    0.132493
    99  H    0.117590
   100  H    0.114399
   101  H    0.110286
   102  H    0.075905
   103  H    0.129659
   104  H    0.146709
   105  H    0.097748
   106  H    0.087803
   107  H    0.106288
   108  H    0.065354
   109  H    0.093233
   110  H    0.101954
   111  H    0.085291
   112  H    0.108454
   113  H    0.099638
   114  H    0.093723
   115  H    0.094898
   116  H    0.066611
   117  H    0.090121
   118  H    0.074721
   119  H    0.086455
   120  H    0.070660
   121  H    0.099100
   122  H    0.102986
   123  H    0.080335
   124  H    0.107136
   125  H    0.087272
   126  H    0.069205
   127  H    0.073357
   128  H    0.083118
   129  H    0.104566
   130  H    0.087215
   131  H    0.098831
   132  H    0.107652
   133  H    0.096286
   134  H    0.078105
   135  H    0.095728
   136  H    0.117011
   137  H    0.072335
 Sum of Mulliken charges =   0.00000

 Dipole moment (field-independent basis, Debye):
    X=              1.1336    Y=              4.2695    Z=             -0.2028  Tot=              4.4221
 Quadrupole moment (field-independent basis, Debye-Ang):
   XX=           -344.6917   YY=           -392.8295   ZZ=           -398.5375
   XY=            -15.3752   XZ=              9.0662   YZ=             -5.9099

 Normal termination of Gaussian 09 at Fri Jun 28 04:05:02 2019.
