 Gaussian 09, Revision D.01,
 Gaussian 09:  ES64L-G09RevD.01 24-Apr-2013

 -------------------------------------
 # td=(NStates=1) CAM-B3LYP/6-31G(d,p)
 -------------------------------------

 --
 TD
 --
 Symbolic Z-matrix:
 Charge =  0 Multiplicity = 1

                         Standard orientation:
 ---------------------------------------------------------------------
 Center     Atomic      Atomic             Coordinates (Angstroms)
 Number     Number       Type             X           Y           Z
 ---------------------------------------------------------------------
      1         12           0       -7.121540    0.596415    0.057445
      2          6           0       -4.824612   -1.892805    0.439879
      3          6           0       -4.812412    2.835717    1.145604
      4          6           0       -9.386796    3.070309   -0.326680
      5          6           0       -9.535325   -1.782157   -0.871750
      6          7           0       -5.162715    0.447945    0.802738
      7          6           0       -4.361981   -0.672686    0.811643
      8          6           0       -2.882390   -0.370838    1.325366
      9          6           0       -2.999451    1.054162    1.693043
     10          6           0       -4.384336    1.524507    1.153628
     11          6           0       -2.857337    1.224998    3.150892
     12          6           0       -1.927773   -0.662459    0.054464
     13          6           0       -0.538775   -0.439099    0.475448
     14          6           0        0.548173   -0.516433   -0.676346
     15          8           0        0.242044   -0.968079   -1.766200
     16          8           0        1.799055   -0.224054   -0.277108
     17          7           0       -7.197038    2.615618    0.410182
     18          6           0       -6.082371    3.342336    0.760381
     19          6           0       -6.433949    4.802886    0.928825
     20          6           0       -7.715659    4.940130    0.401180
     21          6           0       -8.209075    3.510227    0.235838
     22          6           0       -5.628259    5.865725    1.489572
     23          6           0       -8.654650    6.027534    0.215203
     24          6           0       -8.168193    7.273432    0.127904
     25          7           0       -9.107192    0.656512   -0.617750
     26          6           0       -9.884268    1.766270   -0.713074
     27          6           0      -11.283745    1.395788   -1.033962
     28          6           0      -11.191367   -0.043650   -1.264888
     29          6           0       -9.901045   -0.446688   -0.952582
     30          6           0      -12.338840    2.275833   -1.317550
     31          6           0      -12.303120   -0.891513   -1.679377
     32          6           0      -12.462916   -1.057724   -3.270375
     33          7           0       -7.228968   -1.407681   -0.283938
     34          6           0       -8.210579   -2.264279   -0.595878
     35          6           0       -7.813622   -3.647043   -0.445516
     36          6           0       -6.452783   -3.574762   -0.045650
     37          6           0       -6.174804   -2.199150    0.046378
     38          6           0       -8.568116   -4.933801   -0.567545
     39          6           0       -5.280102   -4.332450    0.252769
     40          8           0       -5.136988   -5.570347    0.225060
     41          6           0       -4.204320   -3.309760    0.535766
     42          6           0       -3.536587   -3.597647    1.785817
     43          8           0       -3.723597   -3.056386    2.795009
     44          8           0       -2.589861   -4.659642    1.737797
     45          6           0       -2.216195   -5.070634    3.075223
     46          6           0        2.833555   -0.569038   -1.250274
     47          6           0        4.159563   -0.409463   -0.603329
     48          6           0        5.202966    0.294959   -1.076991
     49          6           0        5.140463    1.158841   -2.328605
     50          6           0        6.466534    0.547244   -0.259739
     51          6           0        7.567833   -0.307498   -0.919658
     52          6           0        8.884344   -0.150999   -0.080934
     53          6           0       10.194799   -0.611634   -0.847478
     54          6           0       10.134073   -2.129689   -1.314261
     55          6           0       11.436596   -0.237832    0.032702
     56          6           0       12.771199   -0.640930   -0.772181
     57          6           0       13.890407   -0.187277    0.218457
     58          6           0       15.377569   -0.354091   -0.390447
     59          6           0       15.775648   -1.751843   -0.775122
     60          6           0       16.332391    0.388108    0.448300
     61          6           0       17.805703    0.504771   -0.093769
     62          6           0       18.759509    1.359937    0.738765
     63          6           0       20.158740    1.448199    0.193987
     64          6           0       20.266607    2.158895   -1.118577
     65          6           0       21.007736    2.094127    1.262297
     66          1           0       -3.968260    3.631251    1.357106
     67          1           0      -10.284474    3.840552   -0.607527
     68          1           0      -10.306656   -2.404153   -1.295646
     69          1           0       -2.723893   -0.861220    2.213897
     70          1           0       -2.136098    1.600096    1.328965
     71          1           0       -1.733055    0.996855    3.515445
     72          1           0       -2.998506    2.156793    3.310164
     73          1           0       -3.701238    0.545438    3.533886
     74          1           0       -1.990684   -1.777345   -0.319603
     75          1           0       -2.173484    0.252912   -0.692650
     76          1           0       -0.158496    0.509252    0.973130
     77          1           0        0.124456   -0.979431    1.301929
     78          1           0       -4.860828    6.504213    0.852158
     79          1           0       -6.376430    6.633661    1.860831
     80          1           0       -5.022505    5.528847    2.315007
     81          1           0       -9.782026    5.741777    0.445187
     82          1           0       -8.599709    8.331577    0.029186
     83          1           0       -7.115846    7.527346   -0.060589
     84          1           0      -12.034403    2.991216   -2.151019
     85          1           0      -13.368261    1.984173   -1.729974
     86          1           0      -12.436505    3.024088   -0.588315
     87          1           0      -12.410548   -1.842917   -1.326864
     88          1           0      -13.366770   -0.512004   -1.329050
     89          1           0      -13.503554   -1.497073   -3.374052
     90          1           0      -12.651205    0.063114   -3.716021
     91          1           0      -11.381859   -1.552148   -3.622769
     92          1           0       -8.848404   -5.009772   -1.525330
     93          1           0       -7.794655   -5.898170   -0.544695
     94          1           0       -9.184644   -5.073822    0.190363
     95          1           0       -3.407030   -3.283231   -0.359041
     96          1           0       -1.475823   -4.481511    3.415710
     97          1           0       -2.995509   -5.263180    3.736901
     98          1           0       -1.542518   -6.035001    2.920049
     99          1           0        2.685491   -1.489752   -1.609049
    100          1           0        2.784717    0.068431   -2.183928
    101          1           0        4.384353   -0.915598    0.316901
    102          1           0        3.943515    1.375509   -2.443044
    103          1           0        5.742509    2.182933   -2.322820
    104          1           0        5.486896    0.489465   -3.320769
    105          1           0        6.739931    1.547654   -0.356525
    106          1           0        6.172862    0.225080    0.918409
    107          1           0        7.456992   -1.372331   -1.015401
    108          1           0        7.724574    0.101414   -1.890287
    109          1           0        9.097943    1.020162   -0.009296
    110          1           0        8.716277   -0.537107    0.935089
    111          1           0       10.347860   -0.122728   -1.801893
    112          1           0        9.272427   -2.318926   -1.971776
    113          1           0       11.103154   -2.571303   -1.818451
    114          1           0        9.900406   -2.857208   -0.461316
    115          1           0       11.352001    0.856838    0.325958
    116          1           0       11.423242   -0.724163    1.021545
    117          1           0       12.714993   -1.660310   -0.829737
    118          1           0       12.862756    0.109063   -1.659122
    119          1           0       13.967075    0.857821    0.474574
    120          1           0       13.891377   -0.757739    1.042655
    121          1           0       15.128012    0.228374   -1.507254
    122          1           0       15.939831   -2.463220    0.187606
    123          1           0       14.805723   -2.273649   -1.350633
    124          1           0       16.753293   -1.725754   -1.436928
    125          1           0       15.758080    1.169779    0.729824
    126          1           0       16.415001   -0.113631    1.494712
    127          1           0       18.162260   -0.473656   -0.412733
    128          1           0       17.759933    1.234953   -1.058500
    129          1           0       18.350383    2.273401    0.981668
    130          1           0       18.970836    0.763219    1.744742
    131          1           0       20.338619    0.399048    0.048922
    132          1           0       19.992633    3.182972   -0.958367
    133          1           0       21.300513    2.179358   -1.585514
    134          1           0       19.567856    1.579575   -1.912766
    135          1           0       20.970650    1.526152    2.248184
    136          1           0       22.145722    2.104073    0.898869
    137          1           0       20.751464    3.139552    1.464478
 ---------------------------------------------------------------------

 SCF Done:  E(RCAM-B3LYP) =  -2932.63409691     A.U. after   17 cycles

 Excitation energies and oscillator strengths:

 Excited State   1:      Singlet-A      2.1482 eV  577.15 nm  f=0.2268  <S**2>=0.000
     240 -> 242       -0.20147
     240 -> 243        0.23371
     241 -> 242        0.61399
     241 -> 243        0.12839
 This state for optimization and/or second-order correction.
 Total Energy, E(TD-HF/TD-KS) =  -2932.55515159
 Copying the excited state density for this state as the 1-particle RhoCI density.

 The electronic state is 1-A.
 Alpha  occ. eigenvalues --  -46.85016 -19.26717 -19.23968 -19.21156 -19.20197
 Alpha  occ. eigenvalues --  -19.19325 -14.42003 -14.40591 -14.39300 -14.39119
 Alpha  occ. eigenvalues --  -10.38865 -10.38289 -10.34355 -10.31850 -10.31747
 Alpha  occ. eigenvalues --  -10.31394 -10.30435 -10.30386 -10.29914 -10.29655
 Alpha  occ. eigenvalues --  -10.29424 -10.29332 -10.29212 -10.28921 -10.28901
 Alpha  occ. eigenvalues --  -10.28726 -10.28561 -10.28505 -10.28504 -10.28490
 Alpha  occ. eigenvalues --  -10.28457 -10.28178 -10.27987 -10.27927 -10.27886
 Alpha  occ. eigenvalues --  -10.27598 -10.27283 -10.27256 -10.27244 -10.26945
 Alpha  occ. eigenvalues --  -10.26886 -10.26759 -10.26736 -10.26700 -10.26523
 Alpha  occ. eigenvalues --  -10.26492 -10.26474 -10.26326 -10.26296 -10.26167
 Alpha  occ. eigenvalues --  -10.26042 -10.25982 -10.25928 -10.25709 -10.25540
 Alpha  occ. eigenvalues --  -10.25518 -10.25492 -10.25416 -10.25181 -10.24942
 Alpha  occ. eigenvalues --  -10.24680 -10.24573 -10.24550 -10.24173 -10.24086
 Alpha  occ. eigenvalues --   -3.13951  -1.88666  -1.88174  -1.88141  -1.18155
 Alpha  occ. eigenvalues --   -1.17819  -1.08763  -1.08604  -1.08335  -1.04637
 Alpha  occ. eigenvalues --   -1.03929  -1.03210  -1.01938  -0.92995  -0.91278
 Alpha  occ. eigenvalues --   -0.91051  -0.90769  -0.90292  -0.89467  -0.89115
 Alpha  occ. eigenvalues --   -0.88208  -0.88034  -0.87674  -0.86828  -0.86492
 Alpha  occ. eigenvalues --   -0.85296  -0.84443  -0.83640  -0.82987  -0.82688
 Alpha  occ. eigenvalues --   -0.81106  -0.80711  -0.80149  -0.79258  -0.78189
 Alpha  occ. eigenvalues --   -0.77918  -0.77108  -0.76160  -0.75267  -0.75106
 Alpha  occ. eigenvalues --   -0.74902  -0.74629  -0.74193  -0.73232  -0.72692
 Alpha  occ. eigenvalues --   -0.71031  -0.70371  -0.69286  -0.68878  -0.68488
 Alpha  occ. eigenvalues --   -0.67965  -0.66822  -0.65319  -0.65111  -0.65040
 Alpha  occ. eigenvalues --   -0.63591  -0.63501  -0.63137  -0.63057  -0.61431
 Alpha  occ. eigenvalues --   -0.60662  -0.60328  -0.59936  -0.59743  -0.58796
 Alpha  occ. eigenvalues --   -0.58697  -0.58112  -0.57985  -0.57526  -0.56707
 Alpha  occ. eigenvalues --   -0.56333  -0.56097  -0.55385  -0.55107  -0.54805
 Alpha  occ. eigenvalues --   -0.54261  -0.53853  -0.53304  -0.53181  -0.53072
 Alpha  occ. eigenvalues --   -0.52957  -0.52681  -0.52506  -0.52392  -0.52193
 Alpha  occ. eigenvalues --   -0.51734  -0.51197  -0.50855  -0.50511  -0.50177
 Alpha  occ. eigenvalues --   -0.50117  -0.49871  -0.49749  -0.49483  -0.49271
 Alpha  occ. eigenvalues --   -0.49117  -0.48872  -0.48709  -0.48335  -0.47899
 Alpha  occ. eigenvalues --   -0.47777  -0.47732  -0.47530  -0.47421  -0.47220
 Alpha  occ. eigenvalues --   -0.46707  -0.46527  -0.46392  -0.46346  -0.46016
 Alpha  occ. eigenvalues --   -0.45715  -0.45569  -0.45523  -0.45152  -0.45080
 Alpha  occ. eigenvalues --   -0.44612  -0.44444  -0.44233  -0.43998  -0.43812
 Alpha  occ. eigenvalues --   -0.43540  -0.43490  -0.43433  -0.43226  -0.43083
 Alpha  occ. eigenvalues --   -0.42852  -0.42725  -0.42458  -0.42291  -0.41989
 Alpha  occ. eigenvalues --   -0.41788  -0.41646  -0.41380  -0.41099  -0.40836
 Alpha  occ. eigenvalues --   -0.40763  -0.40673  -0.40549  -0.40279  -0.39993
 Alpha  occ. eigenvalues --   -0.39842  -0.39809  -0.39749  -0.39600  -0.39524
 Alpha  occ. eigenvalues --   -0.39042  -0.38749  -0.38589  -0.38224  -0.37907
 Alpha  occ. eigenvalues --   -0.37622  -0.37565  -0.37506  -0.37168  -0.36701
 Alpha  occ. eigenvalues --   -0.36596  -0.36379  -0.36222  -0.36033  -0.35712
 Alpha  occ. eigenvalues --   -0.35000  -0.34701  -0.33868  -0.33784  -0.33470
 Alpha  occ. eigenvalues --   -0.32648  -0.32141  -0.31907  -0.31308  -0.29849
 Alpha  occ. eigenvalues --   -0.29343  -0.29242  -0.28315  -0.26655  -0.23234
 Alpha  occ. eigenvalues --   -0.21730
 Alpha virt. eigenvalues --   -0.06555  -0.03400   0.01130   0.03050   0.05496
 Alpha virt. eigenvalues --    0.05765   0.06043   0.06450   0.07086   0.07488
 Alpha virt. eigenvalues --    0.08460   0.09794   0.10794   0.10976   0.11367

 Mulliken charges:
               1
     1  Mg   0.819988
     2  C    0.037758
     3  C   -0.235578
     4  C   -0.179368
     5  C   -0.149531
     6  N   -0.649429
     7  C    0.285602
     8  C   -0.127144
     9  C   -0.159356
    10  C    0.362852
    11  C   -0.278796
    12  C   -0.165226
    13  C   -0.268754
    14  C    0.596107
    15  O   -0.479565
    16  O   -0.479264
    17  N   -0.682244
    18  C    0.322264
    19  C    0.041091
    20  C    0.029867
    21  C    0.283448
    22  C   -0.392165
    23  C   -0.071362
    24  C   -0.260474
    25  N   -0.685067
    26  C    0.278366
    27  C    0.053935
    28  C    0.045779
    29  C    0.302408
    30  C   -0.415618
    31  C   -0.282334
    32  C   -0.289114
    33  N   -0.702102
    34  C    0.253540
    35  C   -0.012519
    36  C    0.050374
    37  C    0.261590
    38  C   -0.368750
    39  C    0.353733
    40  O   -0.484490
    41  C   -0.324973
    42  C    0.639081
    43  O   -0.431823
    44  O   -0.499041
    45  C   -0.069602
    46  C    0.018920
    47  C   -0.133763
    48  C    0.122631
    49  C   -0.349071
    50  C   -0.208801
    51  C   -0.181660
    52  C   -0.179506
    53  C   -0.047693
    54  C   -0.331745
    55  C   -0.186676
    56  C   -0.177873
    57  C   -0.187187
    58  C   -0.041711
    59  C   -0.285056
    60  C   -0.151847
    61  C   -0.178047
    62  C   -0.153457
    63  C   -0.043660
    64  C   -0.298482
    65  C   -0.301669
    66  H    0.084924
    67  H    0.067997
    68  H    0.100107
    69  H    0.141540
    70  H    0.101744
    71  H    0.089867
    72  H    0.115063
    73  H    0.114240
    74  H    0.130015
    75  H    0.121771
    76  H    0.122635
    77  H    0.129866
    78  H    0.109325
    79  H    0.124048
    80  H    0.121893
    81  H    0.113450
    82  H    0.107970
    83  H    0.115629
    84  H    0.118231
    85  H    0.121675
    86  H    0.125020
    87  H    0.121239
    88  H    0.087615
    89  H    0.110035
    90  H    0.089397
    91  H    0.101903
    92  H    0.134100
    93  H    0.126092
    94  H    0.140376
    95  H    0.166038
    96  H    0.122746
    97  H    0.136961
    98  H    0.095581
    99  H    0.144545
   100  H    0.110663
   101  H    0.086362
   102  H    0.102683
   103  H    0.107481
   104  H    0.102078
   105  H    0.114024
   106  H    0.071578
   107  H    0.110908
   108  H    0.105393
   109  H    0.066175
   110  H    0.100266
   111  H    0.093580
   112  H    0.104605
   113  H    0.092150
   114  H    0.089524
   115  H    0.084837
   116  H    0.091080
   117  H    0.120331
   118  H    0.095956
   119  H    0.094183
   120  H    0.102506
   121  H    0.030257
   122  H    0.076722
   123  H    0.073762
   124  H    0.098284
   125  H    0.091930
   126  H    0.069177
   127  H    0.099583
   128  H    0.072747
   129  H    0.095626
   130  H    0.062349
   131  H    0.090549
   132  H    0.102357
   133  H    0.095609
   134  H    0.085053
   135  H    0.096992
   136  H    0.076840
   137  H    0.104417
 Sum of Mulliken charges =   0.00000

 Dipole moment (field-independent basis, Debye):
    X=              0.7631    Y=              6.8399    Z=              0.9656  Tot=              6.9498
 Quadrupole moment (field-independent basis, Debye-Ang):
   XX=           -346.1566   YY=           -393.9243   ZZ=           -401.6121
   XY=            -26.5498   XZ=             11.1285   YZ=             -1.4312

 Normal termination of Gaussian 09 at Thu Jun 27 05:51:54 2019.
