 Gaussian 09, Revision D.01,
 Gaussian 09:  ES64L-G09RevD.01 24-Apr-2013

 -------------------------------------
 # td=(NStates=1) CAM-B3LYP/6-31G(d,p)
 -------------------------------------

 --
 TD
 --
 Symbolic Z-matrix:
 Charge =  0 Multiplicity = 1

                         Standard orientation:
 ---------------------------------------------------------------------
 Center     Atomic      Atomic             Coordinates (Angstroms)
 Number     Number       Type             X           Y           Z
 ---------------------------------------------------------------------
      1         12           0       -7.106145    0.666093    0.027331
      2          6           0       -4.887427   -1.933524    0.429663
      3          6           0       -4.886789    2.776637    1.236117
      4          6           0       -9.444800    3.063993   -0.359937
      5          6           0       -9.598436   -1.776799   -0.792157
      6          7           0       -5.163935    0.480247    0.612526
      7          6           0       -4.312120   -0.661092    0.727628
      8          6           0       -2.928543   -0.329494    1.196602
      9          6           0       -3.042720    1.146660    1.595469
     10          6           0       -4.412669    1.486419    1.095924
     11          6           0       -2.803093    1.316703    3.028101
     12          6           0       -1.900498   -0.665376    0.095695
     13          6           0       -0.585872   -0.552495    0.608848
     14          6           0        0.497272   -0.722190   -0.595596
     15          8           0        0.201992   -1.071937   -1.765294
     16          8           0        1.800629   -0.556716   -0.230078
     17          7           0       -7.187293    2.611779    0.299908
     18          6           0       -6.076259    3.332439    0.912080
     19          6           0       -6.465416    4.746231    0.901774
     20          6           0       -7.718485    4.873385    0.493004
     21          6           0       -8.242555    3.469655    0.163620
     22          6           0       -5.593369    5.728822    1.500691
     23          6           0       -8.684061    6.002450    0.494343
     24          6           0       -8.285964    7.317997    0.201898
     25          7           0       -9.059314    0.692671   -0.626901
     26          6           0       -9.851732    1.745277   -0.648291
     27          6           0      -11.150333    1.522890   -1.217106
     28          6           0      -11.275098    0.128143   -1.282739
     29          6           0       -9.945112   -0.434268   -0.897603
     30          6           0      -12.271092    2.429652   -1.399236
     31          6           0      -12.345884   -0.792555   -1.781953
     32          6           0      -12.354724   -1.074145   -3.253518
     33          7           0       -7.276234   -1.344695   -0.226562
     34          6           0       -8.234606   -2.235165   -0.519195
     35          6           0       -7.906814   -3.559648   -0.457735
     36          6           0       -6.501406   -3.528541   -0.088822
     37          6           0       -6.245568   -2.137256    0.156349
     38          6           0       -8.750014   -4.850005   -0.656371
     39          6           0       -5.403218   -4.323252    0.202121
     40          8           0       -5.227781   -5.527657    0.220324
     41          6           0       -4.076383   -3.316416    0.549763
     42          6           0       -3.463521   -3.667383    1.900820
     43          8           0       -3.678360   -3.160355    2.977113
     44          8           0       -2.736162   -4.816470    1.798976
     45          6           0       -2.139729   -5.348532    2.928070
     46          6           0        2.802068   -0.529758   -1.233430
     47          6           0        4.124555   -0.498635   -0.643805
     48          6           0        5.143669    0.308540   -1.004285
     49          6           0        4.982645    1.146717   -2.302551
     50          6           0        6.441581    0.405512   -0.129613
     51          6           0        7.628074   -0.133643   -0.937739
     52          6           0        8.914930   -0.101618   -0.143692
     53          6           0       10.198623   -0.623288   -0.774871
     54          6           0       10.156809   -2.023607   -1.214117
     55          6           0       11.502750   -0.205809   -0.056313
     56          6           0       12.807121   -0.587893   -0.666988
     57          6           0       14.015977   -0.073280    0.164493
     58          6           0       15.388232   -0.231059   -0.453088
     59          6           0       15.809763   -1.539656   -0.969511
     60          6           0       16.470775    0.491527    0.338671
     61          6           0       17.864069    0.625495   -0.189777
     62          6           0       18.779784    1.260397    0.756356
     63          6           0       20.217749    1.312266    0.305184
     64          6           0       20.410773    2.179467   -1.033802
     65          6           0       21.128630    1.878643    1.387674
     66          1           0       -4.068902    3.518993    1.773176
     67          1           0      -10.024465    3.880605   -1.024907
     68          1           0      -10.379372   -2.405890   -0.813566
     69          1           0       -2.665374   -0.653726    2.234833
     70          1           0       -2.320914    1.788104    0.861640
     71          1           0       -1.676098    1.006116    3.165835
     72          1           0       -3.146550    2.307822    3.373366
     73          1           0       -3.587575    0.743467    3.541526
     74          1           0       -2.266496   -1.646595   -0.218910
     75          1           0       -2.042605    0.039386   -0.779806
     76          1           0       -0.294329    0.310021    1.069567
     77          1           0       -0.277333   -1.496320    1.075026
     78          1           0       -5.010715    6.323463    0.619969
     79          1           0       -6.255789    6.729232    1.970851
     80          1           0       -4.861131    5.512390    2.231456
     81          1           0       -9.623828    5.992299    0.831251
     82          1           0       -8.921430    8.209720    0.479371
     83          1           0       -7.222107    7.425365   -0.240471
     84          1           0      -12.088344    3.152704   -2.214690
     85          1           0      -13.089113    1.916939   -1.632725
     86          1           0      -12.328342    3.089578   -0.476143
     87          1           0      -12.525288   -1.812612   -1.375503
     88          1           0      -13.283920   -0.509085   -1.383528
     89          1           0      -13.055150   -1.777656   -3.600137
     90          1           0      -12.473119   -0.161204   -3.881089
     91          1           0      -11.446042   -1.370798   -3.603012
     92          1           0       -9.333305   -4.649508   -1.662751
     93          1           0       -7.943273   -5.529535   -0.773411
     94          1           0       -9.264116   -5.002825    0.194593
     95          1           0       -3.450534   -3.637697   -0.261105
     96          1           0       -1.675172   -4.417442    3.231503
     97          1           0       -2.976035   -5.385975    3.764358
     98          1           0       -1.517116   -6.161186    2.732863
     99          1           0        2.556298   -1.354617   -1.842661
    100          1           0        2.559069    0.358091   -1.914690
    101          1           0        4.133199   -1.051097    0.279463
    102          1           0        4.060191    1.183425   -2.761457
    103          1           0        5.538476    2.073942   -2.122816
    104          1           0        5.765257    0.606797   -3.027937
    105          1           0        6.698379    1.584170    0.089394
    106          1           0        6.470669   -0.139575    0.698044
    107          1           0        7.456237   -1.206425   -1.327480
    108          1           0        7.911512    0.442032   -1.925667
    109          1           0        9.210580    0.966894    0.152881
    110          1           0        8.820938   -0.595356    0.649801
    111          1           0       10.301614    0.106375   -1.814103
    112          1           0        9.304199   -2.468260   -1.727276
    113          1           0       10.909145   -2.421412   -1.978684
    114          1           0       10.108641   -2.548278   -0.286993
    115          1           0       11.395373    0.866608    0.072733
    116          1           0       11.370899   -0.429566    1.069427
    117          1           0       12.827325   -1.689152   -0.711878
    118          1           0       12.893633   -0.345284   -1.779130
    119          1           0       13.751014    1.108982    0.490490
    120          1           0       14.004055   -0.859388    1.035263
    121          1           0       15.343071    0.398770   -1.375033
    122          1           0       15.748143   -2.425461   -0.123309
    123          1           0       15.308384   -2.139838   -1.705793
    124          1           0       16.772951   -1.459171   -1.415591
    125          1           0       15.912708    1.388522    0.755558
    126          1           0       16.571008   -0.139487    1.016252
    127          1           0       18.268795   -0.206921   -0.597841
    128          1           0       17.987785    1.191474   -1.256158
    129          1           0       18.355495    2.224930    1.160454
    130          1           0       18.760966    0.696250    1.693474
    131          1           0       20.437392    0.488692   -0.032619
    132          1           0       20.402424    3.325487   -0.708508
    133          1           0       21.459777    1.964654   -1.590478
    134          1           0       19.714946    1.931487   -1.904852
    135          1           0       21.286006    0.859807    2.099035
    136          1           0       22.095267    2.150447    0.996291
    137          1           0       20.811433    2.788065    1.711177
 ---------------------------------------------------------------------

 SCF Done:  E(RCAM-B3LYP) =  -2932.56628292     A.U. after   17 cycles

 Excitation energies and oscillator strengths:

 Excited State   1:      Singlet-A      2.1777 eV  569.33 nm  f=0.2516  <S**2>=0.000
     240 -> 242       -0.18754
     240 -> 243        0.18574
     241 -> 242        0.63956
     241 -> 243        0.12115
 This state for optimization and/or second-order correction.
 Total Energy, E(TD-HF/TD-KS) =  -2932.48625255
 Copying the excited state density for this state as the 1-particle RhoCI density.

 The electronic state is 1-A.
 Alpha  occ. eigenvalues --  -46.83511 -19.26024 -19.24244 -19.20629 -19.20040
 Alpha  occ. eigenvalues --  -19.18661 -14.43103 -14.39693 -14.39398 -14.39143
 Alpha  occ. eigenvalues --  -10.39729 -10.38485 -10.33645 -10.31925 -10.31472
 Alpha  occ. eigenvalues --  -10.30935 -10.30567 -10.30507 -10.29883 -10.29467
 Alpha  occ. eigenvalues --  -10.28944 -10.28645 -10.28537 -10.28475 -10.28394
 Alpha  occ. eigenvalues --  -10.28366 -10.28251 -10.28182 -10.28035 -10.27901
 Alpha  occ. eigenvalues --  -10.27853 -10.27705 -10.27652 -10.27551 -10.27527
 Alpha  occ. eigenvalues --  -10.27493 -10.27439 -10.27426 -10.27288 -10.27133
 Alpha  occ. eigenvalues --  -10.27049 -10.26778 -10.26621 -10.26578 -10.26541
 Alpha  occ. eigenvalues --  -10.26514 -10.26474 -10.26395 -10.26320 -10.25621
 Alpha  occ. eigenvalues --  -10.25514 -10.25397 -10.25259 -10.25220 -10.25151
 Alpha  occ. eigenvalues --  -10.25035 -10.24980 -10.24532 -10.24374 -10.24347
 Alpha  occ. eigenvalues --  -10.24317 -10.24117 -10.23980 -10.23962 -10.23211
 Alpha  occ. eigenvalues --   -3.12844  -1.87525  -1.87098  -1.87041  -1.17512
 Alpha  occ. eigenvalues --   -1.17275  -1.09328  -1.08489  -1.07220  -1.04984
 Alpha  occ. eigenvalues --   -1.04030  -1.02952  -1.01736  -0.92367  -0.91968
 Alpha  occ. eigenvalues --   -0.91393  -0.91175  -0.90044  -0.90014  -0.89233
 Alpha  occ. eigenvalues --   -0.89213  -0.88836  -0.88145  -0.87148  -0.86414
 Alpha  occ. eigenvalues --   -0.86090  -0.84791  -0.84052  -0.83925  -0.82606
 Alpha  occ. eigenvalues --   -0.82257  -0.81255  -0.80897  -0.80313  -0.78315
 Alpha  occ. eigenvalues --   -0.77761  -0.77304  -0.77057  -0.76326  -0.75638
 Alpha  occ. eigenvalues --   -0.75440  -0.75168  -0.74189  -0.73910  -0.72732
 Alpha  occ. eigenvalues --   -0.72362  -0.71153  -0.70458  -0.69747  -0.67993
 Alpha  occ. eigenvalues --   -0.67361  -0.67058  -0.65510  -0.65303  -0.65102
 Alpha  occ. eigenvalues --   -0.64991  -0.63571  -0.62901  -0.62491  -0.61981
 Alpha  occ. eigenvalues --   -0.61702  -0.61462  -0.61068  -0.60479  -0.59312
 Alpha  occ. eigenvalues --   -0.58424  -0.58028  -0.57649  -0.57193  -0.56819
 Alpha  occ. eigenvalues --   -0.56227  -0.56116  -0.55707  -0.55307  -0.54864
 Alpha  occ. eigenvalues --   -0.54659  -0.54236  -0.54034  -0.53676  -0.53192
 Alpha  occ. eigenvalues --   -0.53073  -0.52600  -0.52440  -0.52385  -0.51929
 Alpha  occ. eigenvalues --   -0.51517  -0.51258  -0.51058  -0.50758  -0.50626
 Alpha  occ. eigenvalues --   -0.50302  -0.50121  -0.49818  -0.49661  -0.49603
 Alpha  occ. eigenvalues --   -0.49521  -0.49365  -0.49220  -0.48897  -0.48787
 Alpha  occ. eigenvalues --   -0.48594  -0.48204  -0.48015  -0.47828  -0.47640
 Alpha  occ. eigenvalues --   -0.47375  -0.47194  -0.46920  -0.46700  -0.46675
 Alpha  occ. eigenvalues --   -0.46377  -0.46180  -0.45767  -0.45677  -0.45362
 Alpha  occ. eigenvalues --   -0.45075  -0.44694  -0.44677  -0.44510  -0.44133
 Alpha  occ. eigenvalues --   -0.43894  -0.43633  -0.43538  -0.43314  -0.42813
 Alpha  occ. eigenvalues --   -0.42730  -0.42686  -0.42500  -0.42401  -0.42188
 Alpha  occ. eigenvalues --   -0.42159  -0.42055  -0.41820  -0.41558  -0.41531
 Alpha  occ. eigenvalues --   -0.41353  -0.41233  -0.40851  -0.40688  -0.40217
 Alpha  occ. eigenvalues --   -0.39835  -0.39546  -0.39470  -0.39377  -0.39316
 Alpha  occ. eigenvalues --   -0.39097  -0.38864  -0.38690  -0.38531  -0.37844
 Alpha  occ. eigenvalues --   -0.37699  -0.37496  -0.36867  -0.36818  -0.36702
 Alpha  occ. eigenvalues --   -0.36351  -0.36249  -0.35859  -0.35277  -0.34763
 Alpha  occ. eigenvalues --   -0.34313  -0.33619  -0.33591  -0.33363  -0.33296
 Alpha  occ. eigenvalues --   -0.33072  -0.32861  -0.32526  -0.30944  -0.29159
 Alpha  occ. eigenvalues --   -0.28866  -0.28562  -0.28144  -0.27810  -0.23510
 Alpha  occ. eigenvalues --   -0.21413
 Alpha virt. eigenvalues --   -0.06525  -0.03035   0.01321   0.03293   0.05805
 Alpha virt. eigenvalues --    0.05891   0.06141   0.06304   0.06579   0.06772
 Alpha virt. eigenvalues --    0.08414   0.09992   0.10585   0.10982   0.11332

 Mulliken charges:
               1
     1  Mg   0.807631
     2  C   -0.015932
     3  C   -0.237626
     4  C   -0.232324
     5  C   -0.134707
     6  N   -0.626168
     7  C    0.255189
     8  C   -0.157196
     9  C   -0.134324
    10  C    0.378451
    11  C   -0.317200
    12  C   -0.157286
    13  C   -0.240393
    14  C    0.557537
    15  O   -0.485945
    16  O   -0.487160
    17  N   -0.718160
    18  C    0.317237
    19  C    0.098258
    20  C   -0.005403
    21  C    0.317718
    22  C   -0.390683
    23  C   -0.080058
    24  C   -0.249148
    25  N   -0.648322
    26  C    0.335526
    27  C    0.029624
    28  C    0.023816
    29  C    0.235403
    30  C   -0.362385
    31  C   -0.260499
    32  C   -0.308737
    33  N   -0.670949
    34  C    0.254850
    35  C   -0.003698
    36  C    0.010127
    37  C    0.295777
    38  C   -0.339056
    39  C    0.300557
    40  O   -0.472795
    41  C   -0.302273
    42  C    0.619139
    43  O   -0.484220
    44  O   -0.448901
    45  C   -0.070326
    46  C    0.033905
    47  C   -0.141675
    48  C    0.105544
    49  C   -0.354295
    50  C   -0.196315
    51  C   -0.182507
    52  C   -0.159319
    53  C   -0.044905
    54  C   -0.316223
    55  C   -0.169676
    56  C   -0.173952
    57  C   -0.164969
    58  C   -0.063810
    59  C   -0.314978
    60  C   -0.150554
    61  C   -0.180660
    62  C   -0.156096
    63  C   -0.028994
    64  C   -0.318383
    65  C   -0.301464
    66  H    0.081159
    67  H    0.096169
    68  H    0.086441
    69  H    0.137910
    70  H    0.093583
    71  H    0.117108
    72  H    0.109001
    73  H    0.138643
    74  H    0.132385
    75  H    0.117805
    76  H    0.136385
    77  H    0.152178
    78  H    0.107303
    79  H    0.094482
    80  H    0.131643
    81  H    0.108326
    82  H    0.112623
    83  H    0.103057
    84  H    0.113673
    85  H    0.122382
    86  H    0.120479
    87  H    0.106544
    88  H    0.107034
    89  H    0.109080
    90  H    0.095922
    91  H    0.125830
    92  H    0.104933
    93  H    0.153607
    94  H    0.141654
    95  H    0.161815
    96  H    0.112376
    97  H    0.116020
    98  H    0.131060
    99  H    0.136137
   100  H    0.098600
   101  H    0.093403
   102  H    0.126296
   103  H    0.117989
   104  H    0.109678
   105  H    0.085215
   106  H    0.115928
   107  H    0.095596
   108  H    0.082464
   109  H    0.079181
   110  H    0.097679
   111  H    0.025670
   112  H    0.102260
   113  H    0.101102
   114  H    0.100901
   115  H    0.093944
   116  H    0.071877
   117  H    0.103020
   118  H    0.087632
   119  H    0.068860
   120  H    0.080639
   121  H    0.080799
   122  H    0.059009
   123  H    0.112002
   124  H    0.111515
   125  H    0.084468
   126  H    0.109810
   127  H    0.104241
   128  H    0.053183
   129  H    0.081943
   130  H    0.086657
   131  H    0.093028
   132  H    0.083613
   133  H    0.074502
   134  H    0.098671
   135  H    0.077700
   136  H    0.103539
   137  H    0.116996
 Sum of Mulliken charges =   0.00000

 Dipole moment (field-independent basis, Debye):
    X=              1.0758    Y=              6.2498    Z=              0.9020  Tot=              6.4055
 Quadrupole moment (field-independent basis, Debye-Ang):
   XX=           -330.9039   YY=           -396.7750   ZZ=           -400.2462
   XY=            -41.1954   XZ=              5.5009   YZ=              4.8541

 Normal termination of Gaussian 09 at Fri Jun 28 16:43:29 2019.
