 Gaussian 09, Revision D.01,
 Gaussian 09:  ES64L-G09RevD.01 24-Apr-2013

 -------------------------------------
 # td=(NStates=1) CAM-B3LYP/6-31G(d,p)
 -------------------------------------

 --
 TD
 --
 Symbolic Z-matrix:
 Charge =  0 Multiplicity = 1

                         Standard orientation:
 ---------------------------------------------------------------------
 Center     Atomic      Atomic             Coordinates (Angstroms)
 Number     Number       Type             X           Y           Z
 ---------------------------------------------------------------------
      1         12           0       -7.141657    0.609670    0.028505
      2          6           0       -4.907330   -1.984459    0.545513
      3          6           0       -4.901006    2.718777    1.269086
      4          6           0       -9.383693    3.102629   -0.421139
      5          6           0       -9.569606   -1.716277   -0.872416
      6          7           0       -5.062520    0.456115    0.741123
      7          6           0       -4.352721   -0.762188    0.867273
      8          6           0       -2.909692   -0.402113    1.316314
      9          6           0       -3.051118    1.053075    1.768897
     10          6           0       -4.437701    1.387505    1.222909
     11          6           0       -3.011941    1.348977    3.281961
     12          6           0       -1.897697   -0.543964    0.115838
     13          6           0       -0.386239   -0.386671    0.505532
     14          6           0        0.569216   -0.637936   -0.665233
     15          8           0        0.214143   -1.048322   -1.723567
     16          8           0        1.818398   -0.405543   -0.250208
     17          7           0       -7.212859    2.601217    0.436387
     18          6           0       -6.084124    3.377130    0.863420
     19          6           0       -6.474548    4.772402    0.810158
     20          6           0       -7.741463    4.833307    0.410313
     21          6           0       -8.199739    3.474648    0.176734
     22          6           0       -5.595595    5.852181    1.527494
     23          6           0       -8.666984    6.020478    0.286628
     24          6           0       -8.175866    7.298084    0.195572
     25          7           0       -9.163905    0.702605   -0.564188
     26          6           0       -9.960943    1.822783   -0.615149
     27          6           0      -11.242349    1.480829   -1.098743
     28          6           0      -11.253576    0.112951   -1.243866
     29          6           0      -10.013818   -0.378010   -0.812914
     30          6           0      -12.351311    2.406605   -1.373995
     31          6           0      -12.431396   -0.708921   -1.746898
     32          6           0      -12.244157   -1.034828   -3.107539
     33          7           0       -7.240575   -1.430195   -0.336502
     34          6           0       -8.235566   -2.250511   -0.714830
     35          6           0       -7.832916   -3.625561   -0.566751
     36          6           0       -6.491699   -3.579948   -0.179765
     37          6           0       -6.143382   -2.148804   -0.048542
     38          6           0       -8.637132   -4.866493   -0.957962
     39          6           0       -5.261996   -4.339481    0.081813
     40          8           0       -5.105257   -5.573124    0.093962
     41          6           0       -4.248832   -3.327299    0.600536
     42          6           0       -3.670368   -3.721213    1.968724
     43          8           0       -3.826410   -3.107112    2.973560
     44          8           0       -2.858300   -4.807544    1.854526
     45          6           0       -2.300606   -5.371952    3.101049
     46          6           0        2.805783   -0.643938   -1.239159
     47          6           0        4.165796   -0.540404   -0.791960
     48          6           0        5.088087    0.335815   -1.097985
     49          6           0        5.005281    1.387974   -2.239093
     50          6           0        6.440457    0.391573   -0.325712
     51          6           0        7.683687   -0.178495   -1.096440
     52          6           0        8.938283   -0.016169   -0.225202
     53          6           0       10.235325   -0.520954   -0.900718
     54          6           0       10.059407   -1.980173   -1.243278
     55          6           0       11.555975   -0.239013   -0.010509
     56          6           0       12.803540   -0.509760   -0.688175
     57          6           0       14.061550   -0.009199    0.107779
     58          6           0       15.412050   -0.022639   -0.508952
     59          6           0       15.810363   -1.506637   -0.893743
     60          6           0       16.353925    0.548913    0.348407
     61          6           0       17.940776    0.377133   -0.102590
     62          6           0       18.809136    1.148520    0.859792
     63          6           0       20.261239    1.225532    0.310159
     64          6           0       20.471305    2.119506   -0.898005
     65          6           0       21.313874    1.724857    1.272738
     66          1           0       -3.965855    3.526354    1.281759
     67          1           0      -10.022756    3.848353   -0.766977
     68          1           0      -10.293892   -2.599437   -1.092410
     69          1           0       -2.521436   -1.143607    1.933297
     70          1           0       -2.248304    1.630658    1.264994
     71          1           0       -2.005398    1.097404    3.624449
     72          1           0       -3.341981    2.295483    3.456069
     73          1           0       -3.609901    0.433926    3.953765
     74          1           0       -1.905067   -1.518377   -0.221555
     75          1           0       -2.044597    0.020826   -0.569299
     76          1           0       -0.323344    0.825307    0.779924
     77          1           0       -0.193939   -1.122001    1.300485
     78          1           0       -4.671801    6.226067    0.862490
     79          1           0       -5.930045    6.808484    1.889754
     80          1           0       -4.864894    5.209402    2.224801
     81          1           0       -9.771041    5.652204    0.391993
     82          1           0       -8.744512    8.214014    0.138185
     83          1           0       -7.124788    7.454114    0.567387
     84          1           0      -12.230619    3.041186   -2.401263
     85          1           0      -13.275267    1.961089   -1.414588
     86          1           0      -12.588844    3.199365   -0.721908
     87          1           0      -12.552732   -1.527430   -0.988647
     88          1           0      -13.389724   -0.198072   -1.480900
     89          1           0      -12.980778   -1.692141   -3.378294
     90          1           0      -12.255432   -0.127043   -3.856531
     91          1           0      -11.203370   -1.415325   -3.544395
     92          1           0       -8.859898   -4.793767   -2.028534
     93          1           0       -7.937979   -5.766450   -0.697023
     94          1           0       -9.715873   -5.064946   -0.277310
     95          1           0       -3.464019   -3.390575   -0.188935
     96          1           0       -1.607543   -4.633234    3.680614
     97          1           0       -3.015645   -5.920370    3.851392
     98          1           0       -1.686629   -6.150003    2.797664
     99          1           0        2.472818   -1.655445   -1.671351
    100          1           0        2.515171    0.132019   -2.042685
    101          1           0        4.285952   -1.208721    0.053698
    102          1           0        4.139160    1.258350   -2.531684
    103          1           0        5.240944    2.368928   -1.917817
    104          1           0        5.806731    0.865518   -2.947290
    105          1           0        6.673628    1.421084    0.137212
    106          1           0        6.215388   -0.231410    0.595086
    107          1           0        7.559908   -1.245776   -1.500779
    108          1           0        7.442940    0.634927   -1.945173
    109          1           0        8.931020    0.978709    0.163584
    110          1           0        8.785765   -0.561603    0.739542
    111          1           0       10.420052    0.072291   -1.897636
    112          1           0        9.224146   -2.297163   -1.917895
    113          1           0       10.925702   -2.356619   -1.776779
    114          1           0       10.030028   -2.459722   -0.301613
    115          1           0       11.432846    0.794297    0.441785
    116          1           0       11.479370   -1.076955    0.845526
    117          1           0       13.052847   -1.491376   -0.829257
    118          1           0       12.875358   -0.241389   -1.762177
    119          1           0       14.070113    1.218418    0.254097
    120          1           0       13.880661   -0.423971    1.184801
    121          1           0       15.136357    0.656185   -1.388309
    122          1           0       15.916826   -2.215487    0.088261
    123          1           0       14.863265   -1.833906   -1.428983
    124          1           0       16.667030   -1.258889   -1.565137
    125          1           0       16.245479    1.736774    0.181535
    126          1           0       16.178266    0.259971    1.565566
    127          1           0       18.277375   -0.699774   -0.256854
    128          1           0       17.868473    0.661061   -1.153665
    129          1           0       18.487917    2.127674    0.971130
    130          1           0       18.857108    0.609657    1.761877
    131          1           0       20.442388    0.111550    0.003667
    132          1           0       20.156143    3.086804   -0.811842
    133          1           0       21.403374    2.022702   -1.227888
    134          1           0       19.803075    1.942576   -1.665223
    135          1           0       21.235602    1.182142    2.173159
    136          1           0       22.317497    1.540190    0.905871
    137          1           0       21.241823    2.894812    1.472965
 ---------------------------------------------------------------------

 SCF Done:  E(RCAM-B3LYP) =  -2932.60787648     A.U. after   18 cycles

 Excitation energies and oscillator strengths:

 Excited State   1:      Singlet-A      2.1372 eV  580.12 nm  f=0.2027  <S**2>=0.000
     240 -> 243       -0.27663
     241 -> 242        0.64247
 This state for optimization and/or second-order correction.
 Total Energy, E(TD-HF/TD-KS) =  -2932.52933530
 Copying the excited state density for this state as the 1-particle RhoCI density.

 The electronic state is 1-A.
 Alpha  occ. eigenvalues --  -46.85507 -19.26586 -19.26473 -19.21670 -19.21429
 Alpha  occ. eigenvalues --  -19.19563 -14.42110 -14.39708 -14.38891 -14.38475
 Alpha  occ. eigenvalues --  -10.39650 -10.39407 -10.34705 -10.32366 -10.32121
 Alpha  occ. eigenvalues --  -10.30956 -10.30914 -10.30852 -10.29059 -10.29054
 Alpha  occ. eigenvalues --  -10.29008 -10.28779 -10.28722 -10.28631 -10.28586
 Alpha  occ. eigenvalues --  -10.28438 -10.28401 -10.28148 -10.28118 -10.28007
 Alpha  occ. eigenvalues --  -10.27972 -10.27857 -10.27801 -10.27485 -10.27418
 Alpha  occ. eigenvalues --  -10.27300 -10.27207 -10.27144 -10.27122 -10.27121
 Alpha  occ. eigenvalues --  -10.27046 -10.26867 -10.26746 -10.26557 -10.26368
 Alpha  occ. eigenvalues --  -10.26303 -10.26260 -10.25879 -10.25826 -10.25710
 Alpha  occ. eigenvalues --  -10.25572 -10.25509 -10.25382 -10.25381 -10.25356
 Alpha  occ. eigenvalues --  -10.25306 -10.25284 -10.25267 -10.25024 -10.24570
 Alpha  occ. eigenvalues --  -10.24330 -10.24222 -10.24020 -10.23968 -10.21318
 Alpha  occ. eigenvalues --   -3.14269  -1.88996  -1.88494  -1.88430  -1.19851
 Alpha  occ. eigenvalues --   -1.18001  -1.11348  -1.09754  -1.08932  -1.07272
 Alpha  occ. eigenvalues --   -1.04158  -1.03211  -1.01997  -0.93601  -0.91829
 Alpha  occ. eigenvalues --   -0.91561  -0.90522  -0.89790  -0.89370  -0.89071
 Alpha  occ. eigenvalues --   -0.88531  -0.87965  -0.86933  -0.86284  -0.86109
 Alpha  occ. eigenvalues --   -0.85461  -0.84386  -0.83518  -0.83315  -0.82214
 Alpha  occ. eigenvalues --   -0.82107  -0.81066  -0.80644  -0.80499  -0.78311
 Alpha  occ. eigenvalues --   -0.77824  -0.77095  -0.76663  -0.76577  -0.76372
 Alpha  occ. eigenvalues --   -0.74992  -0.74743  -0.74594  -0.73929  -0.72107
 Alpha  occ. eigenvalues --   -0.71759  -0.71058  -0.69689  -0.69485  -0.68327
 Alpha  occ. eigenvalues --   -0.66947  -0.66527  -0.66200  -0.65211  -0.64809
 Alpha  occ. eigenvalues --   -0.63896  -0.63230  -0.63021  -0.62922  -0.61783
 Alpha  occ. eigenvalues --   -0.61010  -0.60935  -0.60179  -0.60037  -0.59519
 Alpha  occ. eigenvalues --   -0.58621  -0.58366  -0.57961  -0.57855  -0.57316
 Alpha  occ. eigenvalues --   -0.56072  -0.55399  -0.55231  -0.54979  -0.54871
 Alpha  occ. eigenvalues --   -0.54793  -0.54253  -0.54100  -0.54006  -0.53362
 Alpha  occ. eigenvalues --   -0.53297  -0.52930  -0.52849  -0.52309  -0.51831
 Alpha  occ. eigenvalues --   -0.51599  -0.51312  -0.51099  -0.50898  -0.50632
 Alpha  occ. eigenvalues --   -0.50445  -0.50299  -0.50189  -0.49782  -0.49673
 Alpha  occ. eigenvalues --   -0.49407  -0.49217  -0.49026  -0.48663  -0.48288
 Alpha  occ. eigenvalues --   -0.48167  -0.48133  -0.47863  -0.47702  -0.47553
 Alpha  occ. eigenvalues --   -0.47155  -0.46857  -0.46788  -0.46517  -0.46343
 Alpha  occ. eigenvalues --   -0.45861  -0.45674  -0.45298  -0.45266  -0.44891
 Alpha  occ. eigenvalues --   -0.44715  -0.44602  -0.44397  -0.44146  -0.43922
 Alpha  occ. eigenvalues --   -0.43867  -0.43727  -0.43594  -0.43490  -0.43276
 Alpha  occ. eigenvalues --   -0.43131  -0.42898  -0.42556  -0.42432  -0.42155
 Alpha  occ. eigenvalues --   -0.42074  -0.41982  -0.41909  -0.41706  -0.41662
 Alpha  occ. eigenvalues --   -0.41292  -0.41214  -0.40654  -0.40459  -0.40205
 Alpha  occ. eigenvalues --   -0.39969  -0.39865  -0.39833  -0.39497  -0.39415
 Alpha  occ. eigenvalues --   -0.38820  -0.38283  -0.37984  -0.37670  -0.37268
 Alpha  occ. eigenvalues --   -0.36997  -0.36870  -0.36648  -0.36628  -0.36302
 Alpha  occ. eigenvalues --   -0.36260  -0.36143  -0.36096  -0.35857  -0.35727
 Alpha  occ. eigenvalues --   -0.35287  -0.35280  -0.34385  -0.34175  -0.34110
 Alpha  occ. eigenvalues --   -0.33334  -0.32682  -0.32356  -0.30769  -0.30365
 Alpha  occ. eigenvalues --   -0.29638  -0.29255  -0.28006  -0.27575  -0.22982
 Alpha  occ. eigenvalues --   -0.21249
 Alpha virt. eigenvalues --   -0.05935  -0.03236   0.00780   0.03710   0.05552
 Alpha virt. eigenvalues --    0.05967   0.06126   0.06536   0.06813   0.07293
 Alpha virt. eigenvalues --    0.08328   0.10530   0.11033   0.11365   0.11797

 Mulliken charges:
               1
     1  Mg   0.825561
     2  C    0.079564
     3  C   -0.237384
     4  C   -0.206864
     5  C   -0.175213
     6  N   -0.602779
     7  C    0.261846
     8  C   -0.136588
     9  C   -0.142561
    10  C    0.387805
    11  C   -0.294777
    12  C   -0.153722
    13  C   -0.280721
    14  C    0.614460
    15  O   -0.456958
    16  O   -0.459314
    17  N   -0.711404
    18  C    0.287377
    19  C    0.051145
    20  C    0.002745
    21  C    0.338176
    22  C   -0.384270
    23  C   -0.051904
    24  C   -0.255455
    25  N   -0.669298
    26  C    0.289475
    27  C    0.041587
    28  C    0.010626
    29  C    0.284966
    30  C   -0.379991
    31  C   -0.219172
    32  C   -0.298045
    33  N   -0.701773
    34  C    0.252606
    35  C   -0.002262
    36  C    0.008745
    37  C    0.269302
    38  C   -0.367238
    39  C    0.356633
    40  O   -0.478378
    41  C   -0.329090
    42  C    0.639216
    43  O   -0.447393
    44  O   -0.460724
    45  C   -0.084142
    46  C   -0.000361
    47  C   -0.112258
    48  C    0.069552
    49  C   -0.308181
    50  C   -0.237254
    51  C   -0.156794
    52  C   -0.167468
    53  C   -0.063747
    54  C   -0.312728
    55  C   -0.167873
    56  C   -0.177061
    57  C   -0.157572
    58  C   -0.066975
    59  C   -0.293531
    60  C   -0.137706
    61  C   -0.209553
    62  C   -0.153241
    63  C   -0.067519
    64  C   -0.303741
    65  C   -0.300312
    66  H    0.058927
    67  H    0.077856
    68  H    0.101637
    69  H    0.109277
    70  H    0.105906
    71  H    0.113745
    72  H    0.128686
    73  H    0.094485
    74  H    0.116787
    75  H    0.106014
    76  H    0.099709
    77  H    0.133484
    78  H    0.098322
    79  H    0.135495
    80  H    0.113213
    81  H    0.104439
    82  H    0.111628
    83  H    0.097218
    84  H    0.091166
    85  H    0.117847
    86  H    0.122573
    87  H    0.104894
    88  H    0.106091
    89  H    0.111927
    90  H    0.099144
    91  H    0.103935
    92  H    0.135245
    93  H    0.143751
    94  H    0.084987
    95  H    0.175270
    96  H    0.116174
    97  H    0.124078
    98  H    0.138414
    99  H    0.119624
   100  H    0.102066
   101  H    0.090867
   102  H    0.108040
   103  H    0.126100
   104  H    0.113375
   105  H    0.096766
   106  H    0.084840
   107  H    0.101402
   108  H    0.076289
   109  H    0.093044
   110  H    0.090273
   111  H    0.070639
   112  H    0.103651
   113  H    0.101047
   114  H    0.107541
   115  H    0.098971
   116  H    0.070295
   117  H    0.114302
   118  H    0.081861
   119  H    0.042707
   120  H    0.073156
   121  H    0.095075
   122  H    0.094601
   123  H    0.087194
   124  H    0.108241
   125  H    0.069516
   126  H    0.064718
   127  H    0.093856
   128  H    0.097943
   129  H    0.097954
   130  H    0.102561
   131  H    0.064738
   132  H    0.102384
   133  H    0.110124
   134  H    0.089083
   135  H    0.095000
   136  H    0.104444
   137  H    0.083299
 Sum of Mulliken charges =   0.00000

 Dipole moment (field-independent basis, Debye):
    X=              2.7318    Y=              4.1927    Z=              0.4607  Tot=              5.0253
 Quadrupole moment (field-independent basis, Debye-Ang):
   XX=           -351.3820   YY=           -393.7248   ZZ=           -400.4388
   XY=            -21.5376   XZ=              4.2494   YZ=             -5.1531

 Normal termination of Gaussian 09 at Mon Jul  1 02:33:51 2019.
