 Gaussian 09, Revision D.01,
 Gaussian 09:  ES64L-G09RevD.01 24-Apr-2013

 -------------------------------------
 # td=(NStates=1) CAM-B3LYP/6-31G(d,p)
 -------------------------------------

 --
 TD
 --
 Symbolic Z-matrix:
 Charge =  0 Multiplicity = 1

                         Standard orientation:
 ---------------------------------------------------------------------
 Center     Atomic      Atomic             Coordinates (Angstroms)
 Number     Number       Type             X           Y           Z
 ---------------------------------------------------------------------
      1         12           0       -7.169485    0.643382    0.163817
      2          6           0       -4.882220   -1.937485    0.359417
      3          6           0       -4.719776    2.842588    1.026306
      4          6           0       -9.397086    3.190008   -0.372412
      5          6           0       -9.617112   -1.658700   -0.744819
      6          7           0       -5.043745    0.430169    0.656181
      7          6           0       -4.340354   -0.751371    0.761433
      8          6           0       -2.906607   -0.538027    1.204933
      9          6           0       -3.029167    0.987112    1.574337
     10          6           0       -4.336305    1.484516    1.031115
     11          6           0       -2.840538    1.294189    3.119485
     12          6           0       -1.865736   -0.718587    0.032841
     13          6           0       -0.479915   -0.511084    0.607598
     14          6           0        0.543490   -0.696247   -0.465360
     15          8           0        0.341868   -1.144179   -1.604013
     16          8           0        1.775786   -0.353408   -0.042878
     17          7           0       -7.079371    2.644716    0.319117
     18          6           0       -6.005815    3.392747    0.752267
     19          6           0       -6.325431    4.804537    0.814572
     20          6           0       -7.701219    4.821014    0.380011
     21          6           0       -8.089386    3.506049   -0.007376
     22          6           0       -5.480872    5.851047    1.368562
     23          6           0       -8.521298    6.066551    0.324746
     24          6           0       -8.087827    7.260728    0.027410
     25          7           0       -9.104300    0.691476   -0.486034
     26          6           0       -9.867751    1.785637   -0.551195
     27          6           0      -11.203326    1.473385   -1.003992
     28          6           0      -11.366509    0.112012   -1.168869
     29          6           0       -9.950757   -0.429742   -0.745667
     30          6           0      -12.376038    2.404882   -1.175620
     31          6           0      -12.430308   -0.668704   -1.537209
     32          6           0      -12.337911   -0.853842   -3.025071
     33          7           0       -7.250171   -1.317798   -0.147816
     34          6           0       -8.300491   -2.205020   -0.581266
     35          6           0       -7.916805   -3.576115   -0.537253
     36          6           0       -6.595935   -3.538921   -0.106406
     37          6           0       -6.243326   -2.173785    0.100152
     38          6           0       -8.730961   -4.832823   -0.858047
     39          6           0       -5.417360   -4.321354    0.124089
     40          8           0       -5.278179   -5.603557    0.120784
     41          6           0       -4.209488   -3.406129    0.457529
     42          6           0       -3.525148   -3.728515    1.767499
     43          8           0       -3.827640   -3.231388    2.780343
     44          8           0       -2.680152   -4.738354    1.590055
     45          6           0       -2.117338   -5.382976    2.813455
     46          6           0        2.804822   -0.605293   -1.140969
     47          6           0        4.118347   -0.362310   -0.519429
     48          6           0        5.102728    0.391966   -1.011790
     49          6           0        5.085760    1.279775   -2.168005
     50          6           0        6.472688    0.511505   -0.296881
     51          6           0        7.585882   -0.226398   -1.079930
     52          6           0        8.912250   -0.189900   -0.192307
     53          6           0       10.219687   -0.639248   -0.921866
     54          6           0       10.035270   -2.045614   -1.638339
     55          6           0       11.397861   -0.501030    0.026479
     56          6           0       12.776697   -0.646892   -0.658183
     57          6           0       13.976352   -0.117573    0.301486
     58          6           0       15.316536   -0.067774   -0.443161
     59          6           0       15.800571   -1.538560   -0.978497
     60          6           0       16.350833    0.517957    0.449985
     61          6           0       17.817649    0.557936   -0.138911
     62          6           0       18.794106    1.166786    0.748459
     63          6           0       20.243760    1.388872    0.264917
     64          6           0       20.380893    2.108585   -0.953675
     65          6           0       21.082761    1.875050    1.441172
     66          1           0       -3.925258    3.516068    1.353134
     67          1           0      -10.168348    3.935979   -0.378741
     68          1           0      -10.656843   -2.439117   -1.031991
     69          1           0       -2.674081   -1.238654    2.037400
     70          1           0       -2.295963    1.601794    1.029692
     71          1           0       -1.717674    1.247599    3.453508
     72          1           0       -3.140009    2.405132    3.327824
     73          1           0       -3.463463    0.444632    3.696478
     74          1           0       -2.000392   -1.631507   -0.242732
     75          1           0       -2.155929   -0.113314   -0.811463
     76          1           0       -0.255843    0.474520    1.179366
     77          1           0       -0.240162   -1.355716    1.384735
     78          1           0       -4.886785    6.485908    0.690765
     79          1           0       -6.050521    6.660463    2.160794
     80          1           0       -4.774097    5.373434    1.932247
     81          1           0       -9.607110    5.936884    0.602669
     82          1           0       -8.822170    7.903827    0.242201
     83          1           0       -7.104239    7.592341   -0.437020
     84          1           0      -12.014493    3.206879   -1.859207
     85          1           0      -13.337348    1.752323   -1.568015
     86          1           0      -12.535411    2.888696   -0.332669
     87          1           0      -12.633993   -1.464309   -0.859658
     88          1           0      -13.393315   -0.180654   -1.439051
     89          1           0      -13.162487   -1.481494   -3.315108
     90          1           0      -12.174745   -0.028596   -3.663664
     91          1           0      -11.369943   -1.428035   -3.190602
     92          1           0       -9.044359   -4.772961   -1.932645
     93          1           0       -8.165495   -5.884992   -0.318582
     94          1           0       -9.771703   -4.643018   -0.178919
     95          1           0       -3.453075   -3.244284   -0.270097
     96          1           0       -1.448193   -4.762688    3.357913
     97          1           0       -3.001543   -5.729337    3.380717
     98          1           0       -1.699628   -6.107703    2.322461
     99          1           0        2.656626   -1.722714   -1.347361
    100          1           0        2.567502   -0.022617   -1.928628
    101          1           0        4.394181   -0.937481    0.488713
    102          1           0        4.217698    1.443405   -2.526624
    103          1           0        5.411936    2.221900   -1.886124
    104          1           0        5.671099    1.104973   -3.113447
    105          1           0        6.889357    1.586213   -0.201439
    106          1           0        6.568640   -0.043033    0.580521
    107          1           0        7.380283   -1.262235   -1.362144
    108          1           0        7.939766    0.335374   -1.954582
    109          1           0        8.962869    0.777754    0.276902
    110          1           0        8.769392   -0.630256    0.595973
    111          1           0       10.297986    0.133388   -1.735960
    112          1           0        9.358097   -2.002405   -2.547031
    113          1           0       10.990599   -2.490230   -2.166387
    114          1           0        9.565253   -2.758119   -0.877434
    115          1           0       11.377419    0.584676    0.510118
    116          1           0       11.407820   -1.258116    0.806837
    117          1           0       13.038183   -1.706644   -0.932221
    118          1           0       12.814861    0.014408   -1.633569
    119          1           0       13.710736    0.820228    0.699415
    120          1           0       14.020172   -0.773775    1.168420
    121          1           0       15.149277    0.705415   -1.372946
    122          1           0       15.830134   -2.067440   -0.083790
    123          1           0       14.848633   -1.694321   -1.805621
    124          1           0       16.952722   -1.562318   -1.146250
    125          1           0       15.990692    1.593954    0.516920
    126          1           0       16.534613    0.130514    1.341249
    127          1           0       18.118446   -0.488233   -0.304120
    128          1           0       17.748720    0.974662   -1.160157
    129          1           0       18.450082    2.304345    0.905506
    130          1           0       18.726702    0.454584    1.774530
    131          1           0       20.864448    0.390438    0.192068
    132          1           0       20.011655    3.161385   -0.637156
    133          1           0       21.575287    2.492462   -1.202825
    134          1           0       19.807208    1.831716   -1.705995
    135          1           0       20.919740    1.135104    2.385392
    136          1           0       22.046669    2.002095    1.033914
    137          1           0       20.665631    2.774922    1.776822
 ---------------------------------------------------------------------

 SCF Done:  E(RCAM-B3LYP) =  -2932.59654110     A.U. after   17 cycles

 Excitation energies and oscillator strengths:

 Excited State   1:      Singlet-A      2.1442 eV  578.22 nm  f=0.3077  <S**2>=0.000
     240 -> 242       -0.17524
     240 -> 243        0.18132
     241 -> 242        0.64777
     241 -> 243        0.10739
 This state for optimization and/or second-order correction.
 Total Energy, E(TD-HF/TD-KS) =  -2932.51774216
 Copying the excited state density for this state as the 1-particle RhoCI density.

 The electronic state is 1-A.
 Alpha  occ. eigenvalues --  -46.83893 -19.25681 -19.25429 -19.20235 -19.20071
 Alpha  occ. eigenvalues --  -19.17768 -14.41321 -14.40083 -14.39390 -14.39028
 Alpha  occ. eigenvalues --  -10.38540 -10.37943 -10.33696 -10.31670 -10.31033
 Alpha  occ. eigenvalues --  -10.31022 -10.30693 -10.30189 -10.30042 -10.29354
 Alpha  occ. eigenvalues --  -10.28847 -10.28831 -10.28434 -10.28409 -10.28307
 Alpha  occ. eigenvalues --  -10.28163 -10.27868 -10.27612 -10.27598 -10.27594
 Alpha  occ. eigenvalues --  -10.27562 -10.27558 -10.27497 -10.27338 -10.27235
 Alpha  occ. eigenvalues --  -10.27198 -10.27164 -10.27153 -10.26975 -10.26857
 Alpha  occ. eigenvalues --  -10.26763 -10.26737 -10.26684 -10.26473 -10.26402
 Alpha  occ. eigenvalues --  -10.26320 -10.26187 -10.26118 -10.26113 -10.26106
 Alpha  occ. eigenvalues --  -10.26062 -10.25808 -10.25734 -10.25597 -10.25432
 Alpha  occ. eigenvalues --  -10.25367 -10.25358 -10.25343 -10.24865 -10.24605
 Alpha  occ. eigenvalues --  -10.24311 -10.23963 -10.23805 -10.23787 -10.23086
 Alpha  occ. eigenvalues --   -3.13027  -1.87723  -1.87270  -1.87214  -1.18358
 Alpha  occ. eigenvalues --   -1.16618  -1.10008  -1.06926  -1.05166  -1.04466
 Alpha  occ. eigenvalues --   -1.03554  -1.02682  -1.01545  -0.91623  -0.91529
 Alpha  occ. eigenvalues --   -0.91143  -0.91090  -0.89912  -0.89518  -0.89177
 Alpha  occ. eigenvalues --   -0.88598  -0.88431  -0.87525  -0.86407  -0.85623
 Alpha  occ. eigenvalues --   -0.85044  -0.84516  -0.84148  -0.83608  -0.83134
 Alpha  occ. eigenvalues --   -0.82322  -0.81758  -0.80169  -0.79666  -0.78063
 Alpha  occ. eigenvalues --   -0.77468  -0.77297  -0.76644  -0.76396  -0.76182
 Alpha  occ. eigenvalues --   -0.74740  -0.74527  -0.74331  -0.73363  -0.72304
 Alpha  occ. eigenvalues --   -0.71843  -0.70941  -0.70104  -0.68552  -0.67889
 Alpha  occ. eigenvalues --   -0.66951  -0.66617  -0.65343  -0.64958  -0.64835
 Alpha  occ. eigenvalues --   -0.63087  -0.63039  -0.62414  -0.62252  -0.61761
 Alpha  occ. eigenvalues --   -0.61439  -0.61301  -0.60594  -0.59647  -0.58984
 Alpha  occ. eigenvalues --   -0.58389  -0.58112  -0.57536  -0.56797  -0.56646
 Alpha  occ. eigenvalues --   -0.56110  -0.55676  -0.55420  -0.54926  -0.54737
 Alpha  occ. eigenvalues --   -0.54326  -0.53796  -0.53459  -0.53218  -0.53069
 Alpha  occ. eigenvalues --   -0.52805  -0.52632  -0.52110  -0.52045  -0.51900
 Alpha  occ. eigenvalues --   -0.51595  -0.51095  -0.50853  -0.50681  -0.50409
 Alpha  occ. eigenvalues --   -0.50356  -0.50089  -0.49873  -0.49603  -0.49381
 Alpha  occ. eigenvalues --   -0.49174  -0.48851  -0.48635  -0.48450  -0.48256
 Alpha  occ. eigenvalues --   -0.48120  -0.47740  -0.47700  -0.47340  -0.47072
 Alpha  occ. eigenvalues --   -0.47012  -0.46974  -0.46283  -0.46113  -0.46059
 Alpha  occ. eigenvalues --   -0.45975  -0.45785  -0.45691  -0.45267  -0.45039
 Alpha  occ. eigenvalues --   -0.44712  -0.44590  -0.44400  -0.44320  -0.44090
 Alpha  occ. eigenvalues --   -0.44039  -0.43945  -0.43421  -0.43332  -0.42993
 Alpha  occ. eigenvalues --   -0.42763  -0.42290  -0.42163  -0.42066  -0.41775
 Alpha  occ. eigenvalues --   -0.41665  -0.41634  -0.41333  -0.41223  -0.40779
 Alpha  occ. eigenvalues --   -0.40759  -0.40681  -0.40504  -0.40392  -0.40319
 Alpha  occ. eigenvalues --   -0.39795  -0.39763  -0.39588  -0.39413  -0.39097
 Alpha  occ. eigenvalues --   -0.38902  -0.38738  -0.38420  -0.38123  -0.37979
 Alpha  occ. eigenvalues --   -0.37868  -0.37289  -0.37229  -0.37009  -0.36780
 Alpha  occ. eigenvalues --   -0.36608  -0.36242  -0.35960  -0.35809  -0.35390
 Alpha  occ. eigenvalues --   -0.35012  -0.34073  -0.33781  -0.33479  -0.33355
 Alpha  occ. eigenvalues --   -0.33098  -0.33051  -0.32240  -0.30518  -0.29853
 Alpha  occ. eigenvalues --   -0.28838  -0.28334  -0.28059  -0.27802  -0.23140
 Alpha  occ. eigenvalues --   -0.21179
 Alpha virt. eigenvalues --   -0.06720  -0.02059   0.01705   0.04580   0.05733
 Alpha virt. eigenvalues --    0.05775   0.06275   0.06944   0.07499   0.08157
 Alpha virt. eigenvalues --    0.08245   0.09765   0.10529   0.10840   0.11228

 Mulliken charges:
               1
     1  Mg   0.824670
     2  C   -0.005253
     3  C   -0.211778
     4  C   -0.187105
     5  C   -0.198287
     6  N   -0.631002
     7  C    0.282313
     8  C   -0.176876
     9  C   -0.161604
    10  C    0.377737
    11  C   -0.296448
    12  C   -0.142420
    13  C   -0.274856
    14  C    0.626254
    15  O   -0.505607
    16  O   -0.499473
    17  N   -0.734944
    18  C    0.325306
    19  C    0.053838
    20  C   -0.035558
    21  C    0.353417
    22  C   -0.377082
    23  C   -0.103932
    24  C   -0.204344
    25  N   -0.692021
    26  C    0.335381
    27  C   -0.023040
    28  C    0.098384
    29  C    0.314040
    30  C   -0.357560
    31  C   -0.291777
    32  C   -0.314687
    33  N   -0.703359
    34  C    0.190635
    35  C    0.047339
    36  C    0.036527
    37  C    0.296299
    38  C   -0.354127
    39  C    0.337994
    40  O   -0.526133
    41  C   -0.258286
    42  C    0.601048
    43  O   -0.450430
    44  O   -0.466413
    45  C   -0.081829
    46  C    0.018706
    47  C   -0.144514
    48  C    0.137557
    49  C   -0.364125
    50  C   -0.231183
    51  C   -0.189594
    52  C   -0.185621
    53  C   -0.047795
    54  C   -0.318950
    55  C   -0.164872
    56  C   -0.192256
    57  C   -0.168691
    58  C   -0.062801
    59  C   -0.313962
    60  C   -0.155105
    61  C   -0.191236
    62  C   -0.137837
    63  C   -0.048284
    64  C   -0.283100
    65  C   -0.289181
    66  H    0.079849
    67  H    0.090418
    68  H    0.077537
    69  H    0.126409
    70  H    0.101425
    71  H    0.098700
    72  H    0.098712
    73  H    0.117748
    74  H    0.124277
    75  H    0.124983
    76  H    0.134296
    77  H    0.132662
    78  H    0.125426
    79  H    0.102095
    80  H    0.123712
    81  H    0.093644
    82  H    0.097572
    83  H    0.113235
    84  H    0.113025
    85  H    0.095851
    86  H    0.134456
    87  H    0.126091
    88  H    0.107849
    89  H    0.106761
    90  H    0.132513
    91  H    0.104843
    92  H    0.135257
    93  H    0.137486
    94  H    0.087977
    95  H    0.160745
    96  H    0.131514
    97  H    0.142259
    98  H    0.145094
    99  H    0.137013
   100  H    0.136672
   101  H    0.086726
   102  H    0.113126
   103  H    0.123406
   104  H    0.117978
   105  H    0.096892
   106  H    0.103684
   107  H    0.104506
   108  H    0.092518
   109  H    0.079564
   110  H    0.096786
   111  H    0.081048
   112  H    0.105563
   113  H    0.094197
   114  H    0.099190
   115  H    0.077648
   116  H    0.097184
   117  H    0.099828
   118  H    0.073489
   119  H    0.096080
   120  H    0.089461
   121  H    0.057571
   122  H    0.113210
   123  H    0.097542
   124  H    0.099561
   125  H    0.081878
   126  H    0.093709
   127  H    0.086189
   128  H    0.087887
   129  H    0.066201
   130  H    0.062136
   131  H    0.065222
   132  H    0.078680
   133  H    0.074625
   134  H    0.122013
   135  H    0.082922
   136  H    0.102584
   137  H    0.098986
 Sum of Mulliken charges =   0.00000

 Dipole moment (field-independent basis, Debye):
    X=              0.7418    Y=              6.3442    Z=              1.4471  Tot=              6.5493
 Quadrupole moment (field-independent basis, Debye-Ang):
   XX=           -339.2927   YY=           -396.8097   ZZ=           -397.2982
   XY=            -33.0773   XZ=              7.7947   YZ=             -7.5951

 Normal termination of Gaussian 09 at Mon Jul  1 10:00:58 2019.
