 Gaussian 09, Revision D.01,
 Gaussian 09:  ES64L-G09RevD.01 24-Apr-2013

 -------------------------------------
 # td=(NStates=1) CAM-B3LYP/6-31G(d,p)
 -------------------------------------

 --
 TD
 --
 Symbolic Z-matrix:
 Charge =  0 Multiplicity = 1

                         Standard orientation:
 ---------------------------------------------------------------------
 Center     Atomic      Atomic             Coordinates (Angstroms)
 Number     Number       Type             X           Y           Z
 ---------------------------------------------------------------------
      1         12           0       -7.173189    0.550932    0.069028
      2          6           0       -4.911179   -1.945882    0.487044
      3          6           0       -4.978201    2.782682    1.285343
      4          6           0       -9.554561    3.203970   -0.406985
      5          6           0       -9.584226   -1.797046   -0.855251
      6          7           0       -5.115460    0.450283    0.744797
      7          6           0       -4.331438   -0.712451    0.800496
      8          6           0       -2.994465   -0.382433    1.258200
      9          6           0       -2.976122    1.057585    1.645427
     10          6           0       -4.449708    1.508303    1.228038
     11          6           0       -2.887514    1.354683    3.151212
     12          6           0       -1.858626   -0.697852    0.081919
     13          6           0       -0.418762   -0.628907    0.559994
     14          6           0        0.561743   -0.713760   -0.511606
     15          8           0        0.187214   -1.054872   -1.648072
     16          8           0        1.881541   -0.473113   -0.147064
     17          7           0       -7.199239    2.633016    0.340158
     18          6           0       -6.192726    3.366503    0.875756
     19          6           0       -6.519072    4.750024    0.823716
     20          6           0       -7.798722    4.896027    0.332509
     21          6           0       -8.239793    3.477490    0.158958
     22          6           0       -5.634375    5.887307    1.336944
     23          6           0       -8.623611    5.991081    0.263034
     24          6           0       -8.195564    7.307258   -0.024069
     25          7           0       -9.221131    0.678209   -0.530413
     26          6           0       -9.928231    1.731976   -0.682142
     27          6           0      -11.310699    1.329679   -1.098763
     28          6           0      -11.326346    0.027486   -1.222429
     29          6           0       -9.957741   -0.429973   -0.884346
     30          6           0      -12.287538    2.413480   -1.409691
     31          6           0      -12.405212   -0.769076   -1.642633
     32          6           0      -12.281662   -1.073480   -3.173273
     33          7           0       -7.271119   -1.403794   -0.153824
     34          6           0       -8.323449   -2.247242   -0.597599
     35          6           0       -7.854892   -3.662055   -0.472526
     36          6           0       -6.481269   -3.511611    0.053411
     37          6           0       -6.214178   -2.139830    0.104528
     38          6           0       -8.680339   -4.869661   -0.756526
     39          6           0       -5.255106   -4.278599    0.213855
     40          8           0       -5.098876   -5.498881    0.189154
     41          6           0       -4.151262   -3.310845    0.528131
     42          6           0       -3.551731   -3.516068    1.870390
     43          8           0       -3.691274   -2.897917    2.891291
     44          8           0       -2.718082   -4.531629    1.909588
     45          6           0       -2.146836   -4.977058    3.158838
     46          6           0        2.892527   -0.743425   -1.167218
     47          6           0        4.145722   -0.462857   -0.570139
     48          6           0        5.218260    0.265963   -1.176102
     49          6           0        5.024306    1.045091   -2.422554
     50          6           0        6.523675    0.303393   -0.480321
     51          6           0        7.702811   -0.345925   -1.099538
     52          6           0        8.944699   -0.296314   -0.179907
     53          6           0       10.250911   -0.600575   -1.052543
     54          6           0       10.184099   -2.100541   -1.488693
     55          6           0       11.538695   -0.322761   -0.219878
     56          6           0       12.893305   -0.576171   -0.782704
     57          6           0       14.092317   -0.203314    0.144461
     58          6           0       15.443128   -0.243428   -0.444331
     59          6           0       15.784274   -1.572801   -0.925515
     60          6           0       16.456853    0.367025    0.533135
     61          6           0       17.799130    0.678685   -0.122651
     62          6           0       18.709602    1.397782    0.817815
     63          6           0       20.252972    1.503911    0.378665
     64          6           0       20.475722    2.231769   -0.997193
     65          6           0       20.968769    2.174232    1.542992
     66          1           0       -4.256894    3.479108    1.467344
     67          1           0      -10.210737    3.768594   -0.538126
     68          1           0      -10.392581   -2.552808   -1.036566
     69          1           0       -2.581124   -1.102378    2.263480
     70          1           0       -2.349676    1.697965    0.955099
     71          1           0       -1.772110    1.079483    3.591629
     72          1           0       -3.120784    2.410357    3.343548
     73          1           0       -3.550894    0.645488    3.512266
     74          1           0       -1.898351   -1.735764   -0.202929
     75          1           0       -2.077886   -0.120869   -0.576589
     76          1           0       -0.290927    0.401589    1.158664
     77          1           0       -0.200210   -1.349951    1.200777
     78          1           0       -5.016200    6.187180    0.635838
     79          1           0       -6.147318    6.804097    1.676848
     80          1           0       -5.187832    5.603227    2.161629
     81          1           0       -9.762639    6.113704    0.515546
     82          1           0       -8.896010    8.074954    0.080564
     83          1           0       -7.237655    7.307301   -0.140207
     84          1           0      -12.019574    3.161469   -1.978868
     85          1           0      -13.109476    1.707545   -1.884597
     86          1           0      -12.711769    2.923115   -0.512053
     87          1           0      -12.519787   -1.758274   -1.196889
     88          1           0      -13.351600   -0.114338   -1.619840
     89          1           0      -13.265865   -1.516178   -3.434038
     90          1           0      -12.354529   -0.051434   -3.847234
     91          1           0      -11.415458   -1.578636   -3.312826
     92          1           0       -9.336055   -4.998087   -1.631084
     93          1           0       -7.880586   -5.667460   -0.810486
     94          1           0       -9.335519   -4.983653    0.096746
     95          1           0       -3.323277   -3.334737   -0.178773
     96          1           0       -1.691789   -4.055232    3.514904
     97          1           0       -3.007783   -5.340156    3.814907
     98          1           0       -1.358861   -5.633392    2.847220
     99          1           0        2.618129   -1.826230   -1.804964
    100          1           0        2.692586   -0.003681   -1.976872
    101          1           0        4.577251   -1.055367    0.242616
    102          1           0        4.044375    1.061563   -2.801517
    103          1           0        5.258940    2.219822   -2.256204
    104          1           0        5.729863    0.975678   -3.156894
    105          1           0        6.776347    1.327751   -0.090829
    106          1           0        6.472494   -0.273610    0.367925
    107          1           0        7.575993   -1.488397   -1.174307
    108          1           0        7.855448    0.002050   -2.095465
    109          1           0        9.041794    0.716093    0.359712
    110          1           0        8.869694   -1.000456    0.621967
    111          1           0       10.212920   -0.069103   -1.984677
    112          1           0        9.418736   -2.138931   -2.087511
    113          1           0       11.304634   -2.276548   -1.851319
    114          1           0        9.750028   -2.874995   -0.608065
    115          1           0       11.630897    0.614591    0.166383
    116          1           0       11.483790   -1.059653    0.555419
    117          1           0       12.976484   -1.748363   -0.697786
    118          1           0       13.033715    0.088455   -1.884372
    119          1           0       13.788599    0.770955    0.436277
    120          1           0       14.209757   -0.733418    1.072816
    121          1           0       15.403028    0.398796   -1.234887
    122          1           0       15.827634   -2.357093   -0.014761
    123          1           0       14.927022   -1.828938   -1.679662
    124          1           0       16.719869   -1.580001   -1.482406
    125          1           0       16.074028    1.299093    0.996065
    126          1           0       16.588486   -0.254681    1.324351
    127          1           0       18.259040   -0.230962   -0.179304
    128          1           0       17.731022    1.228239   -1.122838
    129          1           0       18.425203    2.405476    0.840961
    130          1           0       18.588818    0.754846    1.773248
    131          1           0       20.778950    0.538593    0.222885
    132          1           0       19.791441    2.978887   -0.985903
    133          1           0       21.436817    2.312042   -1.395632
    134          1           0       19.941151    1.688861   -1.824017
    135          1           0       20.998201    1.626325    2.460525
    136          1           0       22.118529    2.208413    1.280045
    137          1           0       20.592576    3.119499    1.934454
 ---------------------------------------------------------------------

 SCF Done:  E(RCAM-B3LYP) =  -2932.56353613     A.U. after   18 cycles

 Excitation energies and oscillator strengths:

 Excited State   1:      Singlet-A      2.0680 eV  599.53 nm  f=0.2424  <S**2>=0.000
     240 -> 242        0.13222
     240 -> 243       -0.24229
     241 -> 242        0.63713
     241 -> 243        0.10441
 This state for optimization and/or second-order correction.
 Total Energy, E(TD-HF/TD-KS) =  -2932.48753782
 Copying the excited state density for this state as the 1-particle RhoCI density.

 The electronic state is 1-A.
 Alpha  occ. eigenvalues --  -46.85159 -19.26209 -19.24723 -19.20855 -19.19666
 Alpha  occ. eigenvalues --  -19.19113 -14.41501 -14.39749 -14.39570 -14.39228
 Alpha  occ. eigenvalues --  -10.39295 -10.38317 -10.34100 -10.33057 -10.31398
 Alpha  occ. eigenvalues --  -10.31007 -10.30407 -10.30351 -10.30339 -10.29239
 Alpha  occ. eigenvalues --  -10.29087 -10.28970 -10.28739 -10.28684 -10.28604
 Alpha  occ. eigenvalues --  -10.28286 -10.28178 -10.28158 -10.28019 -10.27840
 Alpha  occ. eigenvalues --  -10.27554 -10.27334 -10.27173 -10.26990 -10.26703
 Alpha  occ. eigenvalues --  -10.26578 -10.26575 -10.26505 -10.26480 -10.26352
 Alpha  occ. eigenvalues --  -10.26164 -10.26118 -10.26072 -10.26031 -10.25993
 Alpha  occ. eigenvalues --  -10.25652 -10.25626 -10.25357 -10.25340 -10.25268
 Alpha  occ. eigenvalues --  -10.25252 -10.25094 -10.25010 -10.24985 -10.24802
 Alpha  occ. eigenvalues --  -10.24750 -10.24614 -10.24346 -10.24012 -10.23896
 Alpha  occ. eigenvalues --  -10.23883 -10.23827 -10.23749 -10.23649 -10.23529
 Alpha  occ. eigenvalues --   -3.14039  -1.88762  -1.88256  -1.88221  -1.19050
 Alpha  occ. eigenvalues --   -1.16121  -1.09419  -1.08215  -1.08084  -1.04966
 Alpha  occ. eigenvalues --   -1.04266  -1.03875  -1.02755  -0.93094  -0.92188
 Alpha  occ. eigenvalues --   -0.91899  -0.90382  -0.90301  -0.90015  -0.89597
 Alpha  occ. eigenvalues --   -0.88451  -0.88292  -0.87263  -0.86996  -0.86334
 Alpha  occ. eigenvalues --   -0.85808  -0.84732  -0.84076  -0.83972  -0.82755
 Alpha  occ. eigenvalues --   -0.82468  -0.81955  -0.81125  -0.80566  -0.78980
 Alpha  occ. eigenvalues --   -0.78368  -0.77816  -0.77117  -0.76730  -0.76644
 Alpha  occ. eigenvalues --   -0.75580  -0.75207  -0.74791  -0.73482  -0.72729
 Alpha  occ. eigenvalues --   -0.71282  -0.71254  -0.69904  -0.68868  -0.68533
 Alpha  occ. eigenvalues --   -0.67647  -0.66579  -0.65434  -0.65033  -0.64550
 Alpha  occ. eigenvalues --   -0.63949  -0.63488  -0.63033  -0.62764  -0.62328
 Alpha  occ. eigenvalues --   -0.61914  -0.61162  -0.60376  -0.59694  -0.59591
 Alpha  occ. eigenvalues --   -0.59170  -0.58818  -0.58698  -0.58124  -0.57557
 Alpha  occ. eigenvalues --   -0.56740  -0.56441  -0.56320  -0.55658  -0.55236
 Alpha  occ. eigenvalues --   -0.55097  -0.54789  -0.54370  -0.53690  -0.53633
 Alpha  occ. eigenvalues --   -0.53391  -0.53161  -0.52960  -0.52680  -0.52376
 Alpha  occ. eigenvalues --   -0.52304  -0.51774  -0.51473  -0.51275  -0.51120
 Alpha  occ. eigenvalues --   -0.50752  -0.50614  -0.50476  -0.50025  -0.49689
 Alpha  occ. eigenvalues --   -0.49525  -0.49251  -0.49105  -0.49039  -0.48748
 Alpha  occ. eigenvalues --   -0.48464  -0.48336  -0.48032  -0.47645  -0.47455
 Alpha  occ. eigenvalues --   -0.46965  -0.46778  -0.46345  -0.46294  -0.46058
 Alpha  occ. eigenvalues --   -0.46047  -0.45736  -0.45726  -0.45528  -0.45438
 Alpha  occ. eigenvalues --   -0.45270  -0.45059  -0.44836  -0.44732  -0.44519
 Alpha  occ. eigenvalues --   -0.44192  -0.44057  -0.43903  -0.43790  -0.43672
 Alpha  occ. eigenvalues --   -0.43198  -0.43093  -0.42831  -0.42514  -0.42382
 Alpha  occ. eigenvalues --   -0.42161  -0.42035  -0.41810  -0.41507  -0.41420
 Alpha  occ. eigenvalues --   -0.41341  -0.41070  -0.40653  -0.40480  -0.40234
 Alpha  occ. eigenvalues --   -0.40125  -0.39982  -0.39808  -0.39607  -0.39304
 Alpha  occ. eigenvalues --   -0.39121  -0.38844  -0.38668  -0.38529  -0.38124
 Alpha  occ. eigenvalues --   -0.37807  -0.37154  -0.37058  -0.36771  -0.36552
 Alpha  occ. eigenvalues --   -0.36315  -0.36158  -0.35856  -0.35340  -0.35320
 Alpha  occ. eigenvalues --   -0.35128  -0.34797  -0.34447  -0.33562  -0.33109
 Alpha  occ. eigenvalues --   -0.32869  -0.32722  -0.32360  -0.30198  -0.29551
 Alpha  occ. eigenvalues --   -0.28741  -0.28628  -0.28245  -0.27208  -0.22889
 Alpha  occ. eigenvalues --   -0.20917
 Alpha virt. eigenvalues --   -0.06257  -0.03184   0.01316   0.03005   0.03695
 Alpha virt. eigenvalues --    0.05387   0.05647   0.06279   0.06872   0.07821
 Alpha virt. eigenvalues --    0.08421   0.10618   0.10988   0.11318   0.11933

 Mulliken charges:
               1
     1  Mg   0.826405
     2  C    0.020096
     3  C   -0.213380
     4  C   -0.045978
     5  C   -0.170746
     6  N   -0.638981
     7  C    0.347022
     8  C   -0.205276
     9  C   -0.133231
    10  C    0.312077
    11  C   -0.285541
    12  C   -0.129049
    13  C   -0.271698
    14  C    0.626075
    15  O   -0.486322
    16  O   -0.498513
    17  N   -0.688714
    18  C    0.344493
    19  C   -0.010099
    20  C    0.045398
    21  C    0.271629
    22  C   -0.360717
    23  C   -0.142643
    24  C   -0.207195
    25  N   -0.657431
    26  C    0.267388
    27  C   -0.023902
    28  C    0.118696
    29  C    0.246669
    30  C   -0.355197
    31  C   -0.294766
    32  C   -0.297138
    33  N   -0.778917
    34  C    0.267418
    35  C    0.004187
    36  C   -0.036468
    37  C    0.389182
    38  C   -0.390050
    39  C    0.369047
    40  O   -0.481675
    41  C   -0.302102
    42  C    0.616726
    43  O   -0.482553
    44  O   -0.453916
    45  C   -0.072377
    46  C    0.020976
    47  C   -0.122367
    48  C    0.125254
    49  C   -0.371756
    50  C   -0.230196
    51  C   -0.184797
    52  C   -0.179958
    53  C   -0.070941
    54  C   -0.299164
    55  C   -0.156160
    56  C   -0.190469
    57  C   -0.171379
    58  C   -0.044622
    59  C   -0.297515
    60  C   -0.183854
    61  C   -0.174452
    62  C   -0.177128
    63  C   -0.063248
    64  C   -0.318957
    65  C   -0.303323
    66  H    0.065420
    67  H    0.007742
    68  H    0.101498
    69  H    0.112309
    70  H    0.108067
    71  H    0.079153
    72  H    0.115708
    73  H    0.143753
    74  H    0.113862
    75  H    0.110995
    76  H    0.113889
    77  H    0.146901
    78  H    0.135992
    79  H    0.116316
    80  H    0.123520
    81  H    0.098902
    82  H    0.105308
    83  H    0.087583
    84  H    0.134681
    85  H    0.082439
    86  H    0.112517
    87  H    0.110455
    88  H    0.098142
    89  H    0.104673
    90  H    0.082668
    91  H    0.124081
    92  H    0.125249
    93  H    0.148294
    94  H    0.137892
    95  H    0.174433
    96  H    0.127350
    97  H    0.137721
    98  H    0.133828
    99  H    0.110583
   100  H    0.121296
   101  H    0.088876
   102  H    0.123996
   103  H    0.089131
   104  H    0.135082
   105  H    0.104484
   106  H    0.109116
   107  H    0.092669
   108  H    0.097777
   109  H    0.076143
   110  H    0.104843
   111  H    0.090686
   112  H    0.120571
   113  H    0.103831
   114  H    0.061380
   115  H    0.089966
   116  H    0.096255
   117  H    0.093678
   118  H    0.052652
   119  H    0.085247
   120  H    0.085879
   121  H    0.088120
   122  H    0.073161
   123  H    0.098695
   124  H    0.107446
   125  H    0.080987
   126  H    0.092324
   127  H    0.107104
   128  H    0.078769
   129  H    0.098471
   130  H    0.082919
   131  H    0.081103
   132  H    0.109472
   133  H    0.115317
   134  H    0.087739
   135  H    0.104627
   136  H    0.074635
   137  H    0.099750
 Sum of Mulliken charges =   0.00000

 Dipole moment (field-independent basis, Debye):
    X=              2.2643    Y=              4.6303    Z=              0.5049  Tot=              5.1790
 Quadrupole moment (field-independent basis, Debye-Ang):
   XX=           -348.2504   YY=           -395.1001   ZZ=           -397.3389
   XY=            -21.3621   XZ=              5.4753   YZ=             -4.4096

 Normal termination of Gaussian 09 at Fri Jun 28 12:01:56 2019.
