 Gaussian 09, Revision D.01,
 Gaussian 09:  ES64L-G09RevD.01 24-Apr-2013

 -------------------------------------
 # td=(NStates=1) CAM-B3LYP/6-31G(d,p)
 -------------------------------------

 --
 TD
 --
 Symbolic Z-matrix:
 Charge =  0 Multiplicity = 1

                         Standard orientation:
 ---------------------------------------------------------------------
 Center     Atomic      Atomic             Coordinates (Angstroms)
 Number     Number       Type             X           Y           Z
 ---------------------------------------------------------------------
      1         12           0       -7.160024    0.582873    0.152234
      2          6           0       -4.888781   -1.956429    0.586358
      3          6           0       -4.838318    2.796615    1.214443
      4          6           0       -9.334089    3.146445   -0.401886
      5          6           0       -9.489768   -1.730474   -0.897288
      6          7           0       -5.090121    0.447634    0.746602
      7          6           0       -4.368020   -0.780915    0.911477
      8          6           0       -2.941437   -0.450268    1.287079
      9          6           0       -3.066510    1.005807    1.751037
     10          6           0       -4.374747    1.495993    1.275227
     11          6           0       -2.977951    1.208643    3.287621
     12          6           0       -1.985285   -0.633525    0.199820
     13          6           0       -0.562088   -0.515449    0.620483
     14          6           0        0.471183   -0.694642   -0.556286
     15          8           0        0.300794   -1.108920   -1.654524
     16          8           0        1.784028   -0.372317   -0.218952
     17          7           0       -6.982075    2.626991    0.296434
     18          6           0       -5.991419    3.411258    0.854613
     19          6           0       -6.356847    4.738431    0.873794
     20          6           0       -7.605652    4.837736    0.364373
     21          6           0       -8.022822    3.475475    0.109338
     22          6           0       -5.520781    5.856302    1.447136
     23          6           0       -8.460125    6.027151    0.353615
     24          6           0       -8.083625    7.315280    0.229203
     25          7           0       -9.041605    0.726998   -0.614644
     26          6           0       -9.772232    1.831257   -0.691425
     27          6           0      -11.068677    1.535480   -1.201156
     28          6           0      -11.120269    0.163795   -1.222268
     29          6           0       -9.825863   -0.367893   -0.906727
     30          6           0      -12.227528    2.474206   -1.486422
     31          6           0      -12.376236   -0.663453   -1.791547
     32          6           0      -12.166968   -1.084236   -3.240049
     33          7           0       -7.191459   -1.432681   -0.078007
     34          6           0       -8.243304   -2.283400   -0.631456
     35          6           0       -7.788210   -3.573009   -0.664734
     36          6           0       -6.509944   -3.572616   -0.214613
     37          6           0       -6.158166   -2.248087    0.148786
     38          6           0       -8.635192   -4.755643   -1.014001
     39          6           0       -5.334400   -4.411780    0.189984
     40          8           0       -5.171519   -5.604033    0.140672
     41          6           0       -4.264334   -3.366865    0.549770
     42          6           0       -3.584164   -3.776163    1.848499
     43          8           0       -3.964007   -3.215740    3.005623
     44          8           0       -2.688067   -4.690121    1.818773
     45          6           0       -2.213957   -5.320342    3.119837
     46          6           0        2.810059   -0.658655   -1.242088
     47          6           0        4.109874   -0.328795   -0.519433
     48          6           0        5.054911    0.446113   -1.062848
     49          6           0        5.017881    1.269106   -2.320138
     50          6           0        6.308587    0.582375   -0.265607
     51          6           0        7.565707   -0.084871   -0.970328
     52          6           0        8.960718    0.017521   -0.253761
     53          6           0       10.139619   -0.547988   -1.000422
     54          6           0        9.994173   -1.987694   -1.574111
     55          6           0       11.376139   -0.378265   -0.025390
     56          6           0       12.710226   -0.596238   -0.722251
     57          6           0       13.935568   -0.015066    0.183646
     58          6           0       15.288796   -0.226775   -0.504824
     59          6           0       15.564626   -1.676921   -0.866904
     60          6           0       16.391486    0.366816    0.345289
     61          6           0       17.768693    0.648423   -0.230094
     62          6           0       18.671446    1.308415    0.769002
     63          6           0       20.129643    1.260924    0.347271
     64          6           0       20.469826    2.025690   -1.009288
     65          6           0       21.129933    1.831974    1.441023
     66          1           0       -4.025427    3.560235    1.699327
     67          1           0      -10.052257    4.069132   -0.759290
     68          1           0      -10.304036   -2.403132   -1.205326
     69          1           0       -2.679890   -1.184545    1.928922
     70          1           0       -2.227690    1.598370    1.398073
     71          1           0       -2.045835    0.873688    3.733833
     72          1           0       -3.094220    2.316534    3.666701
     73          1           0       -3.684320    0.583188    3.904426
     74          1           0       -2.068596   -1.571562   -0.276059
     75          1           0       -2.024019    0.188057   -0.609295
     76          1           0       -0.410743    0.556079    0.893513
     77          1           0       -0.121882   -1.308712    1.331082
     78          1           0       -4.782480    6.266597    0.711687
     79          1           0       -6.051615    6.600935    1.792245
     80          1           0       -4.976383    5.686312    2.278060
     81          1           0       -9.637483    5.859133    0.470400
     82          1           0       -8.764914    8.087720    0.305076
     83          1           0       -7.123022    7.711243    0.136864
     84          1           0      -11.991181    3.401844   -2.341019
     85          1           0      -12.873003    1.989075   -1.831074
     86          1           0      -12.440484    3.139867   -0.527562
     87          1           0      -12.558074   -1.605280   -1.167470
     88          1           0      -13.277674   -0.182674   -1.758968
     89          1           0      -13.077337   -1.558350   -3.580566
     90          1           0      -12.086136   -0.177926   -3.795665
     91          1           0      -11.323342   -1.597132   -3.442421
     92          1           0       -8.832177   -4.813793   -2.131110
     93          1           0       -8.220530   -5.733480   -0.900856
     94          1           0       -9.526922   -4.908611   -0.305073
     95          1           0       -3.305211   -3.508867   -0.131268
     96          1           0       -1.576338   -4.706101    3.606527
     97          1           0       -3.335602   -5.474209    3.713575
     98          1           0       -1.923214   -6.223949    2.765069
     99          1           0        2.545030   -1.787344   -1.359546
    100          1           0        2.680806   -0.009476   -2.097473
    101          1           0        4.334092   -0.737383    0.470191
    102          1           0        4.137485    1.137101   -2.697240
    103          1           0        5.137319    2.135052   -2.143485
    104          1           0        5.607307    0.842105   -3.188051
    105          1           0        6.438145    1.631837   -0.001674
    106          1           0        6.293210    0.120281    0.747671
    107          1           0        7.387652   -1.240866   -1.361720
    108          1           0        7.765528    0.400119   -1.940071
    109          1           0        9.166904    1.103911    0.097106
    110          1           0        8.851449   -0.444794    0.713744
    111          1           0       10.058774    0.111251   -1.778235
    112          1           0        9.286586   -2.087248   -2.261741
    113          1           0       10.930337   -2.225298   -2.182792
    114          1           0       10.000562   -2.856459   -0.624346
    115          1           0       11.364707    0.644639    0.499764
    116          1           0       11.209079   -1.085694    0.713120
    117          1           0       13.021273   -1.724704   -0.800427
    118          1           0       12.811718   -0.168532   -1.710192
    119          1           0       13.861913    1.037036    0.293978
    120          1           0       13.908269   -0.392591    1.364040
    121          1           0       15.178949    0.340173   -1.471240
    122          1           0       15.694133   -2.248327   -0.016416
    123          1           0       14.804953   -2.264009   -1.575118
    124          1           0       16.528305   -1.783229   -1.446522
    125          1           0       15.919423    1.331118    0.867727
    126          1           0       16.334515   -0.330356    1.137985
    127          1           0       18.333782   -0.265135   -0.455212
    128          1           0       17.724887    1.268621   -1.063562
    129          1           0       18.398039    2.371811    0.807098
    130          1           0       18.431628    0.905787    1.867196
    131          1           0       20.558594    0.273341    0.205299
    132          1           0       20.232977    3.142785   -0.942817
    133          1           0       21.456844    1.838193   -1.371691
    134          1           0       19.829486    1.717472   -1.898675
    135          1           0       20.752746    1.176971    2.479625
    136          1           0       22.264536    1.648273    1.204067
    137          1           0       20.879075    2.951218    1.406757
 ---------------------------------------------------------------------

 SCF Done:  E(RCAM-B3LYP) =  -2932.64683876     A.U. after   18 cycles

 Excitation energies and oscillator strengths:

 Excited State   1:      Singlet-A      2.0509 eV  604.55 nm  f=0.2226  <S**2>=0.000
     240 -> 243       -0.24056
     241 -> 242        0.65827
 This state for optimization and/or second-order correction.
 Total Energy, E(TD-HF/TD-KS) =  -2932.57147091
 Copying the excited state density for this state as the 1-particle RhoCI density.

 The electronic state is 1-A.
 Alpha  occ. eigenvalues --  -46.83734 -19.27792 -19.23705 -19.20636 -19.20461
 Alpha  occ. eigenvalues --  -19.18148 -14.41393 -14.38963 -14.38934 -14.38666
 Alpha  occ. eigenvalues --  -10.39088 -10.38574 -10.35275 -10.33035 -10.31820
 Alpha  occ. eigenvalues --  -10.31154 -10.30027 -10.29709 -10.29493 -10.29170
 Alpha  occ. eigenvalues --  -10.28860 -10.28682 -10.28661 -10.28533 -10.28292
 Alpha  occ. eigenvalues --  -10.28160 -10.28086 -10.28047 -10.27827 -10.27410
 Alpha  occ. eigenvalues --  -10.27010 -10.26919 -10.26858 -10.26753 -10.26496
 Alpha  occ. eigenvalues --  -10.26495 -10.26495 -10.26434 -10.26403 -10.26384
 Alpha  occ. eigenvalues --  -10.26359 -10.26331 -10.26286 -10.26244 -10.26069
 Alpha  occ. eigenvalues --  -10.25947 -10.25875 -10.25827 -10.25790 -10.25644
 Alpha  occ. eigenvalues --  -10.25618 -10.25496 -10.25465 -10.25402 -10.25342
 Alpha  occ. eigenvalues --  -10.25265 -10.25160 -10.25101 -10.25022 -10.24614
 Alpha  occ. eigenvalues --  -10.24561 -10.24318 -10.24143 -10.23407 -10.23082
 Alpha  occ. eigenvalues --   -3.12756  -1.87470  -1.86984  -1.86936  -1.18458
 Alpha  occ. eigenvalues --   -1.17029  -1.11682  -1.07628  -1.04721  -1.03825
 Alpha  occ. eigenvalues --   -1.03389  -1.02123  -1.02032  -0.92706  -0.91652
 Alpha  occ. eigenvalues --   -0.91114  -0.90641  -0.89474  -0.89433  -0.88567
 Alpha  occ. eigenvalues --   -0.87999  -0.87789  -0.87506  -0.87289  -0.85777
 Alpha  occ. eigenvalues --   -0.84626  -0.83888  -0.83781  -0.83171  -0.82538
 Alpha  occ. eigenvalues --   -0.82052  -0.81560  -0.81225  -0.80308  -0.79137
 Alpha  occ. eigenvalues --   -0.78752  -0.77730  -0.76966  -0.76702  -0.75903
 Alpha  occ. eigenvalues --   -0.75292  -0.74604  -0.73929  -0.73613  -0.72770
 Alpha  occ. eigenvalues --   -0.72232  -0.70631  -0.69955  -0.69089  -0.68397
 Alpha  occ. eigenvalues --   -0.67111  -0.66554  -0.66061  -0.65336  -0.64334
 Alpha  occ. eigenvalues --   -0.63531  -0.63286  -0.62618  -0.61996  -0.61789
 Alpha  occ. eigenvalues --   -0.61273  -0.61108  -0.60713  -0.59841  -0.59204
 Alpha  occ. eigenvalues --   -0.59087  -0.58553  -0.57585  -0.57092  -0.56751
 Alpha  occ. eigenvalues --   -0.55847  -0.55455  -0.55154  -0.54867  -0.54771
 Alpha  occ. eigenvalues --   -0.54424  -0.54074  -0.53840  -0.53548  -0.53195
 Alpha  occ. eigenvalues --   -0.53128  -0.52947  -0.52486  -0.51740  -0.51464
 Alpha  occ. eigenvalues --   -0.51332  -0.51173  -0.50978  -0.50891  -0.50710
 Alpha  occ. eigenvalues --   -0.50405  -0.50175  -0.49910  -0.49782  -0.49624
 Alpha  occ. eigenvalues --   -0.49582  -0.49049  -0.48897  -0.48582  -0.48410
 Alpha  occ. eigenvalues --   -0.48313  -0.48140  -0.47518  -0.47425  -0.47373
 Alpha  occ. eigenvalues --   -0.47013  -0.46848  -0.46510  -0.46183  -0.46013
 Alpha  occ. eigenvalues --   -0.45591  -0.45580  -0.45246  -0.44912  -0.44724
 Alpha  occ. eigenvalues --   -0.44633  -0.44223  -0.44130  -0.43991  -0.43864
 Alpha  occ. eigenvalues --   -0.43603  -0.43326  -0.43197  -0.43076  -0.42985
 Alpha  occ. eigenvalues --   -0.42813  -0.42696  -0.42501  -0.42441  -0.42131
 Alpha  occ. eigenvalues --   -0.42012  -0.41638  -0.41369  -0.41290  -0.40979
 Alpha  occ. eigenvalues --   -0.40758  -0.40712  -0.40542  -0.40331  -0.40272
 Alpha  occ. eigenvalues --   -0.40190  -0.40000  -0.39779  -0.39342  -0.39111
 Alpha  occ. eigenvalues --   -0.38882  -0.38490  -0.38278  -0.38187  -0.38032
 Alpha  occ. eigenvalues --   -0.37573  -0.37265  -0.37146  -0.37002  -0.36735
 Alpha  occ. eigenvalues --   -0.36586  -0.36275  -0.35978  -0.35754  -0.35654
 Alpha  occ. eigenvalues --   -0.35130  -0.34904  -0.34299  -0.33531  -0.33437
 Alpha  occ. eigenvalues --   -0.32855  -0.32511  -0.31563  -0.30810  -0.29965
 Alpha  occ. eigenvalues --   -0.29597  -0.29340  -0.28113  -0.27921  -0.23311
 Alpha  occ. eigenvalues --   -0.21420
 Alpha virt. eigenvalues --   -0.06680  -0.03076   0.02048   0.04280   0.05729
 Alpha virt. eigenvalues --    0.06141   0.06552   0.07176   0.07272   0.07899
 Alpha virt. eigenvalues --    0.08370   0.10974   0.11540   0.11783   0.11892

 Mulliken charges:
               1
     1  Mg   0.813248
     2  C    0.188724
     3  C   -0.249829
     4  C   -0.191861
     5  C   -0.167794
     6  N   -0.650156
     7  C    0.256312
     8  C   -0.095732
     9  C   -0.171341
    10  C    0.403701
    11  C   -0.323001
    12  C   -0.171266
    13  C   -0.255747
    14  C    0.566636
    15  O   -0.448242
    16  O   -0.518509
    17  N   -0.711667
    18  C    0.350711
    19  C    0.035188
    20  C    0.009579
    21  C    0.307029
    22  C   -0.360483
    23  C   -0.094980
    24  C   -0.237972
    25  N   -0.723345
    26  C    0.324303
    27  C    0.013161
    28  C   -0.023575
    29  C    0.304229
    30  C   -0.294393
    31  C   -0.235974
    32  C   -0.307084
    33  N   -0.746895
    34  C    0.258888
    35  C    0.027491
    36  C   -0.009924
    37  C    0.259023
    38  C   -0.388934
    39  C    0.412984
    40  O   -0.454624
    41  C   -0.344246
    42  C    0.588748
    43  O   -0.557194
    44  O   -0.435563
    45  C   -0.072159
    46  C    0.023708
    47  C   -0.112915
    48  C    0.091168
    49  C   -0.315738
    50  C   -0.232211
    51  C   -0.182382
    52  C   -0.181176
    53  C   -0.056676
    54  C   -0.294141
    55  C   -0.167964
    56  C   -0.180404
    57  C   -0.180699
    58  C   -0.057080
    59  C   -0.312304
    60  C   -0.173915
    61  C   -0.162606
    62  C   -0.159841
    63  C   -0.071274
    64  C   -0.323296
    65  C   -0.279296
    66  H    0.061872
    67  H    0.102065
    68  H    0.107622
    69  H    0.122074
    70  H    0.110511
    71  H    0.112194
    72  H    0.096770
    73  H    0.127631
    74  H    0.123851
    75  H    0.106066
    76  H    0.134790
    77  H    0.130939
    78  H    0.114999
    79  H    0.125075
    80  H    0.119870
    81  H    0.092512
    82  H    0.103195
    83  H    0.107222
    84  H    0.071701
    85  H    0.100908
    86  H    0.109938
    87  H    0.089038
    88  H    0.109986
    89  H    0.101174
    90  H    0.109958
    91  H    0.119595
    92  H    0.118974
    93  H    0.145721
    94  H    0.118264
    95  H    0.150682
    96  H    0.154803
    97  H    0.137810
    98  H    0.152322
    99  H    0.120720
   100  H    0.125754
   101  H    0.095082
   102  H    0.106108
   103  H    0.122859
   104  H    0.113679
   105  H    0.097530
   106  H    0.095338
   107  H    0.076215
   108  H    0.087833
   109  H    0.077080
   110  H    0.084024
   111  H    0.094548
   112  H    0.117510
   113  H    0.097175
   114  H    0.065713
   115  H    0.083481
   116  H    0.109339
   117  H    0.091481
   118  H    0.099116
   119  H    0.099077
   120  H    0.053375
   121  H    0.074152
   122  H    0.109830
   123  H    0.087021
   124  H    0.093754
   125  H    0.065785
   126  H    0.097641
   127  H    0.097441
   128  H    0.106919
   129  H    0.090242
   130  H    0.077190
   131  H    0.093154
   132  H    0.091999
   133  H    0.111591
   134  H    0.091897
   135  H    0.067068
   136  H    0.095306
   137  H    0.097422
 Sum of Mulliken charges =   0.00000

 Dipole moment (field-independent basis, Debye):
    X=              1.7735    Y=              3.7488    Z=              0.4143  Tot=              4.1678
 Quadrupole moment (field-independent basis, Debye-Ang):
   XX=           -350.7009   YY=           -380.6485   ZZ=           -395.7551
   XY=            -21.0768   XZ=             -2.1091   YZ=             -3.4031

 Normal termination of Gaussian 09 at Sun Jun 30 15:58:26 2019.
