 Gaussian 09, Revision D.01,
 Gaussian 09:  ES64L-G09RevD.01 24-Apr-2013

 -------------------------------------
 # td=(NStates=1) CAM-B3LYP/6-31G(d,p)
 -------------------------------------

 --
 TD
 --
 Symbolic Z-matrix:
 Charge =  0 Multiplicity = 1

                         Standard orientation:
 ---------------------------------------------------------------------
 Center     Atomic      Atomic             Coordinates (Angstroms)
 Number     Number       Type             X           Y           Z
 ---------------------------------------------------------------------
      1         12           0       -7.193741    0.587346    0.128868
      2          6           0       -4.830530   -1.986089    0.519392
      3          6           0       -4.854972    2.810547    1.025465
      4          6           0       -9.455879    3.064732   -0.410062
      5          6           0       -9.565167   -1.717344   -0.759253
      6          7           0       -5.113877    0.358561    0.751736
      7          6           0       -4.392540   -0.711438    0.781973
      8          6           0       -2.957223   -0.296706    1.140025
      9          6           0       -3.072766    1.056486    1.505246
     10          6           0       -4.419705    1.481272    1.200776
     11          6           0       -2.841279    1.366836    3.001108
     12          6           0       -2.000412   -0.625607   -0.020380
     13          6           0       -0.465165   -0.330590    0.492109
     14          6           0        0.446806   -0.672485   -0.665594
     15          8           0        0.165175   -0.766495   -1.808940
     16          8           0        1.768006   -0.448338   -0.293564
     17          7           0       -7.179628    2.609001    0.332969
     18          6           0       -6.171486    3.350276    0.914843
     19          6           0       -6.565501    4.692990    0.995194
     20          6           0       -7.850925    4.772680    0.416630
     21          6           0       -8.283587    3.500712    0.211818
     22          6           0       -5.647709    5.803674    1.456722
     23          6           0       -8.600705    5.925453    0.309364
     24          6           0       -8.300391    7.296680    0.140783
     25          7           0       -9.150916    0.636870   -0.530867
     26          6           0       -9.899188    1.729682   -0.670946
     27          6           0      -11.199960    1.425711   -1.033397
     28          6           0      -11.259913    0.129477   -1.270212
     29          6           0       -9.985878   -0.408201   -0.876094
     30          6           0      -12.409818    2.439093   -1.322491
     31          6           0      -12.348882   -0.795171   -1.753911
     32          6           0      -12.148501   -1.221729   -3.178214
     33          7           0       -7.264014   -1.471461    0.036261
     34          6           0       -8.272010   -2.249751   -0.466976
     35          6           0       -7.821535   -3.568026   -0.573742
     36          6           0       -6.563815   -3.550085    0.014426
     37          6           0       -6.162352   -2.250098    0.213067
     38          6           0       -8.689975   -4.792596   -0.873526
     39          6           0       -5.369295   -4.275576    0.202327
     40          8           0       -5.219499   -5.506697    0.149749
     41          6           0       -4.141163   -3.280775    0.518091
     42          6           0       -3.508185   -3.664065    1.788546
     43          8           0       -3.720762   -3.130937    2.851352
     44          8           0       -2.661504   -4.773905    1.766366
     45          6           0       -2.155665   -5.255893    2.971184
     46          6           0        2.868615   -0.540303   -1.335520
     47          6           0        4.124039   -0.384024   -0.557920
     48          6           0        5.143045    0.352202   -1.005613
     49          6           0        5.188077    1.380077   -2.145356
     50          6           0        6.523111    0.382328   -0.269223
     51          6           0        7.711247   -0.282667   -0.979454
     52          6           0        9.073615   -0.035539   -0.194449
     53          6           0       10.262734   -0.595914   -1.003600
     54          6           0       10.056302   -2.112611   -1.295027
     55          6           0       11.567912   -0.354059   -0.115033
     56          6           0       12.846809   -0.557894   -0.789000
     57          6           0       13.992514   -0.103676    0.113528
     58          6           0       15.341616   -0.246300   -0.441705
     59          6           0       15.660828   -1.669493   -0.758846
     60          6           0       16.473971    0.392184    0.437587
     61          6           0       17.855108    0.499017   -0.176058
     62          6           0       18.761571    1.303069    0.711518
     63          6           0       20.280056    1.311633    0.342590
     64          6           0       20.418564    2.192715   -0.906307
     65          6           0       21.209563    1.925454    1.384581
     66          1           0       -4.088621    3.575878    1.371464
     67          1           0      -10.182964    3.931400   -0.646005
     68          1           0      -10.402063   -2.270172   -1.037601
     69          1           0       -2.544674   -0.887434    1.797591
     70          1           0       -2.268917    1.750557    0.960279
     71          1           0       -1.775267    0.853677    3.267409
     72          1           0       -2.872702    2.406303    3.380891
     73          1           0       -3.398087    0.623277    3.613347
     74          1           0       -2.056087   -1.559595   -0.344649
     75          1           0       -2.090741    0.124391   -0.825392
     76          1           0       -0.265347    0.698245    0.712359
     77          1           0       -0.097859   -0.903765    1.475108
     78          1           0       -4.956510    6.194121    0.522873
     79          1           0       -6.239904    6.740067    1.725976
     80          1           0       -4.898408    5.562838    2.068065
     81          1           0       -9.642434    5.831216    0.552832
     82          1           0       -9.073273    8.168614    0.034676
     83          1           0       -7.187945    7.515031    0.030963
     84          1           0      -12.029298    3.089068   -2.079309
     85          1           0      -13.324406    1.822932   -1.405251
     86          1           0      -12.533289    2.973610   -0.338715
     87          1           0      -12.345607   -1.724889   -1.145469
     88          1           0      -13.149117   -0.212866   -1.721064
     89          1           0      -12.953389   -1.789602   -3.526957
     90          1           0      -12.113493   -0.374302   -3.702931
     91          1           0      -11.306176   -1.825585   -3.220649
     92          1           0       -9.159933   -4.538325   -1.737417
     93          1           0       -8.009797   -5.599208   -0.765490
     94          1           0       -9.445699   -4.919656   -0.062118
     95          1           0       -3.342288   -3.363226   -0.227949
     96          1           0       -1.660620   -4.476371    3.750065
     97          1           0       -2.990630   -5.690270    3.714106
     98          1           0       -1.463726   -6.229201    2.745992
     99          1           0        2.790055   -1.629955   -1.714638
    100          1           0        2.527012    0.288794   -2.035936
    101          1           0        4.372318   -1.154094    0.189050
    102          1           0        4.164308    1.496593   -2.608046
    103          1           0        5.430015    2.295139   -1.691334
    104          1           0        5.910358    0.967276   -2.760447
    105          1           0        6.783518    1.370775    0.190843
    106          1           0        6.414613   -0.224909    0.762031
    107          1           0        7.700555   -1.330938   -1.306084
    108          1           0        7.844279    0.468309   -1.803012
    109          1           0        8.949932    1.077945    0.064335
    110          1           0        9.181820   -0.416711    0.633792
    111          1           0       10.203226   -0.052512   -1.969542
    112          1           0        9.116014   -2.169345   -2.047838
    113          1           0       11.100441   -2.605897   -1.571806
    114          1           0        9.709274   -2.704454   -0.324405
    115          1           0       11.455106    0.711367    0.302813
    116          1           0       11.530714   -1.087067    0.726924
    117          1           0       12.844688   -1.537542   -1.197056
    118          1           0       13.035661    0.038860   -1.621727
    119          1           0       13.888998    0.803314    0.529937
    120          1           0       14.147681   -0.677581    1.215474
    121          1           0       15.589477    0.330157   -1.502312
    122          1           0       15.613223   -2.276171    0.250042
    123          1           0       14.957763   -2.107984   -1.387943
    124          1           0       16.659802   -1.896809   -1.300121
    125          1           0       15.833242    1.394240    0.664681
    126          1           0       16.443368    0.112867    1.371782
    127          1           0       18.378582   -0.433519   -0.543322
    128          1           0       17.473129    1.350955   -1.131973
    129          1           0       18.285703    2.241479    0.875384
    130          1           0       18.567782    0.923376    1.655521
    131          1           0       20.477699    0.176022    0.007746
    132          1           0       20.164405    3.390795   -0.784898
    133          1           0       21.407449    2.222850   -1.123590
    134          1           0       19.885549    1.865423   -1.663905
    135          1           0       20.942155    1.385069    2.325786
    136          1           0       22.180339    1.793082    1.063405
    137          1           0       20.977477    2.834410    1.560638
 ---------------------------------------------------------------------

 SCF Done:  E(RCAM-B3LYP) =  -2932.58798282     A.U. after   18 cycles

 Excitation energies and oscillator strengths:

 Excited State   1:      Singlet-A      1.9549 eV  634.24 nm  f=0.3055  <S**2>=0.000
     240 -> 242       -0.13797
     240 -> 243        0.22195
     241 -> 242        0.64661
 This state for optimization and/or second-order correction.
 Total Energy, E(TD-HF/TD-KS) =  -2932.51614327
 Copying the excited state density for this state as the 1-particle RhoCI density.

 The electronic state is 1-A.
 Alpha  occ. eigenvalues --  -46.84461 -19.25602 -19.23287 -19.20713 -19.20665
 Alpha  occ. eigenvalues --  -19.19395 -14.41407 -14.39317 -14.39221 -14.38442
 Alpha  occ. eigenvalues --  -10.39051 -10.38276 -10.34609 -10.32994 -10.32665
 Alpha  occ. eigenvalues --  -10.31190 -10.30241 -10.29857 -10.29155 -10.29041
 Alpha  occ. eigenvalues --  -10.29014 -10.28675 -10.28659 -10.28596 -10.28410
 Alpha  occ. eigenvalues --  -10.28363 -10.28036 -10.28016 -10.27766 -10.27669
 Alpha  occ. eigenvalues --  -10.27588 -10.27558 -10.27430 -10.27367 -10.27353
 Alpha  occ. eigenvalues --  -10.27348 -10.27346 -10.27215 -10.27042 -10.27021
 Alpha  occ. eigenvalues --  -10.26847 -10.26682 -10.26674 -10.26655 -10.26333
 Alpha  occ. eigenvalues --  -10.26268 -10.26228 -10.25980 -10.25880 -10.25846
 Alpha  occ. eigenvalues --  -10.25660 -10.25520 -10.25429 -10.25420 -10.25278
 Alpha  occ. eigenvalues --  -10.24946 -10.24768 -10.24327 -10.24321 -10.24156
 Alpha  occ. eigenvalues --  -10.24041 -10.23382 -10.23071 -10.22888 -10.22664
 Alpha  occ. eigenvalues --   -3.13382  -1.88108  -1.87623  -1.87535  -1.17413
 Alpha  occ. eigenvalues --   -1.16538  -1.09093  -1.08797  -1.07411  -1.06232
 Alpha  occ. eigenvalues --   -1.05117  -1.04016  -1.03102  -0.93874  -0.91738
 Alpha  occ. eigenvalues --   -0.91436  -0.90715  -0.90400  -0.89935  -0.89734
 Alpha  occ. eigenvalues --   -0.88755  -0.88548  -0.88189  -0.87018  -0.86159
 Alpha  occ. eigenvalues --   -0.85844  -0.84575  -0.84216  -0.83319  -0.82999
 Alpha  occ. eigenvalues --   -0.81990  -0.81488  -0.80608  -0.80118  -0.78905
 Alpha  occ. eigenvalues --   -0.78268  -0.77605  -0.76770  -0.75865  -0.75676
 Alpha  occ. eigenvalues --   -0.75590  -0.75434  -0.74731  -0.73622  -0.73492
 Alpha  occ. eigenvalues --   -0.72409  -0.71549  -0.70710  -0.69308  -0.68965
 Alpha  occ. eigenvalues --   -0.67955  -0.66492  -0.65779  -0.65667  -0.65433
 Alpha  occ. eigenvalues --   -0.64211  -0.63676  -0.63404  -0.61863  -0.61711
 Alpha  occ. eigenvalues --   -0.61502  -0.61412  -0.60126  -0.59900  -0.59394
 Alpha  occ. eigenvalues --   -0.58939  -0.58556  -0.57987  -0.57490  -0.56514
 Alpha  occ. eigenvalues --   -0.56365  -0.56022  -0.55435  -0.55303  -0.54631
 Alpha  occ. eigenvalues --   -0.54402  -0.54269  -0.53846  -0.53350  -0.53249
 Alpha  occ. eigenvalues --   -0.52957  -0.52882  -0.52604  -0.52410  -0.52367
 Alpha  occ. eigenvalues --   -0.51984  -0.51558  -0.51151  -0.51099  -0.50994
 Alpha  occ. eigenvalues --   -0.50865  -0.50589  -0.50370  -0.50241  -0.49938
 Alpha  occ. eigenvalues --   -0.49851  -0.49642  -0.49472  -0.49182  -0.48977
 Alpha  occ. eigenvalues --   -0.48460  -0.48303  -0.48232  -0.47910  -0.47677
 Alpha  occ. eigenvalues --   -0.47483  -0.47069  -0.46895  -0.46727  -0.46580
 Alpha  occ. eigenvalues --   -0.45950  -0.45705  -0.45474  -0.45103  -0.45029
 Alpha  occ. eigenvalues --   -0.44832  -0.44716  -0.44656  -0.44599  -0.44274
 Alpha  occ. eigenvalues --   -0.43940  -0.43860  -0.43585  -0.43438  -0.43372
 Alpha  occ. eigenvalues --   -0.43150  -0.43113  -0.42786  -0.42684  -0.42600
 Alpha  occ. eigenvalues --   -0.42379  -0.42111  -0.41853  -0.41752  -0.41655
 Alpha  occ. eigenvalues --   -0.41431  -0.41271  -0.41094  -0.40932  -0.40829
 Alpha  occ. eigenvalues --   -0.40514  -0.39966  -0.39850  -0.39762  -0.39430
 Alpha  occ. eigenvalues --   -0.39346  -0.38749  -0.38555  -0.38260  -0.38044
 Alpha  occ. eigenvalues --   -0.37665  -0.37347  -0.36933  -0.36469  -0.36425
 Alpha  occ. eigenvalues --   -0.36164  -0.36002  -0.35520  -0.34979  -0.34889
 Alpha  occ. eigenvalues --   -0.34873  -0.34197  -0.34002  -0.33626  -0.33306
 Alpha  occ. eigenvalues --   -0.33220  -0.32947  -0.32386  -0.30990  -0.30206
 Alpha  occ. eigenvalues --   -0.29742  -0.29521  -0.28813  -0.26724  -0.23511
 Alpha  occ. eigenvalues --   -0.21639
 Alpha virt. eigenvalues --   -0.07669  -0.03403   0.01074   0.03447   0.05601
 Alpha virt. eigenvalues --    0.05724   0.06092   0.06483   0.06880   0.07125
 Alpha virt. eigenvalues --    0.08369   0.10609   0.10666   0.11123   0.11301

 Mulliken charges:
               1
     1  Mg   0.812730
     2  C    0.132558
     3  C   -0.196788
     4  C   -0.186714
     5  C   -0.156897
     6  N   -0.643201
     7  C    0.329634
     8  C   -0.110758
     9  C   -0.166631
    10  C    0.343284
    11  C   -0.315599
    12  C   -0.179867
    13  C   -0.286022
    14  C    0.591512
    15  O   -0.444913
    16  O   -0.530685
    17  N   -0.680966
    18  C    0.314902
    19  C    0.003591
    20  C    0.078902
    21  C    0.261166
    22  C   -0.366376
    23  C   -0.116749
    24  C   -0.265081
    25  N   -0.691608
    26  C    0.323354
    27  C   -0.028234
    28  C    0.046625
    29  C    0.260667
    30  C   -0.353984
    31  C   -0.231936
    32  C   -0.298392
    33  N   -0.747813
    34  C    0.313498
    35  C   -0.035043
    36  C    0.032452
    37  C    0.281452
    38  C   -0.343548
    39  C    0.340671
    40  O   -0.482358
    41  C   -0.359098
    42  C    0.632952
    43  O   -0.460059
    44  O   -0.452111
    45  C   -0.068991
    46  C    0.013242
    47  C   -0.111708
    48  C    0.090482
    49  C   -0.340241
    50  C   -0.240209
    51  C   -0.184306
    52  C   -0.150475
    53  C   -0.067874
    54  C   -0.306574
    55  C   -0.184392
    56  C   -0.166951
    57  C   -0.158483
    58  C   -0.049820
    59  C   -0.287183
    60  C   -0.174117
    61  C   -0.154731
    62  C   -0.160963
    63  C   -0.075797
    64  C   -0.283648
    65  C   -0.296110
    66  H    0.070850
    67  H    0.093135
    68  H    0.066039
    69  H    0.118254
    70  H    0.102041
    71  H    0.077446
    72  H    0.120127
    73  H    0.132545
    74  H    0.122229
    75  H    0.126752
    76  H    0.153233
    77  H    0.119606
    78  H    0.094031
    79  H    0.121362
    80  H    0.125929
    81  H    0.096847
    82  H    0.115844
    83  H    0.097813
    84  H    0.139600
    85  H    0.118718
    86  H    0.120024
    87  H    0.107595
    88  H    0.095436
    89  H    0.107412
    90  H    0.116624
    91  H    0.110513
    92  H    0.125731
    93  H    0.152475
    94  H    0.125079
    95  H    0.162546
    96  H    0.106380
    97  H    0.102838
    98  H    0.109784
    99  H    0.125827
   100  H    0.131496
   101  H    0.099854
   102  H    0.098966
   103  H    0.128195
   104  H    0.135345
   105  H    0.105673
   106  H    0.071332
   107  H    0.103884
   108  H    0.094088
   109  H    0.069536
   110  H    0.100634
   111  H    0.086727
   112  H    0.096313
   113  H    0.097468
   114  H    0.090259
   115  H    0.084356
   116  H    0.095929
   117  H    0.100013
   118  H    0.109433
   119  H    0.102884
   120  H    0.046375
   121  H    0.048777
   122  H    0.074493
   123  H    0.105117
   124  H    0.086481
   125  H    0.058186
   126  H    0.098637
   127  H    0.100176
   128  H    0.046573
   129  H    0.096708
   130  H    0.085787
   131  H    0.064847
   132  H    0.063520
   133  H    0.100698
   134  H    0.112235
   135  H    0.088191
   136  H    0.110815
   137  H    0.119663
 Sum of Mulliken charges =   0.00000

 Dipole moment (field-independent basis, Debye):
    X=              0.3940    Y=              5.3935    Z=             -0.0092  Tot=              5.4079
 Quadrupole moment (field-independent basis, Debye-Ang):
   XX=           -322.0600   YY=           -400.6152   ZZ=           -400.5603
   XY=            -26.1141   XZ=             16.5332   YZ=              2.7616

 Normal termination of Gaussian 09 at Sat Jun 29 10:29:07 2019.
