 Gaussian 09, Revision D.01,
 Gaussian 09:  ES64L-G09RevD.01 24-Apr-2013

 -------------------------------------
 # td=(NStates=1) CAM-B3LYP/6-31G(d,p)
 -------------------------------------

 --
 TD
 --
 Symbolic Z-matrix:
 Charge =  0 Multiplicity = 1

                         Standard orientation:
 ---------------------------------------------------------------------
 Center     Atomic      Atomic             Coordinates (Angstroms)
 Number     Number       Type             X           Y           Z
 ---------------------------------------------------------------------
      1         12           0       -7.104648    0.543953    0.060124
      2          6           0       -4.770296   -1.925886    0.481575
      3          6           0       -4.845304    2.807967    1.144355
      4          6           0       -9.582958    3.009689   -0.183049
      5          6           0       -9.499483   -1.841103   -0.779560
      6          7           0       -5.066267    0.429772    0.751414
      7          6           0       -4.248572   -0.766385    0.664180
      8          6           0       -2.887910   -0.407773    1.118677
      9          6           0       -2.988326    1.142870    1.607950
     10          6           0       -4.417787    1.477481    1.139477
     11          6           0       -2.998034    1.237551    3.144923
     12          6           0       -1.890632   -0.644265   -0.043475
     13          6           0       -0.447430   -0.288220    0.361310
     14          6           0        0.506177   -0.617896   -0.732211
     15          8           0        0.198519   -1.020200   -1.820831
     16          8           0        1.819448   -0.465177   -0.265420
     17          7           0       -7.147645    2.580731    0.260902
     18          6           0       -6.115760    3.335410    0.793929
     19          6           0       -6.501614    4.702492    0.753238
     20          6           0       -7.814453    4.951299    0.538780
     21          6           0       -8.219675    3.446266    0.176677
     22          6           0       -5.555439    5.842700    1.143069
     23          6           0       -8.590248    5.978653    0.324517
     24          6           0       -8.352969    7.250127   -0.021477
     25          7           0       -9.169466    0.600434   -0.505082
     26          6           0       -9.880471    1.752860   -0.625697
     27          6           0      -11.271272    1.410951   -0.903607
     28          6           0      -11.208804    0.013362   -1.113355
     29          6           0       -9.975984   -0.465739   -0.824137
     30          6           0      -12.466673    2.294081   -1.097519
     31          6           0      -12.367730   -0.848555   -1.612778
     32          6           0      -12.368727   -1.176133   -3.077640
     33          7           0       -7.261249   -1.464768   -0.048156
     34          6           0       -8.284413   -2.288109   -0.476367
     35          6           0       -7.842427   -3.630326   -0.458322
     36          6           0       -6.516280   -3.602858   -0.087867
     37          6           0       -6.157719   -2.292663    0.185217
     38          6           0       -8.505894   -4.910630   -0.761084
     39          6           0       -5.267942   -4.341617    0.228349
     40          8           0       -5.009656   -5.569937    0.207312
     41          6           0       -4.038041   -3.251890    0.448824
     42          6           0       -3.410617   -3.577759    1.831156
     43          8           0       -3.733452   -3.023833    2.888908
     44          8           0       -2.557797   -4.651007    1.718571
     45          6           0       -2.097030   -5.047111    3.015124
     46          6           0        2.797553   -0.613321   -1.233924
     47          6           0        4.130534   -0.310795   -0.716615
     48          6           0        5.116284    0.499585   -1.116412
     49          6           0        4.976956    1.412547   -2.356483
     50          6           0        6.369158    0.476919   -0.389473
     51          6           0        7.621628    0.107864   -1.210960
     52          6           0        8.815792    0.030322   -0.342173
     53          6           0       10.213416   -0.517862   -1.063816
     54          6           0       10.258613   -1.949610   -1.550521
     55          6           0       11.393684   -0.039769   -0.181815
     56          6           0       12.896891   -0.443389   -0.735416
     57          6           0       13.976654   -0.212264    0.320757
     58          6           0       15.396181   -0.231809   -0.324665
     59          6           0       15.655401   -1.599583   -0.891116
     60          6           0       16.506319    0.288478    0.601700
     61          6           0       17.859659    0.417790   -0.104483
     62          6           0       18.804349    1.090185    0.971863
     63          6           0       20.281301    1.224329    0.491811
     64          6           0       20.268301    1.952737   -0.927261
     65          6           0       21.102622    1.983661    1.506193
     66          1           0       -4.159379    3.594860    1.477816
     67          1           0      -10.413703    3.613862   -0.439350
     68          1           0      -10.164145   -2.609850   -1.080396
     69          1           0       -2.713661   -0.967679    2.074849
     70          1           0       -2.073368    1.797733    1.184784
     71          1           0       -1.993439    1.000555    3.819397
     72          1           0       -3.109617    2.385555    3.443686
     73          1           0       -3.753288    0.727828    3.561687
     74          1           0       -2.085314   -1.624773   -0.386620
     75          1           0       -2.321757    0.223354   -0.688521
     76          1           0       -0.575522    0.944638    0.662729
     77          1           0       -0.219788   -0.841444    1.438182
     78          1           0       -5.211314    6.285542    0.297775
     79          1           0       -5.999651    6.649246    1.891030
     80          1           0       -4.686917    5.389547    1.889815
     81          1           0       -9.749289    5.763119    0.412700
     82          1           0       -9.044337    8.001219    0.013846
     83          1           0       -7.318321    7.624115    0.043450
     84          1           0      -12.247300    3.058034   -1.962047
     85          1           0      -13.450916    1.680699   -1.280652
     86          1           0      -12.481473    2.921099   -0.255676
     87          1           0      -12.333389   -1.830185   -0.931141
     88          1           0      -13.191822   -0.255512   -1.324967
     89          1           0      -13.075598   -2.024219   -3.347098
     90          1           0      -12.494455   -0.238283   -3.557837
     91          1           0      -11.350194   -1.575480   -3.409046
     92          1           0       -9.368364   -4.737855   -1.600378
     93          1           0       -7.767294   -5.761194   -0.928416
     94          1           0       -8.984893   -5.258249    0.372428
     95          1           0       -3.541511   -3.679566   -0.385777
     96          1           0       -1.752574   -4.311298    3.729811
     97          1           0       -2.980461   -5.429263    3.747763
     98          1           0       -1.305510   -5.765781    2.650017
     99          1           0        2.797992   -1.716894   -1.605864
    100          1           0        2.623137    0.117278   -1.974512
    101          1           0        4.272767   -0.715626    0.323863
    102          1           0        3.927915    1.448446   -2.803390
    103          1           0        5.197747    2.389143   -1.974449
    104          1           0        5.499201    1.096547   -3.142967
    105          1           0        6.375721    1.534550    0.070667
    106          1           0        6.194120   -0.095948    0.398428
    107          1           0        7.339113   -0.986960   -1.659189
    108          1           0        7.748770    0.733724   -2.094201
    109          1           0        8.985835    0.993446    0.214869
    110          1           0        8.644368   -0.615036    0.456720
    111          1           0       10.123702    0.114158   -2.050308
    112          1           0        9.510465   -2.008779   -2.189530
    113          1           0       11.345952   -2.000196   -2.072960
    114          1           0       10.250993   -2.562952   -0.614386
    115          1           0       11.361124    1.016867    0.096757
    116          1           0       11.258904   -0.687592    0.597263
    117          1           0       12.542845   -1.564794   -0.976624
    118          1           0       12.906549    0.194250   -1.519121
    119          1           0       13.718994    0.807457    0.824506
    120          1           0       13.971056   -0.888558    1.191854
    121          1           0       15.210695    0.624087   -0.965709
    122          1           0       15.691431   -2.474538   -0.353261
    123          1           0       14.777276   -1.882389   -1.561529
    124          1           0       16.556653   -1.573774   -1.599501
    125          1           0       16.107344    1.206539    0.959839
    126          1           0       16.645500   -0.449903    1.513227
    127          1           0       18.339330   -0.510403   -0.609480
    128          1           0       17.572810    1.143489   -0.915403
    129          1           0       18.406364    2.096885    0.960339
    130          1           0       18.558977    0.392433    1.894121
    131          1           0       20.722676    0.131391    0.542694
    132          1           0       19.782778    2.879218   -1.045996
    133          1           0       21.389291    2.158892   -1.000371
    134          1           0       20.164450    1.125886   -1.840570
    135          1           0       20.885568    1.493653    2.537202
    136          1           0       22.330632    1.818064    1.298049
    137          1           0       20.847845    2.989047    1.489472
 ---------------------------------------------------------------------

 SCF Done:  E(RCAM-B3LYP) =  -2932.61101378     A.U. after   18 cycles

 Excitation energies and oscillator strengths:

 Excited State   1:      Singlet-A      1.9370 eV  640.07 nm  f=0.3017  <S**2>=0.000
     240 -> 243        0.18539
     241 -> 242        0.67506
 This state for optimization and/or second-order correction.
 Total Energy, E(TD-HF/TD-KS) =  -2932.53982924
 Copying the excited state density for this state as the 1-particle RhoCI density.

 The electronic state is 1-A.
 Alpha  occ. eigenvalues --  -46.84959 -19.27428 -19.25600 -19.22280 -19.21943
 Alpha  occ. eigenvalues --  -19.20855 -14.41819 -14.40707 -14.39501 -14.38203
 Alpha  occ. eigenvalues --  -10.40296 -10.39939 -10.36509 -10.32020 -10.31648
 Alpha  occ. eigenvalues --  -10.31617 -10.30877 -10.30743 -10.30450 -10.30033
 Alpha  occ. eigenvalues --  -10.29807 -10.29644 -10.29328 -10.29309 -10.28550
 Alpha  occ. eigenvalues --  -10.28359 -10.28071 -10.28007 -10.27960 -10.27542
 Alpha  occ. eigenvalues --  -10.27531 -10.27499 -10.27483 -10.27481 -10.27387
 Alpha  occ. eigenvalues --  -10.27332 -10.27288 -10.27164 -10.27023 -10.26866
 Alpha  occ. eigenvalues --  -10.26845 -10.26690 -10.26620 -10.26189 -10.26111
 Alpha  occ. eigenvalues --  -10.26052 -10.25975 -10.25745 -10.25738 -10.25662
 Alpha  occ. eigenvalues --  -10.25622 -10.25402 -10.25392 -10.25375 -10.25368
 Alpha  occ. eigenvalues --  -10.25254 -10.25159 -10.25130 -10.25077 -10.24986
 Alpha  occ. eigenvalues --  -10.24827 -10.24809 -10.24807 -10.24319 -10.24032
 Alpha  occ. eigenvalues --   -3.13820  -1.88544  -1.88029  -1.88006  -1.18104
 Alpha  occ. eigenvalues --   -1.17875  -1.10798  -1.09318  -1.09180  -1.04665
 Alpha  occ. eigenvalues --   -1.03695  -1.03376  -1.02301  -0.93413  -0.91793
 Alpha  occ. eigenvalues --   -0.91321  -0.90171  -0.89927  -0.88844  -0.88698
 Alpha  occ. eigenvalues --   -0.88239  -0.87652  -0.87615  -0.87281  -0.85858
 Alpha  occ. eigenvalues --   -0.85143  -0.84608  -0.84200  -0.82996  -0.82602
 Alpha  occ. eigenvalues --   -0.81689  -0.81390  -0.80724  -0.79885  -0.78256
 Alpha  occ. eigenvalues --   -0.77862  -0.77583  -0.77098  -0.75971  -0.75280
 Alpha  occ. eigenvalues --   -0.74739  -0.74671  -0.74170  -0.73213  -0.72548
 Alpha  occ. eigenvalues --   -0.71294  -0.70539  -0.69852  -0.69073  -0.68492
 Alpha  occ. eigenvalues --   -0.67649  -0.66325  -0.65470  -0.64939  -0.64898
 Alpha  occ. eigenvalues --   -0.64564  -0.62749  -0.62695  -0.62625  -0.61642
 Alpha  occ. eigenvalues --   -0.61186  -0.60653  -0.60381  -0.59975  -0.59104
 Alpha  occ. eigenvalues --   -0.58678  -0.58327  -0.57624  -0.57206  -0.56680
 Alpha  occ. eigenvalues --   -0.56315  -0.55461  -0.55429  -0.55151  -0.54767
 Alpha  occ. eigenvalues --   -0.54594  -0.54264  -0.54115  -0.53926  -0.53114
 Alpha  occ. eigenvalues --   -0.52864  -0.52574  -0.52363  -0.52058  -0.51780
 Alpha  occ. eigenvalues --   -0.51346  -0.51329  -0.51242  -0.50941  -0.50851
 Alpha  occ. eigenvalues --   -0.50642  -0.50397  -0.50113  -0.50003  -0.49750
 Alpha  occ. eigenvalues --   -0.49570  -0.49440  -0.49351  -0.48901  -0.48757
 Alpha  occ. eigenvalues --   -0.48195  -0.48065  -0.47762  -0.47558  -0.47147
 Alpha  occ. eigenvalues --   -0.47024  -0.46297  -0.46210  -0.46104  -0.46025
 Alpha  occ. eigenvalues --   -0.45602  -0.45507  -0.45351  -0.45123  -0.44992
 Alpha  occ. eigenvalues --   -0.44792  -0.44459  -0.44352  -0.44153  -0.44033
 Alpha  occ. eigenvalues --   -0.43878  -0.43648  -0.43486  -0.43366  -0.43330
 Alpha  occ. eigenvalues --   -0.43020  -0.42911  -0.42745  -0.42561  -0.42493
 Alpha  occ. eigenvalues --   -0.42314  -0.42129  -0.42000  -0.41524  -0.41434
 Alpha  occ. eigenvalues --   -0.41396  -0.41045  -0.40883  -0.40234  -0.39786
 Alpha  occ. eigenvalues --   -0.39611  -0.39340  -0.39289  -0.39011  -0.38934
 Alpha  occ. eigenvalues --   -0.38559  -0.38238  -0.38187  -0.37772  -0.37711
 Alpha  occ. eigenvalues --   -0.37465  -0.37181  -0.37079  -0.36991  -0.36809
 Alpha  occ. eigenvalues --   -0.36313  -0.36020  -0.35863  -0.35757  -0.35516
 Alpha  occ. eigenvalues --   -0.35321  -0.34812  -0.34691  -0.34418  -0.33777
 Alpha  occ. eigenvalues --   -0.33058  -0.32720  -0.31914  -0.31786  -0.30236
 Alpha  occ. eigenvalues --   -0.29327  -0.28986  -0.27959  -0.26941  -0.24667
 Alpha  occ. eigenvalues --   -0.20866
 Alpha virt. eigenvalues --   -0.07068  -0.03867   0.00972   0.03046   0.04096
 Alpha virt. eigenvalues --    0.04639   0.05579   0.06772   0.06942   0.07315
 Alpha virt. eigenvalues --    0.08412   0.10045   0.10990   0.11206   0.11693

 Mulliken charges:
               1
     1  Mg   0.818667
     2  C    0.133059
     3  C   -0.202277
     4  C   -0.154852
     5  C   -0.157094
     6  N   -0.651134
     7  C    0.253216
     8  C   -0.188834
     9  C   -0.155720
    10  C    0.384210
    11  C   -0.298533
    12  C   -0.149098
    13  C   -0.260142
    14  C    0.641810
    15  O   -0.446059
    16  O   -0.492135
    17  N   -0.682278
    18  C    0.349404
    19  C   -0.032254
    20  C    0.146103
    21  C    0.231638
    22  C   -0.364872
    23  C   -0.130506
    24  C   -0.241024
    25  N   -0.691194
    26  C    0.286238
    27  C    0.009869
    28  C   -0.022936
    29  C    0.314837
    30  C   -0.376631
    31  C   -0.220520
    32  C   -0.294257
    33  N   -0.750625
    34  C    0.333012
    35  C    0.017872
    36  C    0.054195
    37  C    0.251972
    38  C   -0.369364
    39  C    0.327615
    40  O   -0.478224
    41  C   -0.329992
    42  C    0.651509
    43  O   -0.486954
    44  O   -0.443446
    45  C   -0.091359
    46  C    0.053282
    47  C   -0.159306
    48  C    0.109813
    49  C   -0.362798
    50  C   -0.204742
    51  C   -0.174210
    52  C   -0.174440
    53  C   -0.083348
    54  C   -0.289981
    55  C   -0.204154
    56  C   -0.177799
    57  C   -0.184594
    58  C   -0.050757
    59  C   -0.316981
    60  C   -0.167662
    61  C   -0.180068
    62  C   -0.151890
    63  C   -0.055092
    64  C   -0.314930
    65  C   -0.282369
    66  H    0.077433
    67  H    0.082556
    68  H    0.090433
    69  H    0.134508
    70  H    0.088541
    71  H    0.087294
    72  H    0.090535
    73  H    0.145855
    74  H    0.131113
    75  H    0.107857
    76  H    0.108418
    77  H    0.125469
    78  H    0.142118
    79  H    0.111563
    80  H    0.087520
    81  H    0.086364
    82  H    0.111518
    83  H    0.092046
    84  H    0.112884
    85  H    0.112941
    86  H    0.132897
    87  H    0.076759
    88  H    0.096577
    89  H    0.102897
    90  H    0.116585
    91  H    0.097597
    92  H    0.103991
    93  H    0.157768
    94  H    0.106098
    95  H    0.175401
    96  H    0.138653
    97  H    0.114213
    98  H    0.122773
    99  H    0.109052
   100  H    0.101731
   101  H    0.074092
   102  H    0.099146
   103  H    0.118912
   104  H    0.133771
   105  H    0.081646
   106  H    0.107584
   107  H    0.074991
   108  H    0.103928
   109  H    0.089123
   110  H    0.098814
   111  H    0.053470
   112  H    0.117949
   113  H    0.099190
   114  H    0.099180
   115  H    0.091110
   116  H    0.102693
   117  H    0.084073
   118  H    0.111574
   119  H    0.070180
   120  H    0.090514
   121  H    0.088127
   122  H    0.117239
   123  H    0.094737
   124  H    0.091724
   125  H    0.094412
   126  H    0.062757
   127  H    0.089178
   128  H    0.086621
   129  H    0.091857
   130  H    0.080171
   131  H    0.076197
   132  H    0.119442
   133  H    0.094074
   134  H    0.089297
   135  H    0.093454
   136  H    0.067272
   137  H    0.110656
 Sum of Mulliken charges =   0.00000

 Dipole moment (field-independent basis, Debye):
    X=              0.7904    Y=              4.8895    Z=              0.5046  Tot=              4.9787
 Quadrupole moment (field-independent basis, Debye-Ang):
   XX=           -369.5072   YY=           -391.9255   ZZ=           -400.1883
   XY=            -17.0808   XZ=              6.8792   YZ=             -0.9492

 Normal termination of Gaussian 09 at Fri Jun 28 07:30:26 2019.
