 Gaussian 09, Revision D.01,
 Gaussian 09:  ES64L-G09RevD.01 24-Apr-2013

 -------------------------------------
 # td=(NStates=1) CAM-B3LYP/6-31G(d,p)
 -------------------------------------

 --
 TD
 --
 Symbolic Z-matrix:
 Charge =  0 Multiplicity = 1

                         Standard orientation:
 ---------------------------------------------------------------------
 Center     Atomic      Atomic             Coordinates (Angstroms)
 Number     Number       Type             X           Y           Z
 ---------------------------------------------------------------------
      1         12           0       -7.163267    0.725369    0.079710
      2          6           0       -4.821877   -1.928044    0.444018
      3          6           0       -4.846280    2.822853    1.185427
      4          6           0       -9.442511    3.106349   -0.324506
      5          6           0       -9.589734   -1.791796   -0.711387
      6          7           0       -5.154494    0.378391    0.668159
      7          6           0       -4.348238   -0.652535    0.623223
      8          6           0       -2.963866   -0.321105    1.116362
      9          6           0       -2.947110    1.164619    1.610742
     10          6           0       -4.338248    1.564152    1.181509
     11          6           0       -2.855019    1.285916    3.129372
     12          6           0       -1.903379   -0.599860    0.020583
     13          6           0       -0.475986   -0.396082    0.381527
     14          6           0        0.466864   -0.500527   -0.636407
     15          8           0        0.211809   -0.805000   -1.911778
     16          8           0        1.673958   -0.384696   -0.249914
     17          7           0       -7.167686    2.618142    0.359889
     18          6           0       -6.051829    3.417982    0.774760
     19          6           0       -6.369307    4.791203    0.702905
     20          6           0       -7.735763    4.803736    0.414233
     21          6           0       -8.176092    3.516033    0.161231
     22          6           0       -5.372443    5.887161    1.250505
     23          6           0       -8.597517    5.995331    0.291107
     24          6           0       -8.140304    7.224133    0.183106
     25          7           0       -9.125598    0.611152   -0.377251
     26          6           0       -9.901743    1.751459   -0.558646
     27          6           0      -11.166141    1.361587   -1.035510
     28          6           0      -11.276935    0.023320   -1.227728
     29          6           0       -9.937539   -0.382751   -0.898337
     30          6           0      -12.370129    2.442653   -1.225522
     31          6           0      -12.409357   -0.782574   -1.681367
     32          6           0      -12.289173   -1.215166   -3.109456
     33          7           0       -7.168166   -1.395223   -0.229170
     34          6           0       -8.288340   -2.173219   -0.481737
     35          6           0       -7.970144   -3.595016   -0.368083
     36          6           0       -6.594154   -3.541309   -0.041293
     37          6           0       -6.165550   -2.142993    0.124740
     38          6           0       -8.727180   -4.816423   -0.546201
     39          6           0       -5.359850   -4.342277    0.257283
     40          8           0       -5.154748   -5.530416    0.362222
     41          6           0       -4.286871   -3.326470    0.553873
     42          6           0       -3.489566   -3.662890    1.842775
     43          8           0       -3.667521   -3.070996    2.925952
     44          8           0       -2.690752   -4.729886    1.667655
     45          6           0       -1.990678   -5.124155    2.893990
     46          6           0        2.778714   -0.649362   -1.251730
     47          6           0        4.093648   -0.316556   -0.643610
     48          6           0        5.179939    0.311031   -1.111367
     49          6           0        5.123565    1.076354   -2.484692
     50          6           0        6.464958    0.408252   -0.320191
     51          6           0        7.610410   -0.322699   -1.003725
     52          6           0        8.927784   -0.304541   -0.239557
     53          6           0       10.155255   -0.694484   -0.994095
     54          6           0       10.171088   -2.130635   -1.404625
     55          6           0       11.365702   -0.315318   -0.097644
     56          6           0       12.807112   -0.520992   -0.656577
     57          6           0       13.862390   -0.119415    0.182541
     58          6           0       15.298451   -0.241509   -0.491960
     59          6           0       15.708373   -1.707191   -0.806960
     60          6           0       16.365593    0.367330    0.441826
     61          6           0       17.820887    0.503462   -0.151042
     62          6           0       18.710399    1.355142    0.834699
     63          6           0       20.185634    1.338828    0.460231
     64          6           0       20.473346    2.144654   -0.865010
     65          6           0       21.062468    2.058245    1.496717
     66          1           0       -4.206613    3.504752    1.415103
     67          1           0      -10.214681    3.748464   -0.490662
     68          1           0      -10.124878   -2.640763   -0.876276
     69          1           0       -2.536475   -1.103518    1.778333
     70          1           0       -2.278878    1.720252    1.165654
     71          1           0       -1.814110    0.961659    3.584885
     72          1           0       -3.071694    2.373903    3.373257
     73          1           0       -3.752561    0.747438    3.712905
     74          1           0       -2.058019   -1.558513   -0.471080
     75          1           0       -2.300334    0.111755   -0.861089
     76          1           0       -0.200004    0.620499    0.949612
     77          1           0       -0.303674   -1.060918    1.224229
     78          1           0       -4.656822    6.375398    0.652969
     79          1           0       -6.165970    6.537397    1.639419
     80          1           0       -4.583790    5.323302    2.020947
     81          1           0       -9.547997    5.807188    0.359141
     82          1           0       -8.376741    8.118255    0.229848
     83          1           0       -7.053706    7.233549   -0.228782
     84          1           0      -12.235213    3.135630   -2.108301
     85          1           0      -13.214784    1.890069   -1.384780
     86          1           0      -12.599498    3.172750   -0.361721
     87          1           0      -12.451298   -1.554451   -0.950837
     88          1           0      -13.439209   -0.444935   -1.538168
     89          1           0      -12.992245   -1.987005   -3.294394
     90          1           0      -12.304695   -0.334866   -3.776983
     91          1           0      -11.474796   -1.926085   -3.224089
     92          1           0       -9.159274   -5.100498   -1.501267
     93          1           0       -8.051480   -5.689253   -0.348424
     94          1           0       -9.605663   -4.959409    0.074958
     95          1           0       -3.607258   -3.285044   -0.363696
     96          1           0       -1.496972   -4.283253    3.274803
     97          1           0       -2.560423   -5.571452    3.606704
     98          1           0       -1.260061   -5.999778    2.444373
     99          1           0        2.638847   -1.693946   -1.568949
    100          1           0        2.539948   -0.081568   -2.241687
    101          1           0        4.122604   -0.851461    0.303135
    102          1           0        4.082366    1.193142   -3.063704
    103          1           0        5.382593    2.030986   -2.210044
    104          1           0        5.982672    0.767798   -3.089708
    105          1           0        6.911265    1.502619   -0.067594
    106          1           0        6.474071   -0.022812    0.855585
    107          1           0        7.212101   -1.269039   -1.355789
    108          1           0        7.745494    0.199972   -1.976816
    109          1           0        9.075316    0.651498    0.168335
    110          1           0        9.050763   -0.910793    0.774056
    111          1           0       10.325249   -0.224186   -1.991888
    112          1           0        9.425993   -2.531878   -2.131340
    113          1           0       11.264041   -2.246978   -1.837246
    114          1           0       10.219039   -2.856728   -0.627892
    115          1           0       11.155034    0.959576   -0.203117
    116          1           0       11.201687   -0.636062    1.231631
    117          1           0       12.660847   -1.686356   -0.670551
    118          1           0       12.765275   -0.264488   -1.871274
    119          1           0       13.730675    0.898126    0.564065
    120          1           0       13.890139   -0.806033    1.107678
    121          1           0       15.296218    0.496676   -1.242982
    122          1           0       15.679564   -2.425021    0.046669
    123          1           0       15.222631   -2.300819   -1.763981
    124          1           0       16.686316   -1.845465   -1.075389
    125          1           0       15.967512    1.341940    0.569735
    126          1           0       16.543013   -0.209091    1.365446
    127          1           0       18.129672   -0.347033   -0.249043
    128          1           0       17.807567    1.072053   -1.228360
    129          1           0       18.593130    2.473716    0.908757
    130          1           0       18.672781    1.086737    1.805562
    131          1           0       20.549072    0.238821    0.342783
    132          1           0       19.973486    3.140479   -0.739293
    133          1           0       21.477748    2.228167   -1.324350
    134          1           0       19.888280    1.697570   -1.868759
    135          1           0       21.178729    1.569744    2.438265
    136          1           0       22.090429    2.002847    1.043897
    137          1           0       20.774134    3.127704    1.744645
 ---------------------------------------------------------------------

 SCF Done:  E(RCAM-B3LYP) =  -2932.56216658     A.U. after   17 cycles

 Excitation energies and oscillator strengths:

 Excited State   1:      Singlet-A      2.0531 eV  603.89 nm  f=0.2366  <S**2>=0.000
     240 -> 243        0.25834
     241 -> 242        0.65044
 This state for optimization and/or second-order correction.
 Total Energy, E(TD-HF/TD-KS) =  -2932.48671648
 Copying the excited state density for this state as the 1-particle RhoCI density.

 The electronic state is 1-A.
 Alpha  occ. eigenvalues --  -46.83051 -19.27250 -19.26896 -19.20801 -19.20268
 Alpha  occ. eigenvalues --  -19.18066 -14.41024 -14.39369 -14.38708 -14.38224
 Alpha  occ. eigenvalues --  -10.39609 -10.38478 -10.34918 -10.33241 -10.31457
 Alpha  occ. eigenvalues --  -10.30670 -10.30365 -10.29633 -10.29596 -10.29225
 Alpha  occ. eigenvalues --  -10.29048 -10.29002 -10.28941 -10.28855 -10.28438
 Alpha  occ. eigenvalues --  -10.28379 -10.28282 -10.28271 -10.28223 -10.27929
 Alpha  occ. eigenvalues --  -10.27591 -10.27287 -10.27142 -10.27120 -10.27075
 Alpha  occ. eigenvalues --  -10.26992 -10.26947 -10.26926 -10.26746 -10.26630
 Alpha  occ. eigenvalues --  -10.26497 -10.26452 -10.26366 -10.26326 -10.26311
 Alpha  occ. eigenvalues --  -10.26186 -10.26178 -10.26063 -10.26034 -10.25898
 Alpha  occ. eigenvalues --  -10.25836 -10.25681 -10.25590 -10.25562 -10.25536
 Alpha  occ. eigenvalues --  -10.25474 -10.25406 -10.24961 -10.24748 -10.24693
 Alpha  occ. eigenvalues --  -10.24655 -10.24640 -10.24575 -10.24564 -10.24289
 Alpha  occ. eigenvalues --   -3.12296  -1.86981  -1.86546  -1.86491  -1.19077
 Alpha  occ. eigenvalues --   -1.17483  -1.11303  -1.07708  -1.04211  -1.02939
 Alpha  occ. eigenvalues --   -1.02400  -1.02210  -1.01605  -0.92465  -0.91853
 Alpha  occ. eigenvalues --   -0.91106  -0.90589  -0.89856  -0.89606  -0.89273
 Alpha  occ. eigenvalues --   -0.88765  -0.88576  -0.88232  -0.87454  -0.86330
 Alpha  occ. eigenvalues --   -0.85496  -0.84510  -0.83608  -0.83213  -0.82468
 Alpha  occ. eigenvalues --   -0.81856  -0.81228  -0.80623  -0.80237  -0.78847
 Alpha  occ. eigenvalues --   -0.78248  -0.77006  -0.76497  -0.76103  -0.75484
 Alpha  occ. eigenvalues --   -0.75152  -0.74796  -0.74227  -0.73777  -0.72846
 Alpha  occ. eigenvalues --   -0.72126  -0.71110  -0.70647  -0.69841  -0.68954
 Alpha  occ. eigenvalues --   -0.67591  -0.67077  -0.65735  -0.65052  -0.64687
 Alpha  occ. eigenvalues --   -0.64433  -0.63303  -0.63052  -0.62276  -0.62161
 Alpha  occ. eigenvalues --   -0.61531  -0.61278  -0.60877  -0.60182  -0.59498
 Alpha  occ. eigenvalues --   -0.58956  -0.58568  -0.58359  -0.57636  -0.56958
 Alpha  occ. eigenvalues --   -0.56664  -0.56108  -0.55563  -0.55377  -0.55280
 Alpha  occ. eigenvalues --   -0.54535  -0.54005  -0.53824  -0.53605  -0.53477
 Alpha  occ. eigenvalues --   -0.53157  -0.53084  -0.52546  -0.52491  -0.52137
 Alpha  occ. eigenvalues --   -0.51734  -0.51104  -0.50942  -0.50708  -0.50658
 Alpha  occ. eigenvalues --   -0.50494  -0.50095  -0.50021  -0.49411  -0.49129
 Alpha  occ. eigenvalues --   -0.49060  -0.48801  -0.48640  -0.48435  -0.48302
 Alpha  occ. eigenvalues --   -0.48094  -0.47564  -0.47428  -0.47094  -0.46797
 Alpha  occ. eigenvalues --   -0.46737  -0.46550  -0.46466  -0.46144  -0.45871
 Alpha  occ. eigenvalues --   -0.45562  -0.45553  -0.45316  -0.44912  -0.44546
 Alpha  occ. eigenvalues --   -0.44436  -0.44383  -0.44319  -0.44180  -0.44060
 Alpha  occ. eigenvalues --   -0.43945  -0.43868  -0.43765  -0.43548  -0.43447
 Alpha  occ. eigenvalues --   -0.43125  -0.42660  -0.42333  -0.42307  -0.42027
 Alpha  occ. eigenvalues --   -0.41798  -0.41744  -0.41439  -0.41377  -0.41332
 Alpha  occ. eigenvalues --   -0.40953  -0.40727  -0.40557  -0.40466  -0.40152
 Alpha  occ. eigenvalues --   -0.39839  -0.39703  -0.39618  -0.39433  -0.38888
 Alpha  occ. eigenvalues --   -0.38594  -0.38351  -0.38062  -0.37908  -0.37605
 Alpha  occ. eigenvalues --   -0.37329  -0.37051  -0.36997  -0.36840  -0.36743
 Alpha  occ. eigenvalues --   -0.36562  -0.36525  -0.36487  -0.35533  -0.35490
 Alpha  occ. eigenvalues --   -0.34812  -0.34146  -0.33801  -0.33455  -0.33044
 Alpha  occ. eigenvalues --   -0.32722  -0.32146  -0.31297  -0.30605  -0.30467
 Alpha  occ. eigenvalues --   -0.29947  -0.29148  -0.28502  -0.27232  -0.22586
 Alpha  occ. eigenvalues --   -0.21409
 Alpha virt. eigenvalues --   -0.06573  -0.03222   0.02208   0.04275   0.04858
 Alpha virt. eigenvalues --    0.05118   0.05850   0.06457   0.06973   0.07528
 Alpha virt. eigenvalues --    0.08900   0.10178   0.10628   0.11163   0.11889

 Mulliken charges:
               1
     1  Mg   0.833270
     2  C    0.072885
     3  C   -0.156123
     4  C   -0.142189
     5  C   -0.114018
     6  N   -0.656480
     7  C    0.385487
     8  C   -0.175996
     9  C   -0.080904
    10  C    0.249760
    11  C   -0.296010
    12  C   -0.191675
    13  C   -0.271449
    14  C    0.625367
    15  O   -0.565996
    16  O   -0.453216
    17  N   -0.761902
    18  C    0.278365
    19  C    0.011180
    20  C   -0.040051
    21  C    0.351904
    22  C   -0.351508
    23  C   -0.011326
    24  C   -0.244249
    25  N   -0.666690
    26  C    0.291027
    27  C   -0.023757
    28  C    0.077949
    29  C    0.208572
    30  C   -0.368951
    31  C   -0.256977
    32  C   -0.304225
    33  N   -0.707810
    34  C    0.253082
    35  C    0.068636
    36  C   -0.057033
    37  C    0.309208
    38  C   -0.421444
    39  C    0.391703
    40  O   -0.455753
    41  C   -0.318831
    42  C    0.618681
    43  O   -0.495243
    44  O   -0.438417
    45  C   -0.080923
    46  C    0.007696
    47  C   -0.137329
    48  C    0.123461
    49  C   -0.368806
    50  C   -0.226041
    51  C   -0.177744
    52  C   -0.149704
    53  C   -0.055327
    54  C   -0.311937
    55  C   -0.144248
    56  C   -0.156663
    57  C   -0.167128
    58  C   -0.057059
    59  C   -0.321706
    60  C   -0.189546
    61  C   -0.151394
    62  C   -0.158492
    63  C   -0.069174
    64  C   -0.295953
    65  C   -0.309378
    66  H    0.039776
    67  H    0.083937
    68  H    0.078638
    69  H    0.117190
    70  H    0.115614
    71  H    0.093986
    72  H    0.100156
    73  H    0.122505
    74  H    0.126738
    75  H    0.095403
    76  H    0.128070
    77  H    0.148518
    78  H    0.132020
    79  H    0.135127
    80  H    0.084617
    81  H    0.073387
    82  H    0.095784
    83  H    0.086417
    84  H    0.112058
    85  H    0.117186
    86  H    0.106623
    87  H    0.111533
    88  H    0.111164
    89  H    0.104225
    90  H    0.121004
    91  H    0.108380
    92  H    0.133068
    93  H    0.153473
    94  H    0.130828
    95  H    0.163667
    96  H    0.136892
    97  H    0.150027
    98  H    0.106802
    99  H    0.146826
   100  H    0.132183
   101  H    0.094924
   102  H    0.114450
   103  H    0.136795
   104  H    0.121489
   105  H    0.088449
   106  H    0.083357
   107  H    0.107524
   108  H    0.092390
   109  H    0.097670
   110  H    0.076475
   111  H    0.093346
   112  H    0.102094
   113  H    0.079875
   114  H    0.104485
   115  H    0.039150
   116  H    0.043536
   117  H    0.096405
   118  H    0.076919
   119  H    0.093328
   120  H    0.090849
   121  H    0.097334
   122  H    0.101188
   123  H    0.074258
   124  H    0.117418
   125  H    0.094328
   126  H    0.085646
   127  H    0.104419
   128  H    0.072308
   129  H    0.079885
   130  H    0.099973
   131  H    0.072549
   132  H    0.098866
   133  H    0.108104
   134  H    0.058883
   135  H    0.101196
   136  H    0.099485
   137  H    0.095372
 Sum of Mulliken charges =   0.00000

 Dipole moment (field-independent basis, Debye):
    X=              2.6975    Y=              2.7537    Z=              0.5204  Tot=              3.8897
 Quadrupole moment (field-independent basis, Debye-Ang):
   XX=           -313.2384   YY=           -389.4526   ZZ=           -401.3826
   XY=            -12.1750   XZ=             16.5674   YZ=             -2.8460

 Normal termination of Gaussian 09 at Sun Jun 30 09:11:43 2019.
