 Gaussian 09, Revision D.01,
 Gaussian 09:  ES64L-G09RevD.01 24-Apr-2013

 -------------------------------------
 # td=(NStates=1) CAM-B3LYP/6-31G(d,p)
 -------------------------------------

 --
 TD
 --
 Symbolic Z-matrix:
 Charge =  0 Multiplicity = 1

                         Standard orientation:
 ---------------------------------------------------------------------
 Center     Atomic      Atomic             Coordinates (Angstroms)
 Number     Number       Type             X           Y           Z
 ---------------------------------------------------------------------
      1         12           0       -7.111884    0.560462    0.133409
      2          6           0       -4.921816   -1.952521    0.471072
      3          6           0       -4.786653    2.806274    1.253637
      4          6           0       -9.318703    3.202064   -0.383717
      5          6           0       -9.603428   -1.754551   -0.963992
      6          7           0       -5.090701    0.509071    0.718368
      7          6           0       -4.318950   -0.722066    0.802376
      8          6           0       -2.892004   -0.439011    1.179069
      9          6           0       -2.984702    1.066028    1.762808
     10          6           0       -4.354949    1.548374    1.159223
     11          6           0       -2.965326    1.197335    3.255747
     12          6           0       -1.857016   -0.598783    0.140656
     13          6           0       -0.466573   -0.555586    0.606689
     14          6           0        0.483360   -0.696876   -0.517138
     15          8           0        0.344964   -1.056147   -1.649940
     16          8           0        1.757443   -0.341463   -0.056971
     17          7           0       -6.975990    2.614958    0.436668
     18          6           0       -5.984725    3.367606    0.828042
     19          6           0       -6.409767    4.730071    0.885775
     20          6           0       -7.638284    4.864737    0.468482
     21          6           0       -8.029883    3.484552    0.160805
     22          6           0       -5.477630    5.796806    1.466382
     23          6           0       -8.501134    6.050972    0.306143
     24          6           0       -8.035737    7.254839   -0.006931
     25          7           0       -9.183750    0.698145   -0.569340
     26          6           0       -9.851863    1.863017   -0.596012
     27          6           0      -11.164319    1.564612   -1.146405
     28          6           0      -11.271822    0.168817   -1.318390
     29          6           0       -9.972711   -0.375992   -0.942351
     30          6           0      -12.258738    2.542145   -1.429323
     31          6           0      -12.441683   -0.565762   -1.756150
     32          6           0      -12.422617   -1.014186   -3.229904
     33          7           0       -7.258830   -1.398108   -0.008205
     34          6           0       -8.299036   -2.175457   -0.495662
     35          6           0       -7.917319   -3.540836   -0.553200
     36          6           0       -6.593314   -3.556629   -0.047750
     37          6           0       -6.258236   -2.252238    0.126991
     38          6           0       -8.656389   -4.762904   -0.953039
     39          6           0       -5.387790   -4.356208    0.131593
     40          8           0       -5.275386   -5.543109    0.126374
     41          6           0       -4.161492   -3.377045    0.505683
     42          6           0       -3.568099   -3.790192    1.806706
     43          8           0       -3.757536   -3.294787    2.913087
     44          8           0       -2.744600   -4.854623    1.587977
     45          6           0       -2.064290   -5.195269    2.831123
     46          6           0        2.742594   -0.556515   -1.169998
     47          6           0        4.098385   -0.486333   -0.491317
     48          6           0        5.127212    0.257352   -0.956458
     49          6           0        5.062017    1.209213   -2.075053
     50          6           0        6.459774    0.300983   -0.209670
     51          6           0        7.598598   -0.191030   -1.038105
     52          6           0        8.924517   -0.279306   -0.180126
     53          6           0       10.195656   -0.549754   -0.933102
     54          6           0       10.084158   -2.065071   -1.431675
     55          6           0       11.364755   -0.348843    0.045489
     56          6           0       12.722896   -0.537337   -0.586635
     57          6           0       13.987895   -0.275396    0.285683
     58          6           0       15.350769   -0.120548   -0.558247
     59          6           0       15.705541   -1.496276   -1.080992
     60          6           0       16.384339    0.406621    0.345533
     61          6           0       17.765468    0.603790   -0.224512
     62          6           0       18.754688    1.264761    0.783476
     63          6           0       20.221074    1.366807    0.195423
     64          6           0       20.220741    2.345400   -1.033235
     65          6           0       21.276322    1.735426    1.328085
     66          1           0       -4.020343    3.434100    1.537696
     67          1           0      -10.002782    4.061175   -0.306100
     68          1           0      -10.409710   -2.533785   -1.118729
     69          1           0       -2.747524   -1.257124    2.006473
     70          1           0       -2.216687    1.723949    1.537632
     71          1           0       -2.226663    0.577238    3.686200
     72          1           0       -2.793266    2.258904    3.467579
     73          1           0       -3.842019    0.689631    3.735795
     74          1           0       -2.113855   -1.740387   -0.422245
     75          1           0       -1.895719   -0.014090   -0.679210
     76          1           0       -0.257142    0.407575    1.025563
     77          1           0       -0.373913   -1.411062    1.583681
     78          1           0       -4.872351    6.206948    0.624694
     79          1           0       -5.806628    6.749750    1.994412
     80          1           0       -4.749535    5.498145    2.114606
     81          1           0       -9.584906    5.796285    0.163081
     82          1           0       -8.595678    8.209512    0.036765
     83          1           0       -6.992422    7.463795    0.021029
     84          1           0      -11.886429    3.483837   -2.073222
     85          1           0      -13.209043    2.045025   -1.969708
     86          1           0      -12.540881    2.693289   -0.190070
     87          1           0      -12.533910   -1.414084   -1.042904
     88          1           0      -13.440580   -0.125074   -1.616042
     89          1           0      -13.239255   -1.382211   -3.634333
     90          1           0      -12.297144    0.024947   -3.766162
     91          1           0      -11.530725   -1.652060   -3.397469
     92          1           0       -9.237356   -4.821399   -1.876428
     93          1           0       -8.000637   -5.628125   -1.014269
     94          1           0       -9.411367   -5.106117   -0.001698
     95          1           0       -3.425654   -3.423554   -0.217949
     96          1           0       -1.774773   -4.193304    3.162014
     97          1           0       -2.840028   -5.648983    3.242949
     98          1           0       -1.245217   -5.857580    2.651157
     99          1           0        2.579557   -1.493302   -1.567936
    100          1           0        2.486547    0.183056   -1.946376
    101          1           0        4.121353   -1.263611    0.262471
    102          1           0        3.829574    1.484135   -2.330532
    103          1           0        5.378424    2.070309   -1.671257
    104          1           0        5.798254    0.992649   -2.914324
    105          1           0        6.549773    1.216096   -0.003860
    106          1           0        6.198259   -0.314773    0.543065
    107          1           0        7.388905   -1.184813   -1.251454
    108          1           0        7.494743    0.367793   -1.982814
    109          1           0        9.154779    0.668974    0.216195
    110          1           0        8.622179   -0.965678    0.574009
    111          1           0       10.349136    0.355016   -1.626520
    112          1           0        9.208604   -2.024397   -2.079542
    113          1           0       11.032368   -2.006347   -2.014735
    114          1           0       10.034044   -2.629350   -0.592280
    115          1           0       11.158642    0.686095    0.537044
    116          1           0       11.160631   -0.983850    0.877850
    117          1           0       12.957297   -1.546941   -0.904367
    118          1           0       12.824407    0.138783   -1.335161
    119          1           0       13.780639    0.782943    0.657157
    120          1           0       14.160843   -1.007451    1.098676
    121          1           0       15.202161    0.687366   -1.353166
    122          1           0       15.697175   -1.837164   -0.070412
    123          1           0       15.012038   -2.133808   -1.802369
    124          1           0       16.649770   -1.480088   -1.741356
    125          1           0       15.836946    1.224825    0.841624
    126          1           0       16.406848   -0.499662    1.087759
    127          1           0       18.252566   -0.369751   -0.738100
    128          1           0       17.801991    1.572579   -1.113561
    129          1           0       18.385079    2.252250    1.209895
    130          1           0       18.822941    0.519454    1.662131
    131          1           0       20.206995    0.371377   -0.268914
    132          1           0       20.119104    3.498283   -0.721856
    133          1           0       21.316899    2.400183   -1.351780
    134          1           0       19.788938    2.035999   -1.909884
    135          1           0       20.961068    1.177831    2.258196
    136          1           0       22.315006    1.576831    0.809752
    137          1           0       21.215526    2.929536    1.442775
 ---------------------------------------------------------------------

 SCF Done:  E(RCAM-B3LYP) =  -2932.63760882     A.U. after   17 cycles

 Excitation energies and oscillator strengths:

 Excited State   1:      Singlet-A      2.1437 eV  578.36 nm  f=0.2410  <S**2>=0.000
     240 -> 242       -0.12352
     240 -> 243       -0.24458
     241 -> 242        0.64079
 This state for optimization and/or second-order correction.
 Total Energy, E(TD-HF/TD-KS) =  -2932.55882922
 Copying the excited state density for this state as the 1-particle RhoCI density.

 The electronic state is 1-A.
 Alpha  occ. eigenvalues --  -46.84812 -19.25376 -19.24588 -19.21709 -19.20750
 Alpha  occ. eigenvalues --  -19.19931 -14.41123 -14.39907 -14.39494 -14.39189
 Alpha  occ. eigenvalues --  -10.39019 -10.38885 -10.34746 -10.31054 -10.30384
 Alpha  occ. eigenvalues --  -10.30355 -10.30141 -10.29892 -10.29760 -10.29510
 Alpha  occ. eigenvalues --  -10.29306 -10.29245 -10.29063 -10.29044 -10.29009
 Alpha  occ. eigenvalues --  -10.28433 -10.28343 -10.28251 -10.28216 -10.28033
 Alpha  occ. eigenvalues --  -10.27954 -10.27684 -10.27594 -10.27416 -10.27283
 Alpha  occ. eigenvalues --  -10.27034 -10.26958 -10.26954 -10.26829 -10.26782
 Alpha  occ. eigenvalues --  -10.26709 -10.26571 -10.26567 -10.26052 -10.25987
 Alpha  occ. eigenvalues --  -10.25984 -10.25944 -10.25903 -10.25773 -10.25765
 Alpha  occ. eigenvalues --  -10.25566 -10.25566 -10.25495 -10.25463 -10.25291
 Alpha  occ. eigenvalues --  -10.25212 -10.24996 -10.24772 -10.24526 -10.24207
 Alpha  occ. eigenvalues --  -10.24135 -10.24115 -10.24056 -10.24042 -10.22710
 Alpha  occ. eigenvalues --   -3.13730  -1.88449  -1.87983  -1.87885  -1.17435
 Alpha  occ. eigenvalues --   -1.17212  -1.11966  -1.08254  -1.08103  -1.05841
 Alpha  occ. eigenvalues --   -1.04879  -1.02569  -1.01687  -0.92236  -0.91829
 Alpha  occ. eigenvalues --   -0.91353  -0.91053  -0.90448  -0.89858  -0.88788
 Alpha  occ. eigenvalues --   -0.88108  -0.87426  -0.87154  -0.87108  -0.86454
 Alpha  occ. eigenvalues --   -0.85316  -0.84669  -0.83694  -0.83317  -0.82740
 Alpha  occ. eigenvalues --   -0.81600  -0.81212  -0.80575  -0.79968  -0.78640
 Alpha  occ. eigenvalues --   -0.78264  -0.76894  -0.76438  -0.75952  -0.75279
 Alpha  occ. eigenvalues --   -0.74986  -0.74593  -0.74366  -0.73240  -0.72265
 Alpha  occ. eigenvalues --   -0.71256  -0.70435  -0.70023  -0.69029  -0.68525
 Alpha  occ. eigenvalues --   -0.67476  -0.67028  -0.65949  -0.64572  -0.64309
 Alpha  occ. eigenvalues --   -0.63621  -0.62887  -0.62017  -0.61743  -0.61425
 Alpha  occ. eigenvalues --   -0.61104  -0.60903  -0.60365  -0.60126  -0.58945
 Alpha  occ. eigenvalues --   -0.58872  -0.58518  -0.57951  -0.57749  -0.56663
 Alpha  occ. eigenvalues --   -0.56158  -0.56047  -0.55807  -0.55637  -0.55418
 Alpha  occ. eigenvalues --   -0.55150  -0.53873  -0.53601  -0.53409  -0.53251
 Alpha  occ. eigenvalues --   -0.53014  -0.52418  -0.52295  -0.52213  -0.51892
 Alpha  occ. eigenvalues --   -0.51670  -0.51472  -0.51301  -0.51071  -0.50996
 Alpha  occ. eigenvalues --   -0.50762  -0.50519  -0.50415  -0.50175  -0.49890
 Alpha  occ. eigenvalues --   -0.49662  -0.49214  -0.48835  -0.48669  -0.48605
 Alpha  occ. eigenvalues --   -0.48294  -0.48164  -0.47883  -0.47653  -0.47429
 Alpha  occ. eigenvalues --   -0.47275  -0.46815  -0.46586  -0.46417  -0.46002
 Alpha  occ. eigenvalues --   -0.45862  -0.45826  -0.45506  -0.45366  -0.45106
 Alpha  occ. eigenvalues --   -0.44870  -0.44591  -0.44506  -0.44320  -0.44019
 Alpha  occ. eigenvalues --   -0.43817  -0.43647  -0.43571  -0.43268  -0.42942
 Alpha  occ. eigenvalues --   -0.42859  -0.42662  -0.42561  -0.42317  -0.42091
 Alpha  occ. eigenvalues --   -0.41825  -0.41762  -0.41582  -0.41352  -0.41307
 Alpha  occ. eigenvalues --   -0.41239  -0.40982  -0.40752  -0.40607  -0.40509
 Alpha  occ. eigenvalues --   -0.40253  -0.40155  -0.40072  -0.40037  -0.39447
 Alpha  occ. eigenvalues --   -0.39237  -0.38610  -0.38154  -0.38016  -0.37933
 Alpha  occ. eigenvalues --   -0.37626  -0.37212  -0.36902  -0.36636  -0.36487
 Alpha  occ. eigenvalues --   -0.36328  -0.35804  -0.35686  -0.35417  -0.34976
 Alpha  occ. eigenvalues --   -0.34871  -0.34376  -0.34267  -0.33922  -0.33683
 Alpha  occ. eigenvalues --   -0.33260  -0.33183  -0.32092  -0.31173  -0.29617
 Alpha  occ. eigenvalues --   -0.29375  -0.29236  -0.28992  -0.26882  -0.23212
 Alpha  occ. eigenvalues --   -0.21741
 Alpha virt. eigenvalues --   -0.06565  -0.03070   0.02015   0.03984   0.04554
 Alpha virt. eigenvalues --    0.05977   0.06223   0.06639   0.06960   0.07604
 Alpha virt. eigenvalues --    0.08355   0.10226   0.10637   0.11437   0.11503

 Mulliken charges:
               1
     1  Mg   0.831940
     2  C    0.019856
     3  C   -0.198299
     4  C   -0.163554
     5  C   -0.149903
     6  N   -0.652051
     7  C    0.271564
     8  C   -0.157972
     9  C   -0.149566
    10  C    0.364920
    11  C   -0.303320
    12  C   -0.139925
    13  C   -0.245690
    14  C    0.621097
    15  O   -0.462032
    16  O   -0.521318
    17  N   -0.695212
    18  C    0.350341
    19  C    0.002011
    20  C    0.040855
    21  C    0.264161
    22  C   -0.388633
    23  C   -0.051001
    24  C   -0.245308
    25  N   -0.687403
    26  C    0.307896
    27  C   -0.012563
    28  C    0.049275
    29  C    0.283938
    30  C   -0.349462
    31  C   -0.270475
    32  C   -0.294586
    33  N   -0.748630
    34  C    0.260971
    35  C    0.020073
    36  C    0.020220
    37  C    0.318248
    38  C   -0.387668
    39  C    0.350806
    40  O   -0.441900
    41  C   -0.302728
    42  C    0.628922
    43  O   -0.495055
    44  O   -0.472915
    45  C   -0.069396
    46  C    0.009169
    47  C   -0.133896
    48  C    0.083229
    49  C   -0.352851
    50  C   -0.184127
    51  C   -0.198500
    52  C   -0.160386
    53  C   -0.091515
    54  C   -0.304107
    55  C   -0.173190
    56  C   -0.166896
    57  C   -0.204979
    58  C   -0.092155
    59  C   -0.278254
    60  C   -0.131931
    61  C   -0.163409
    62  C   -0.162194
    63  C   -0.046028
    64  C   -0.316756
    65  C   -0.303164
    66  H    0.060348
    67  H    0.092427
    68  H    0.123439
    69  H    0.119743
    70  H    0.099956
    71  H    0.117832
    72  H    0.106475
    73  H    0.121917
    74  H    0.073246
    75  H    0.126393
    76  H    0.145472
    77  H    0.109848
    78  H    0.117012
    79  H    0.118159
    80  H    0.123609
    81  H    0.092548
    82  H    0.108491
    83  H    0.107701
    84  H    0.111753
    85  H    0.104939
    86  H    0.098097
    87  H    0.096890
    88  H    0.102793
    89  H    0.116339
    90  H    0.090241
    91  H    0.105851
    92  H    0.122833
    93  H    0.152140
    94  H    0.095838
    95  H    0.160861
    96  H    0.129938
    97  H    0.148858
    98  H    0.122068
    99  H    0.139889
   100  H    0.115291
   101  H    0.094745
   102  H    0.078704
   103  H    0.131143
   104  H    0.122667
   105  H    0.107802
   106  H    0.098676
   107  H    0.104980
   108  H    0.078701
   109  H    0.083240
   110  H    0.093280
   111  H    0.078441
   112  H    0.110939
   113  H    0.108438
   114  H    0.114690
   115  H    0.070861
   116  H    0.088244
   117  H    0.104197
   118  H    0.103063
   119  H    0.078186
   120  H    0.089855
   121  H    0.069610
   122  H    0.098493
   123  H    0.088456
   124  H    0.094619
   125  H    0.101769
   126  H    0.064992
   127  H    0.089993
   128  H    0.049940
   129  H    0.087042
   130  H    0.069588
   131  H    0.087368
   132  H    0.085308
   133  H    0.082557
   134  H    0.122439
   135  H    0.113744
   136  H    0.103111
   137  H    0.092294
 Sum of Mulliken charges =   0.00000

 Dipole moment (field-independent basis, Debye):
    X=              1.6167    Y=              5.1669    Z=              0.3856  Tot=              5.4277
 Quadrupole moment (field-independent basis, Debye-Ang):
   XX=           -346.1666   YY=           -389.3926   ZZ=           -401.5565
   XY=            -22.0383   XZ=              8.1272   YZ=             -0.1715

 Normal termination of Gaussian 09 at Sat Jun 29 23:27:17 2019.
