 Gaussian 09, Revision D.01,
 Gaussian 09:  ES64L-G09RevD.01 24-Apr-2013

 -------------------------------------
 # td=(NStates=1) CAM-B3LYP/6-31G(d,p)
 -------------------------------------

 --
 TD
 --
 Symbolic Z-matrix:
 Charge =  0 Multiplicity = 1

                         Standard orientation:
 ---------------------------------------------------------------------
 Center     Atomic      Atomic             Coordinates (Angstroms)
 Number     Number       Type             X           Y           Z
 ---------------------------------------------------------------------
      1         12           0       -7.187858    0.607717    0.061843
      2          6           0       -4.810274   -1.883048    0.468110
      3          6           0       -4.864722    2.936131    1.069772
      4          6           0       -9.461154    3.018466   -0.351833
      5          6           0       -9.528399   -1.842132   -0.892767
      6          7           0       -5.097954    0.500562    0.608148
      7          6           0       -4.374708   -0.621711    0.795995
      8          6           0       -2.886319   -0.263207    1.185138
      9          6           0       -2.992347    1.178359    1.546383
     10          6           0       -4.402490    1.542138    1.076553
     11          6           0       -2.961187    1.226167    3.152151
     12          6           0       -1.872266   -0.538166   -0.083012
     13          6           0       -0.544535   -0.337799    0.407798
     14          6           0        0.536263   -0.544467   -0.703754
     15          8           0        0.317863   -0.922137   -1.832943
     16          8           0        1.659146   -0.310611   -0.260161
     17          7           0       -7.191536    2.537731    0.332916
     18          6           0       -6.143188    3.351554    0.789862
     19          6           0       -6.529268    4.770716    0.823188
     20          6           0       -7.863232    4.797750    0.388270
     21          6           0       -8.191213    3.504043    0.128650
     22          6           0       -5.688569    5.854221    1.431182
     23          6           0       -8.749743    5.847523    0.227800
     24          6           0       -8.386251    7.177480   -0.087904
     25          7           0       -9.113357    0.647222   -0.551419
     26          6           0       -9.907361    1.641445   -0.489396
     27          6           0      -11.300884    1.324528   -1.023168
     28          6           0      -11.296728    0.026825   -1.150072
     29          6           0       -9.884860   -0.420157   -0.876816
     30          6           0      -12.438003    2.323873   -1.270427
     31          6           0      -12.397631   -0.799901   -1.605435
     32          6           0      -12.417329   -1.260159   -3.097472
     33          7           0       -7.167551   -1.380471   -0.253928
     34          6           0       -8.203908   -2.251184   -0.600851
     35          6           0       -7.757639   -3.630368   -0.464998
     36          6           0       -6.361467   -3.597517   -0.137987
     37          6           0       -6.162813   -2.197419    0.047131
     38          6           0       -8.549764   -4.900406   -0.771681
     39          6           0       -5.230339   -4.309734    0.196150
     40          8           0       -5.089816   -5.564672    0.277179
     41          6           0       -4.102517   -3.243208    0.501220
     42          6           0       -3.459812   -3.595380    1.895918
     43          8           0       -3.721774   -3.101868    3.017527
     44          8           0       -2.635253   -4.665707    1.657005
     45          6           0       -1.973369   -5.121604    2.834097
     46          6           0        2.814711   -0.580761   -1.106862
     47          6           0        4.105867   -0.399861   -0.388361
     48          6           0        5.225993    0.363181   -0.893884
     49          6           0        5.160118    1.211576   -2.094214
     50          6           0        6.426076    0.458226    0.012925
     51          6           0        7.598371   -0.100179   -0.772100
     52          6           0        8.958952   -0.118667    0.000269
     53          6           0       10.219461   -0.521084   -0.766981
     54          6           0        9.917343   -1.867799   -1.262874
     55          6           0       11.461489   -0.271996    0.004907
     56          6           0       12.875303   -0.547715   -0.632255
     57          6           0       13.965042   -0.240394    0.223558
     58          6           0       15.391920   -0.326815   -0.472990
     59          6           0       15.734255   -1.746083   -1.015875
     60          6           0       16.467108    0.158985    0.486985
     61          6           0       17.837282    0.475018   -0.216756
     62          6           0       18.800985    1.257216    0.789211
     63          6           0       20.243248    1.385250    0.202978
     64          6           0       20.304454    2.080516   -1.114678
     65          6           0       21.195601    2.141279    1.149352
     66          1           0       -4.256800    3.687619    1.551144
     67          1           0      -10.157394    3.795724   -0.414863
     68          1           0      -10.203518   -2.586483   -1.243286
     69          1           0       -2.698003   -0.778452    2.151013
     70          1           0       -2.114905    1.972730    1.159692
     71          1           0       -1.971352    1.024678    3.533346
     72          1           0       -3.125163    2.080571    3.534694
     73          1           0       -3.792826    0.620749    3.375450
     74          1           0       -2.184273   -1.572889   -0.425869
     75          1           0       -2.186955    0.075328   -0.841858
     76          1           0       -0.271758    0.749250    0.756502
     77          1           0       -0.150650   -0.934323    1.194218
     78          1           0       -5.109513    6.403384    0.764600
     79          1           0       -6.432405    6.617292    2.152741
     80          1           0       -5.063821    5.453793    2.197191
     81          1           0       -9.797410    5.681430    0.433387
     82          1           0       -9.187668    7.959697   -0.231914
     83          1           0       -7.216265    7.436777   -0.497934
     84          1           0      -12.432490    2.724965   -2.261836
     85          1           0      -13.375598    1.653744   -0.943982
     86          1           0      -12.403235    3.172687   -0.505409
     87          1           0      -12.641529   -1.756372   -1.028794
     88          1           0      -13.357196   -0.077619   -1.499880
     89          1           0      -13.367164   -1.701447   -3.293579
     90          1           0      -11.964315   -0.379054   -3.933508
     91          1           0      -11.691180   -2.188850   -3.027794
     92          1           0       -8.737750   -4.983079   -1.893782
     93          1           0       -7.811645   -5.798896   -0.801764
     94          1           0       -9.322570   -5.137657   -0.069215
     95          1           0       -3.468913   -3.369579   -0.362774
     96          1           0       -1.337663   -4.382538    3.142372
     97          1           0       -2.577702   -5.646331    3.554331
     98          1           0       -1.364348   -6.050809    2.449759
     99          1           0        2.649594   -1.560783   -1.360734
    100          1           0        2.702300   -0.071789   -2.087221
    101          1           0        4.440028   -1.095360    0.350704
    102          1           0        4.145766    1.548686   -2.706222
    103          1           0        5.479164    2.103962   -1.857664
    104          1           0        5.922125    0.838924   -2.736498
    105          1           0        6.672523    1.448772    0.059791
    106          1           0        6.277835    0.124132    1.085073
    107          1           0        7.440102   -1.068615   -1.026448
    108          1           0        7.914239    0.584308   -1.672758
    109          1           0        8.999226    0.915367    0.604299
    110          1           0        8.815193   -0.936582    0.796761
    111          1           0       10.397096    0.221452   -1.636998
    112          1           0        9.166501   -2.010712   -2.222847
    113          1           0       10.962664   -2.297881   -1.754370
    114          1           0        9.687179   -2.496873   -0.345500
    115          1           0       11.473029    0.874614    0.412544
    116          1           0       11.183669   -0.866518    0.873704
    117          1           0       12.750934   -1.789404   -0.897668
    118          1           0       12.625218   -0.085351   -1.628144
    119          1           0       13.883939    0.834227    0.658016
    120          1           0       14.034196   -0.967707    0.994088
    121          1           0       15.472892    0.535510   -1.291771
    122          1           0       15.926055   -2.485466   -0.211418
    123          1           0       14.996446   -2.127699   -1.763991
    124          1           0       16.724976   -1.746515   -1.264611
    125          1           0       16.198585    1.096209    0.872223
    126          1           0       16.509502   -0.508290    1.328231
    127          1           0       18.214566   -0.458846   -0.832166
    128          1           0       17.697471    1.249738   -1.004640
    129          1           0       18.322484    2.194203    0.854581
    130          1           0       18.913369    0.842374    1.707143
    131          1           0       20.765809    0.402159   -0.132248
    132          1           0       19.717135    3.221067   -1.072167
    133          1           0       21.263741    2.394418   -1.384418
    134          1           0       19.908226    1.702079   -1.932856
    135          1           0       21.290542    1.653830    2.076798
    136          1           0       22.108468    2.200705    0.715418
    137          1           0       20.853635    3.072395    1.259732
 ---------------------------------------------------------------------

 SCF Done:  E(RCAM-B3LYP) =  -2932.61406925     A.U. after   18 cycles

 Excitation energies and oscillator strengths:

 Excited State   1:      Singlet-A      1.9658 eV  630.69 nm  f=0.2721  <S**2>=0.000
     240 -> 243        0.22862
     241 -> 242        0.66386
 This state for optimization and/or second-order correction.
 Total Energy, E(TD-HF/TD-KS) =  -2932.54182578
 Copying the excited state density for this state as the 1-particle RhoCI density.

 The electronic state is 1-A.
 Alpha  occ. eigenvalues --  -46.84029 -19.26169 -19.26128 -19.21157 -19.18579
 Alpha  occ. eigenvalues --  -19.18096 -14.42107 -14.40258 -14.39510 -14.39056
 Alpha  occ. eigenvalues --  -10.39782 -10.36909 -10.33746 -10.31762 -10.31304
 Alpha  occ. eigenvalues --  -10.30300 -10.30002 -10.29755 -10.29680 -10.29524
 Alpha  occ. eigenvalues --  -10.29274 -10.29196 -10.29137 -10.28765 -10.28577
 Alpha  occ. eigenvalues --  -10.28558 -10.28389 -10.28353 -10.28125 -10.27847
 Alpha  occ. eigenvalues --  -10.27792 -10.27742 -10.27707 -10.27553 -10.27495
 Alpha  occ. eigenvalues --  -10.27272 -10.27135 -10.26955 -10.26864 -10.26750
 Alpha  occ. eigenvalues --  -10.26730 -10.26551 -10.26496 -10.26458 -10.26448
 Alpha  occ. eigenvalues --  -10.26439 -10.26392 -10.26359 -10.26291 -10.26097
 Alpha  occ. eigenvalues --  -10.26090 -10.26066 -10.26018 -10.26003 -10.25982
 Alpha  occ. eigenvalues --  -10.25763 -10.25561 -10.25493 -10.24592 -10.24278
 Alpha  occ. eigenvalues --  -10.24218 -10.24208 -10.23900 -10.23810 -10.21995
 Alpha  occ. eigenvalues --   -3.13302  -1.87981  -1.87559  -1.87500  -1.21635
 Alpha  occ. eigenvalues --   -1.16640  -1.07714  -1.07571  -1.07042  -1.06067
 Alpha  occ. eigenvalues --   -1.05039  -1.03276  -1.02516  -0.92512  -0.91831
 Alpha  occ. eigenvalues --   -0.91180  -0.90115  -0.90012  -0.89840  -0.89810
 Alpha  occ. eigenvalues --   -0.88832  -0.87911  -0.87019  -0.86347  -0.86048
 Alpha  occ. eigenvalues --   -0.85309  -0.84472  -0.83292  -0.82726  -0.82535
 Alpha  occ. eigenvalues --   -0.81832  -0.80847  -0.80416  -0.80228  -0.78105
 Alpha  occ. eigenvalues --   -0.77937  -0.76978  -0.76917  -0.76888  -0.76001
 Alpha  occ. eigenvalues --   -0.75772  -0.75333  -0.74554  -0.73887  -0.71692
 Alpha  occ. eigenvalues --   -0.71342  -0.70383  -0.69550  -0.69243  -0.68277
 Alpha  occ. eigenvalues --   -0.67190  -0.66928  -0.64502  -0.64381  -0.64146
 Alpha  occ. eigenvalues --   -0.64055  -0.63591  -0.63354  -0.62483  -0.62099
 Alpha  occ. eigenvalues --   -0.61700  -0.60869  -0.60019  -0.59470  -0.58702
 Alpha  occ. eigenvalues --   -0.58239  -0.57978  -0.57784  -0.57393  -0.56995
 Alpha  occ. eigenvalues --   -0.55981  -0.55609  -0.55262  -0.54942  -0.54771
 Alpha  occ. eigenvalues --   -0.54472  -0.54197  -0.53900  -0.53576  -0.53093
 Alpha  occ. eigenvalues --   -0.52988  -0.52567  -0.52451  -0.52139  -0.51698
 Alpha  occ. eigenvalues --   -0.51558  -0.51271  -0.51133  -0.50852  -0.50703
 Alpha  occ. eigenvalues --   -0.50474  -0.50185  -0.50122  -0.49940  -0.49701
 Alpha  occ. eigenvalues --   -0.49386  -0.49041  -0.48994  -0.48777  -0.48479
 Alpha  occ. eigenvalues --   -0.48280  -0.48127  -0.47639  -0.47503  -0.47140
 Alpha  occ. eigenvalues --   -0.47058  -0.46974  -0.46847  -0.46728  -0.46353
 Alpha  occ. eigenvalues --   -0.45996  -0.45862  -0.45624  -0.45445  -0.45202
 Alpha  occ. eigenvalues --   -0.44963  -0.44471  -0.44419  -0.44212  -0.44004
 Alpha  occ. eigenvalues --   -0.43899  -0.43544  -0.43449  -0.43262  -0.43113
 Alpha  occ. eigenvalues --   -0.42519  -0.42480  -0.42244  -0.42133  -0.41916
 Alpha  occ. eigenvalues --   -0.41798  -0.41668  -0.41509  -0.41256  -0.41209
 Alpha  occ. eigenvalues --   -0.40965  -0.40866  -0.40661  -0.40238  -0.40128
 Alpha  occ. eigenvalues --   -0.40023  -0.39914  -0.39591  -0.39524  -0.39320
 Alpha  occ. eigenvalues --   -0.38854  -0.38705  -0.38613  -0.38207  -0.37775
 Alpha  occ. eigenvalues --   -0.37560  -0.37389  -0.37081  -0.36774  -0.36345
 Alpha  occ. eigenvalues --   -0.36051  -0.35819  -0.35813  -0.35689  -0.35521
 Alpha  occ. eigenvalues --   -0.35454  -0.35004  -0.34495  -0.34006  -0.33378
 Alpha  occ. eigenvalues --   -0.33210  -0.31835  -0.31676  -0.30378  -0.29695
 Alpha  occ. eigenvalues --   -0.29158  -0.28738  -0.28565  -0.27382  -0.22793
 Alpha  occ. eigenvalues --   -0.20648
 Alpha virt. eigenvalues --   -0.06563  -0.02524   0.00958   0.03393   0.03815
 Alpha virt. eigenvalues --    0.05547   0.06106   0.06567   0.06740   0.08950
 Alpha virt. eigenvalues --    0.09873   0.10575   0.10697   0.11443   0.11660

 Mulliken charges:
               1
     1  Mg   0.829385
     2  C    0.043725
     3  C   -0.213595
     4  C   -0.180010
     5  C   -0.147074
     6  N   -0.595564
     7  C    0.256640
     8  C   -0.158911
     9  C   -0.160912
    10  C    0.339565
    11  C   -0.310162
    12  C   -0.145445
    13  C   -0.258561
    14  C    0.565190
    15  O   -0.515719
    16  O   -0.410103
    17  N   -0.721422
    18  C    0.323503
    19  C   -0.002637
    20  C    0.116045
    21  C    0.268126
    22  C   -0.366629
    23  C   -0.128678
    24  C   -0.240573
    25  N   -0.623246
    26  C    0.269184
    27  C    0.010207
    28  C    0.087875
    29  C    0.241675
    30  C   -0.361595
    31  C   -0.270878
    32  C   -0.277333
    33  N   -0.706677
    34  C    0.267819
    35  C   -0.016590
    36  C    0.107176
    37  C    0.269309
    38  C   -0.397252
    39  C    0.311000
    40  O   -0.503886
    41  C   -0.310351
    42  C    0.630966
    43  O   -0.494343
    44  O   -0.436547
    45  C   -0.078789
    46  C    0.006880
    47  C   -0.152367
    48  C    0.096638
    49  C   -0.360537
    50  C   -0.222462
    51  C   -0.181522
    52  C   -0.181633
    53  C   -0.047584
    54  C   -0.293366
    55  C   -0.160179
    56  C   -0.156473
    57  C   -0.152453
    58  C   -0.059746
    59  C   -0.316489
    60  C   -0.175452
    61  C   -0.200393
    62  C   -0.165467
    63  C   -0.067285
    64  C   -0.288878
    65  C   -0.308060
    66  H    0.074761
    67  H    0.062248
    68  H    0.103588
    69  H    0.135355
    70  H    0.086172
    71  H    0.111605
    72  H    0.109809
    73  H    0.130582
    74  H    0.115404
    75  H    0.130119
    76  H    0.114556
    77  H    0.137357
    78  H    0.135632
    79  H    0.095248
    80  H    0.126729
    81  H    0.109915
    82  H    0.109204
    83  H    0.093559
    84  H    0.138957
    85  H    0.106826
    86  H    0.111866
    87  H    0.104403
    88  H    0.073739
    89  H    0.121149
    90  H    0.087104
    91  H    0.088807
    92  H    0.122061
    93  H    0.141280
    94  H    0.132983
    95  H    0.173081
    96  H    0.129582
    97  H    0.138933
    98  H    0.104691
    99  H    0.135000
   100  H    0.130224
   101  H    0.089125
   102  H    0.108642
   103  H    0.132747
   104  H    0.133042
   105  H    0.119281
   106  H    0.113769
   107  H    0.117202
   108  H    0.089113
   109  H    0.063803
   110  H    0.074812
   111  H    0.065755
   112  H    0.105359
   113  H    0.072565
   114  H    0.101514
   115  H    0.066389
   116  H    0.079723
   117  H    0.060423
   118  H    0.095079
   119  H    0.082124
   120  H    0.108644
   121  H    0.062524
   122  H    0.091387
   123  H    0.110214
   124  H    0.109366
   125  H    0.091799
   126  H    0.089927
   127  H    0.079107
   128  H    0.100142
   129  H    0.103986
   130  H    0.101379
   131  H    0.077119
   132  H    0.030965
   133  H    0.104893
   134  H    0.114580
   135  H    0.097470
   136  H    0.104923
   137  H    0.111494
 Sum of Mulliken charges =   0.00000

 Dipole moment (field-independent basis, Debye):
    X=              3.5552    Y=              5.8478    Z=              0.7318  Tot=              6.8827
 Quadrupole moment (field-independent basis, Debye-Ang):
   XX=           -315.7919   YY=           -396.7678   ZZ=           -400.4762
   XY=            -25.8177   XZ=             10.0450   YZ=              0.1848

 Normal termination of Gaussian 09 at Sat Jun 29 23:09:52 2019.
