 Gaussian 09, Revision D.01,
 Gaussian 09:  ES64L-G09RevD.01 24-Apr-2013

 -------------------------------------
 # td=(NStates=1) CAM-B3LYP/6-31G(d,p)
 -------------------------------------

 --
 TD
 --
 Symbolic Z-matrix:
 Charge =  0 Multiplicity = 1

                         Standard orientation:
 ---------------------------------------------------------------------
 Center     Atomic      Atomic             Coordinates (Angstroms)
 Number     Number       Type             X           Y           Z
 ---------------------------------------------------------------------
      1         12           0       -7.074146    0.655484    0.060500
      2          6           0       -4.861683   -1.976352    0.507492
      3          6           0       -4.797251    2.825466    1.123595
      4          6           0       -9.453442    3.122480   -0.301716
      5          6           0       -9.493638   -1.744136   -0.847462
      6          7           0       -5.027105    0.427716    0.637768
      7          6           0       -4.345502   -0.774405    0.758559
      8          6           0       -2.887530   -0.404138    1.120101
      9          6           0       -3.010386    1.130872    1.547933
     10          6           0       -4.295766    1.437385    1.066926
     11          6           0       -2.764601    1.414995    3.031083
     12          6           0       -1.901907   -0.713041    0.076254
     13          6           0       -0.462589   -0.512763    0.445419
     14          6           0        0.541286   -0.807629   -0.650702
     15          8           0        0.276727   -1.096920   -1.817152
     16          8           0        1.785010   -0.538376   -0.096942
     17          7           0       -7.053573    2.628034    0.362438
     18          6           0       -6.019163    3.352166    0.768082
     19          6           0       -6.458683    4.776121    0.855949
     20          6           0       -7.737836    4.726639    0.471384
     21          6           0       -8.113225    3.451020    0.151408
     22          6           0       -5.470973    5.827225    1.325502
     23          6           0       -8.586808    5.975968    0.376825
     24          6           0       -8.223961    7.262818    0.197116
     25          7           0       -9.111256    0.791008   -0.518724
     26          6           0       -9.890704    1.874726   -0.581694
     27          6           0      -11.214202    1.478306   -1.048473
     28          6           0      -11.262432    0.097072   -1.214989
     29          6           0       -9.912000   -0.281750   -0.830533
     30          6           0      -12.238674    2.510321   -1.407720
     31          6           0      -12.349680   -0.791749   -1.657988
     32          6           0      -12.502422   -1.130396   -3.169170
     33          7           0       -7.246960   -1.304567   -0.109564
     34          6           0       -8.247958   -2.223301   -0.504888
     35          6           0       -7.818186   -3.582831   -0.486771
     36          6           0       -6.526372   -3.578098    0.042519
     37          6           0       -6.222050   -2.131562    0.175218
     38          6           0       -8.493121   -4.832006   -0.966833
     39          6           0       -5.357027   -4.385024    0.226319
     40          8           0       -5.221428   -5.569755    0.181086
     41          6           0       -4.196562   -3.310152    0.553234
     42          6           0       -3.454489   -3.740032    1.879247
     43          8           0       -3.508197   -3.163905    2.897861
     44          8           0       -2.654891   -4.803021    1.687086
     45          6           0       -1.895272   -5.294551    2.765847
     46          6           0        2.878171   -0.743902   -1.074220
     47          6           0        4.140662   -0.594564   -0.483099
     48          6           0        5.032868    0.351322   -0.873074
     49          6           0        4.963698    1.238858   -2.123246
     50          6           0        6.331767    0.485301   -0.113124
     51          6           0        7.556597   -0.146632   -0.834782
     52          6           0        8.833624    0.018800   -0.167557
     53          6           0       10.134869   -0.411521   -0.824214
     54          6           0       10.132704   -1.785952   -1.454671
     55          6           0       11.310334   -0.199084    0.154069
     56          6           0       12.620844   -0.494769   -0.615173
     57          6           0       13.946466   -0.141334    0.281266
     58          6           0       15.303185   -0.235731   -0.347614
     59          6           0       15.572588   -1.692477   -0.841053
     60          6           0       16.297123    0.413721    0.470601
     61          6           0       17.702128    0.517201   -0.218229
     62          6           0       18.670378    1.422913    0.581334
     63          6           0       20.099734    1.329158    0.083544
     64          6           0       20.341966    2.169981   -1.163978
     65          6           0       21.164160    1.689691    1.221008
     66          1           0       -4.092863    3.516453    1.517468
     67          1           0      -10.187287    3.856813   -0.348224
     68          1           0      -10.244024   -2.405721   -0.981858
     69          1           0       -2.566965   -1.044942    2.145836
     70          1           0       -2.289663    1.747994    0.930901
     71          1           0       -1.815218    1.161758    3.449451
     72          1           0       -2.780416    2.541865    3.427879
     73          1           0       -3.529290    0.788982    3.602862
     74          1           0       -1.885473   -1.921006   -0.016308
     75          1           0       -2.165446   -0.307635   -0.979100
     76          1           0       -0.167642    0.545358    0.842352
     77          1           0       -0.138658   -1.094109    1.136177
     78          1           0       -5.046487    6.284979    0.503892
     79          1           0       -6.154804    6.667942    1.733276
     80          1           0       -4.900168    5.300074    2.211468
     81          1           0       -9.584521    5.700068    0.686475
     82          1           0       -8.924495    8.021616   -0.041573
     83          1           0       -7.080273    7.349290    0.146920
     84          1           0      -11.936804    3.169383   -2.289390
     85          1           0      -13.275355    2.026840   -1.484564
     86          1           0      -12.265789    2.911746   -0.444195
     87          1           0      -12.344031   -1.694894   -1.103085
     88          1           0      -13.282950   -0.209186   -1.458101
     89          1           0      -13.315605   -1.821648   -3.526681
     90          1           0      -12.774936   -0.313990   -3.953582
     91          1           0      -11.678965   -1.623266   -3.452244
     92          1           0       -8.729970   -4.705296   -2.113057
     93          1           0       -7.917976   -5.744550   -0.672953
     94          1           0       -9.476790   -4.868925   -0.461542
     95          1           0       -3.562312   -3.592443   -0.132555
     96          1           0       -1.115696   -4.480128    3.097704
     97          1           0       -2.571348   -5.460652    3.593033
     98          1           0       -1.435916   -6.229362    2.437287
     99          1           0        2.712509   -1.849451   -1.425502
    100          1           0        2.757198   -0.116309   -1.974366
    101          1           0        4.350871   -1.374031    0.306360
    102          1           0        3.991923    1.365997   -2.640693
    103          1           0        5.240988    2.262435   -1.821404
    104          1           0        5.528635    0.847531   -2.943363
    105          1           0        6.702825    1.570629   -0.196433
    106          1           0        6.204819   -0.013686    0.895878
    107          1           0        7.247566   -1.206875   -0.972686
    108          1           0        7.614769    0.278297   -1.909401
    109          1           0        8.868350    1.144684    0.319897
    110          1           0        8.931888   -0.695655    0.779040
    111          1           0       10.165808    0.473760   -1.554919
    112          1           0        9.225741   -1.954503   -2.009449
    113          1           0       11.016921   -1.853422   -2.187606
    114          1           0       10.252217   -2.543506   -0.626217
    115          1           0       11.328886    0.845329    0.505149
    116          1           0       11.099419   -0.745188    0.994494
    117          1           0       12.700011   -1.469218   -1.144857
    118          1           0       12.583585    0.288936   -1.435227
    119          1           0       13.675430    0.855521    0.463056
    120          1           0       13.741264   -0.772338    1.181444
    121          1           0       15.287675    0.266390   -1.372573
    122          1           0       15.765768   -2.442648   -0.171319
    123          1           0       14.711852   -2.004762   -1.465291
    124          1           0       16.533028   -1.511248   -1.429455
    125          1           0       15.836012    1.574070    0.550695
    126          1           0       16.316048   -0.186009    1.479061
    127          1           0       18.178946   -0.382333   -0.408877
    128          1           0       17.698982    0.728171   -1.239493
    129          1           0       18.312412    2.308799    0.817643
    130          1           0       18.807336    1.004024    1.590438
    131          1           0       20.531992    0.274022   -0.207636
    132          1           0       20.118898    3.210564   -0.634340
    133          1           0       21.336580    2.217969   -1.704066
    134          1           0       19.382068    2.208681   -1.758575
    135          1           0       21.068130    1.206136    2.170412
    136          1           0       22.277045    1.589121    0.871190
    137          1           0       21.023618    2.797508    1.430931
 ---------------------------------------------------------------------

 SCF Done:  E(RCAM-B3LYP) =  -2932.74479133     A.U. after   17 cycles

 Excitation energies and oscillator strengths:

 Excited State   1:      Singlet-A      1.9533 eV  634.75 nm  f=0.2592  <S**2>=0.000
     240 -> 243        0.22013
     241 -> 242        0.66347
 This state for optimization and/or second-order correction.
 Total Energy, E(TD-HF/TD-KS) =  -2932.67300984
 Copying the excited state density for this state as the 1-particle RhoCI density.

 The electronic state is 1-A.
 Alpha  occ. eigenvalues --  -46.84117 -19.26115 -19.25744 -19.21553 -19.20912
 Alpha  occ. eigenvalues --  -19.20684 -14.41846 -14.40376 -14.38658 -14.38498
 Alpha  occ. eigenvalues --  -10.39419 -10.39052 -10.35023 -10.31761 -10.31406
 Alpha  occ. eigenvalues --  -10.31052 -10.30369 -10.29769 -10.29132 -10.29060
 Alpha  occ. eigenvalues --  -10.28775 -10.28703 -10.28671 -10.28625 -10.28574
 Alpha  occ. eigenvalues --  -10.27981 -10.27911 -10.27404 -10.27352 -10.27265
 Alpha  occ. eigenvalues --  -10.27244 -10.27234 -10.27192 -10.27131 -10.27047
 Alpha  occ. eigenvalues --  -10.26848 -10.26824 -10.26753 -10.26711 -10.26664
 Alpha  occ. eigenvalues --  -10.26574 -10.26517 -10.26287 -10.26238 -10.26170
 Alpha  occ. eigenvalues --  -10.26147 -10.26023 -10.25815 -10.25814 -10.25675
 Alpha  occ. eigenvalues --  -10.25654 -10.25619 -10.25569 -10.25510 -10.25504
 Alpha  occ. eigenvalues --  -10.25243 -10.25241 -10.25202 -10.25173 -10.24957
 Alpha  occ. eigenvalues --  -10.24735 -10.24528 -10.24371 -10.24141 -10.24139
 Alpha  occ. eigenvalues --   -3.13241  -1.87942  -1.87470  -1.87437  -1.19419
 Alpha  occ. eigenvalues --   -1.16247  -1.12520  -1.10707  -1.08606  -1.05487
 Alpha  occ. eigenvalues --   -1.04547  -1.03658  -1.02543  -0.92998  -0.92038
 Alpha  occ. eigenvalues --   -0.91088  -0.90617  -0.90118  -0.89095  -0.88666
 Alpha  occ. eigenvalues --   -0.88585  -0.88325  -0.87497  -0.87326  -0.86346
 Alpha  occ. eigenvalues --   -0.85400  -0.84038  -0.83687  -0.82934  -0.82470
 Alpha  occ. eigenvalues --   -0.81798  -0.81353  -0.80977  -0.79994  -0.78886
 Alpha  occ. eigenvalues --   -0.78087  -0.77219  -0.76630  -0.76540  -0.75834
 Alpha  occ. eigenvalues --   -0.75126  -0.74774  -0.74727  -0.73575  -0.72415
 Alpha  occ. eigenvalues --   -0.72036  -0.70986  -0.70588  -0.69650  -0.67918
 Alpha  occ. eigenvalues --   -0.67246  -0.66613  -0.65041  -0.64775  -0.64576
 Alpha  occ. eigenvalues --   -0.64209  -0.63072  -0.62479  -0.62357  -0.61851
 Alpha  occ. eigenvalues --   -0.61241  -0.60532  -0.60408  -0.59502  -0.59289
 Alpha  occ. eigenvalues --   -0.58842  -0.58116  -0.57680  -0.57375  -0.56827
 Alpha  occ. eigenvalues --   -0.56003  -0.55798  -0.55484  -0.55077  -0.54905
 Alpha  occ. eigenvalues --   -0.54627  -0.54395  -0.53947  -0.53388  -0.53124
 Alpha  occ. eigenvalues --   -0.52723  -0.52684  -0.52321  -0.51912  -0.51826
 Alpha  occ. eigenvalues --   -0.51460  -0.51412  -0.51224  -0.51033  -0.50966
 Alpha  occ. eigenvalues --   -0.50740  -0.50615  -0.50241  -0.49895  -0.49581
 Alpha  occ. eigenvalues --   -0.49543  -0.49083  -0.48912  -0.48689  -0.48631
 Alpha  occ. eigenvalues --   -0.48458  -0.48121  -0.47968  -0.47801  -0.47712
 Alpha  occ. eigenvalues --   -0.47461  -0.47397  -0.46911  -0.46750  -0.46392
 Alpha  occ. eigenvalues --   -0.45788  -0.45733  -0.45627  -0.45394  -0.45333
 Alpha  occ. eigenvalues --   -0.45116  -0.44961  -0.44689  -0.44656  -0.44481
 Alpha  occ. eigenvalues --   -0.44413  -0.44161  -0.44070  -0.43759  -0.43510
 Alpha  occ. eigenvalues --   -0.43305  -0.43237  -0.42757  -0.42694  -0.42397
 Alpha  occ. eigenvalues --   -0.42207  -0.41754  -0.41737  -0.41420  -0.41374
 Alpha  occ. eigenvalues --   -0.41182  -0.40985  -0.40914  -0.40832  -0.40546
 Alpha  occ. eigenvalues --   -0.40179  -0.40113  -0.39877  -0.39591  -0.38994
 Alpha  occ. eigenvalues --   -0.38982  -0.38852  -0.38638  -0.38420  -0.37970
 Alpha  occ. eigenvalues --   -0.37299  -0.37142  -0.37037  -0.36824  -0.36487
 Alpha  occ. eigenvalues --   -0.36480  -0.35987  -0.35646  -0.35526  -0.35340
 Alpha  occ. eigenvalues --   -0.34892  -0.34630  -0.34014  -0.33863  -0.33756
 Alpha  occ. eigenvalues --   -0.33388  -0.33120  -0.31912  -0.30730  -0.30191
 Alpha  occ. eigenvalues --   -0.29995  -0.29670  -0.27990  -0.27348  -0.23843
 Alpha  occ. eigenvalues --   -0.19858
 Alpha virt. eigenvalues --   -0.05884  -0.02770   0.01511   0.04265   0.04750
 Alpha virt. eigenvalues --    0.05863   0.06052   0.06793   0.07031   0.07469
 Alpha virt. eigenvalues --    0.08744   0.10895   0.11227   0.11360   0.11511

 Mulliken charges:
               1
     1  Mg   0.820399
     2  C    0.088365
     3  C   -0.221879
     4  C   -0.180702
     5  C   -0.174122
     6  N   -0.649794
     7  C    0.295382
     8  C   -0.174100
     9  C   -0.155297
    10  C    0.384901
    11  C   -0.308190
    12  C   -0.165672
    13  C   -0.240347
    14  C    0.611301
    15  O   -0.478158
    16  O   -0.501583
    17  N   -0.743883
    18  C    0.337638
    19  C    0.001485
    20  C   -0.020431
    21  C    0.330948
    22  C   -0.368053
    23  C   -0.048644
    24  C   -0.253964
    25  N   -0.682428
    26  C    0.353524
    27  C   -0.049700
    28  C    0.074243
    29  C    0.233613
    30  C   -0.361141
    31  C   -0.250894
    32  C   -0.314912
    33  N   -0.722333
    34  C    0.278084
    35  C    0.045307
    36  C   -0.003850
    37  C    0.297712
    38  C   -0.375130
    39  C    0.342687
    40  O   -0.444724
    41  C   -0.306886
    42  C    0.593526
    43  O   -0.443644
    44  O   -0.447295
    45  C   -0.077632
    46  C    0.016983
    47  C   -0.117024
    48  C    0.116060
    49  C   -0.377320
    50  C   -0.223830
    51  C   -0.173538
    52  C   -0.146470
    53  C   -0.059411
    54  C   -0.306539
    55  C   -0.169156
    56  C   -0.211296
    57  C   -0.168058
    58  C   -0.060995
    59  C   -0.310512
    60  C   -0.138461
    61  C   -0.193006
    62  C   -0.170861
    63  C   -0.060932
    64  C   -0.299072
    65  C   -0.315047
    66  H    0.063120
    67  H    0.081551
    68  H    0.075385
    69  H    0.112005
    70  H    0.116965
    71  H    0.121519
    72  H    0.094834
    73  H    0.121389
    74  H    0.093851
    75  H    0.122281
    76  H    0.123651
    77  H    0.143156
    78  H    0.144597
    79  H    0.111983
    80  H    0.119463
    81  H    0.088743
    82  H    0.114966
    83  H    0.085376
    84  H    0.127402
    85  H    0.098333
    86  H    0.134030
    87  H    0.115062
    88  H    0.103900
    89  H    0.096084
    90  H    0.097003
    91  H    0.120623
    92  H    0.121470
    93  H    0.153385
    94  H    0.122448
    95  H    0.159083
    96  H    0.104465
    97  H    0.133970
    98  H    0.132448
    99  H    0.104625
   100  H    0.118334
   101  H    0.093906
   102  H    0.116084
   103  H    0.120229
   104  H    0.139898
   105  H    0.092450
   106  H    0.107776
   107  H    0.097421
   108  H    0.079355
   109  H    0.064001
   110  H    0.056880
   111  H    0.071815
   112  H    0.109898
   113  H    0.106783
   114  H    0.099733
   115  H    0.092433
   116  H    0.096373
   117  H    0.094131
   118  H    0.085807
   119  H    0.092100
   120  H    0.087241
   121  H    0.078064
   122  H    0.108276
   123  H    0.101123
   124  H    0.084747
   125  H    0.065400
   126  H    0.085735
   127  H    0.106467
   128  H    0.096997
   129  H    0.103472
   130  H    0.093863
   131  H    0.074669
   132  H    0.072190
   133  H    0.109172
   134  H    0.101933
   135  H    0.108034
   136  H    0.086598
   137  H    0.086203
 Sum of Mulliken charges =   0.00000

 Dipole moment (field-independent basis, Debye):
    X=              2.6422    Y=              2.6468    Z=              0.1978  Tot=              3.7451
 Quadrupole moment (field-independent basis, Debye-Ang):
   XX=           -362.9691   YY=           -395.7666   ZZ=           -398.3380
   XY=            -13.4107   XZ=              8.3017   YZ=             -3.6273

 Normal termination of Gaussian 09 at Thu Jun 27 10:26:21 2019.
