 Gaussian 09, Revision D.01,
 Gaussian 09:  ES64L-G09RevD.01 24-Apr-2013

 -------------------------------------
 # td=(NStates=1) CAM-B3LYP/6-31G(d,p)
 -------------------------------------

 --
 TD
 --
 Symbolic Z-matrix:
 Charge =  0 Multiplicity = 1

                         Standard orientation:
 ---------------------------------------------------------------------
 Center     Atomic      Atomic             Coordinates (Angstroms)
 Number     Number       Type             X           Y           Z
 ---------------------------------------------------------------------
      1         12           0       -7.203639    0.623812    0.220109
      2          6           0       -4.844763   -1.912908    0.508337
      3          6           0       -4.812620    2.793810    1.320905
      4          6           0       -9.374247    3.075783   -0.395430
      5          6           0       -9.563717   -1.701670   -0.927690
      6          7           0       -5.078326    0.372525    0.751001
      7          6           0       -4.326940   -0.698024    0.804850
      8          6           0       -2.904377   -0.440099    1.183105
      9          6           0       -2.974750    1.017598    1.696803
     10          6           0       -4.445458    1.433769    1.290795
     11          6           0       -2.830395    1.240900    3.189713
     12          6           0       -1.898831   -0.634380    0.066780
     13          6           0       -0.499629   -0.506669    0.549582
     14          6           0        0.558983   -0.668491   -0.635095
     15          8           0        0.210003   -0.989624   -1.711973
     16          8           0        1.731277   -0.440857   -0.265031
     17          7           0       -7.048375    2.518759    0.314429
     18          6           0       -6.032088    3.318249    0.907485
     19          6           0       -6.424484    4.699578    0.930941
     20          6           0       -7.714656    4.816811    0.317795
     21          6           0       -8.112176    3.437838    0.103528
     22          6           0       -5.583160    5.784557    1.339644
     23          6           0       -8.584324    5.993533    0.211122
     24          6           0       -8.214795    7.291204    0.090177
     25          7           0       -9.146542    0.673427   -0.407960
     26          6           0       -9.849575    1.754764   -0.583549
     27          6           0      -11.181970    1.464711   -0.930366
     28          6           0      -11.235696    0.137532   -1.140484
     29          6           0       -9.901096   -0.372063   -0.790411
     30          6           0      -12.289982    2.469194   -1.344794
     31          6           0      -12.399148   -0.797347   -1.731784
     32          6           0      -12.325608   -1.001865   -3.191980
     33          7           0       -7.199485   -1.365324   -0.147157
     34          6           0       -8.244538   -2.246925   -0.520921
     35          6           0       -7.797497   -3.607566   -0.474315
     36          6           0       -6.432155   -3.585849   -0.106646
     37          6           0       -6.148309   -2.225356    0.134176
     38          6           0       -8.548675   -4.823577   -0.842184
     39          6           0       -5.219963   -4.348368    0.144032
     40          8           0       -5.106063   -5.575256    0.056600
     41          6           0       -4.129320   -3.267377    0.498495
     42          6           0       -3.433328   -3.608605    1.844859
     43          8           0       -3.816890   -3.175461    2.867353
     44          8           0       -2.599974   -4.687153    1.727121
     45          6           0       -1.999083   -5.204288    2.895560
     46          6           0        2.694479   -0.545324   -1.292209
     47          6           0        4.104521   -0.294983   -0.639567
     48          6           0        5.117381    0.489388   -1.034276
     49          6           0        5.160854    1.250248   -2.263612
     50          6           0        6.420578    0.340763   -0.193159
     51          6           0        7.528838   -0.099818   -1.073926
     52          6           0        8.833233   -0.222933   -0.176951
     53          6           0       10.076306   -0.538860   -0.952524
     54          6           0       10.087130   -1.972415   -1.283547
     55          6           0       11.375769   -0.268263   -0.061040
     56          6           0       12.732289   -0.441817   -0.718489
     57          6           0       13.950536   -0.064739    0.176578
     58          6           0       15.236065   -0.176479   -0.527391
     59          6           0       15.693835   -1.573493   -1.025653
     60          6           0       16.340745    0.360009    0.513914
     61          6           0       17.734095    0.495553   -0.192000
     62          6           0       18.816546    1.146706    0.756700
     63          6           0       20.241596    1.293763    0.262880
     64          6           0       20.265831    2.228351   -0.908706
     65          6           0       21.104370    1.901926    1.378548
     66          1           0       -4.151561    3.491092    1.830910
     67          1           0      -10.057346    3.935522   -0.624370
     68          1           0      -10.155929   -2.523592   -1.433195
     69          1           0       -2.716238   -1.224540    1.882470
     70          1           0       -2.355023    1.745223    1.026960
     71          1           0       -1.586323    0.929785    3.426144
     72          1           0       -3.158091    2.179219    3.460526
     73          1           0       -3.716591    0.851010    3.727106
     74          1           0       -1.923598   -1.642416   -0.243553
     75          1           0       -2.129699    0.043171   -0.852522
     76          1           0       -0.186991    0.539776    1.019722
     77          1           0       -0.359075   -1.351222    1.259413
     78          1           0       -5.026216    6.397603    0.737506
     79          1           0       -6.178735    6.586446    1.961316
     80          1           0       -4.796463    5.420561    1.988145
     81          1           0       -9.577177    5.812012    0.278031
     82          1           0       -9.060133    7.905681    0.056811
     83          1           0       -7.177150    7.608234   -0.157893
     84          1           0      -11.942882    3.058102   -2.159078
     85          1           0      -13.069400    1.909466   -1.894469
     86          1           0      -12.751202    3.381729   -0.762708
     87          1           0      -12.334250   -1.782254   -1.073428
     88          1           0      -13.310261   -0.424939   -1.517909
     89          1           0      -13.277326   -1.591853   -3.595958
     90          1           0      -12.116564   -0.080721   -3.615385
     91          1           0      -11.321605   -1.447994   -3.609162
     92          1           0       -8.905155   -4.722143   -1.765279
     93          1           0       -7.727233   -5.662567   -0.895645
     94          1           0       -9.276937   -5.226885   -0.106107
     95          1           0       -3.384414   -3.464518   -0.254411
     96          1           0       -1.653023   -4.511766    3.502301
     97          1           0       -2.963538   -5.673579    3.599291
     98          1           0       -1.378205   -5.956842    2.494775
     99          1           0        2.710567   -1.757186   -1.608516
    100          1           0        2.411368    0.221693   -2.102403
    101          1           0        4.224879   -0.622178    0.372054
    102          1           0        4.138204    1.214349   -2.732983
    103          1           0        5.527804    2.245840   -2.042378
    104          1           0        5.723648    0.729707   -3.140710
    105          1           0        6.588045    1.274185    0.299637
    106          1           0        6.359807   -0.416947    0.661686
    107          1           0        7.088786   -1.056551   -1.409408
    108          1           0        7.741594    0.580834   -1.814364
    109          1           0        8.902966    0.718646    0.468426
    110          1           0        8.802841   -1.172363    0.596291
    111          1           0       10.096646    0.133061   -1.759275
    112          1           0        8.986322   -2.000332   -1.828030
    113          1           0       10.724056   -2.322535   -1.964178
    114          1           0        9.807292   -2.426381   -0.367001
    115          1           0       11.144989    0.709916    0.308190
    116          1           0       11.451932   -0.890120    0.903180
    117          1           0       12.842371   -1.603633   -0.857361
    118          1           0       12.936711    0.146947   -1.551387
    119          1           0       13.844996    0.961754    0.494386
    120          1           0       14.045514   -0.633680    1.088219
    121          1           0       15.426184    0.480452   -1.433255
    122          1           0       15.541763   -2.365877   -0.264068
    123          1           0       15.006431   -1.926058   -1.756381
    124          1           0       16.733397   -1.384000   -1.441478
    125          1           0       16.036558    1.444273    0.885920
    126          1           0       16.329377   -0.125337    1.266780
    127          1           0       18.051069   -0.640006   -0.520101
    128          1           0       17.577730    1.193226   -1.071033
    129          1           0       18.392748    2.154198    1.214876
    130          1           0       18.770263    0.497906    1.727327
    131          1           0       20.428939    0.162635   -0.367288
    132          1           0       20.016336    3.303166   -0.610526
    133          1           0       21.239305    2.349742   -1.282270
    134          1           0       19.613882    2.011479   -1.690000
    135          1           0       21.281555    1.144418    2.384529
    136          1           0       22.085812    1.946712    1.145136
    137          1           0       20.717824    2.960669    1.549725
 ---------------------------------------------------------------------

 SCF Done:  E(RCAM-B3LYP) =  -2932.65541474     A.U. after   18 cycles

 Excitation energies and oscillator strengths:

 Excited State   1:      Singlet-A      2.0398 eV  607.82 nm  f=0.2694  <S**2>=0.000
     240 -> 242       -0.12783
     240 -> 243        0.23959
     241 -> 242        0.64378
 This state for optimization and/or second-order correction.
 Total Energy, E(TD-HF/TD-KS) =  -2932.58045328
 Copying the excited state density for this state as the 1-particle RhoCI density.

 The electronic state is 1-A.
 Alpha  occ. eigenvalues --  -46.83208 -19.27737 -19.25620 -19.21204 -19.19794
 Alpha  occ. eigenvalues --  -19.19553 -14.41376 -14.39519 -14.39250 -14.38687
 Alpha  occ. eigenvalues --  -10.38857 -10.38176 -10.34813 -10.34649 -10.31056
 Alpha  occ. eigenvalues --  -10.31052 -10.30424 -10.30084 -10.29069 -10.28837
 Alpha  occ. eigenvalues --  -10.28761 -10.28755 -10.28536 -10.28108 -10.28101
 Alpha  occ. eigenvalues --  -10.27826 -10.27807 -10.27779 -10.27736 -10.27649
 Alpha  occ. eigenvalues --  -10.27336 -10.27201 -10.27163 -10.27158 -10.27028
 Alpha  occ. eigenvalues --  -10.26943 -10.26854 -10.26854 -10.26766 -10.26737
 Alpha  occ. eigenvalues --  -10.26632 -10.26493 -10.26325 -10.26324 -10.26182
 Alpha  occ. eigenvalues --  -10.26139 -10.26097 -10.26071 -10.25957 -10.25917
 Alpha  occ. eigenvalues --  -10.25891 -10.25848 -10.25739 -10.25711 -10.25372
 Alpha  occ. eigenvalues --  -10.25150 -10.24996 -10.24793 -10.24569 -10.24317
 Alpha  occ. eigenvalues --  -10.24248 -10.24092 -10.23755 -10.23720 -10.23428
 Alpha  occ. eigenvalues --   -3.12550  -1.87221  -1.86795  -1.86761  -1.23268
 Alpha  occ. eigenvalues --   -1.18590  -1.11196  -1.10649  -1.09156  -1.05923
 Alpha  occ. eigenvalues --   -1.05389  -1.01612  -1.01250  -0.92162  -0.92058
 Alpha  occ. eigenvalues --   -0.90709  -0.90316  -0.89784  -0.89333  -0.89010
 Alpha  occ. eigenvalues --   -0.88755  -0.88281  -0.87459  -0.86415  -0.86053
 Alpha  occ. eigenvalues --   -0.85456  -0.84447  -0.83660  -0.83494  -0.82980
 Alpha  occ. eigenvalues --   -0.82193  -0.81195  -0.80794  -0.80137  -0.78429
 Alpha  occ. eigenvalues --   -0.78107  -0.77196  -0.76429  -0.76252  -0.75920
 Alpha  occ. eigenvalues --   -0.75793  -0.75123  -0.74638  -0.73780  -0.72299
 Alpha  occ. eigenvalues --   -0.71374  -0.69947  -0.69501  -0.68690  -0.68094
 Alpha  occ. eigenvalues --   -0.66932  -0.66751  -0.65394  -0.65038  -0.64811
 Alpha  occ. eigenvalues --   -0.63849  -0.63456  -0.63226  -0.62914  -0.62549
 Alpha  occ. eigenvalues --   -0.61396  -0.60672  -0.60506  -0.60009  -0.59394
 Alpha  occ. eigenvalues --   -0.59104  -0.58794  -0.58103  -0.57262  -0.57111
 Alpha  occ. eigenvalues --   -0.56363  -0.56147  -0.55660  -0.55158  -0.54910
 Alpha  occ. eigenvalues --   -0.54561  -0.54244  -0.54181  -0.53695  -0.53612
 Alpha  occ. eigenvalues --   -0.53287  -0.52736  -0.52316  -0.52199  -0.51838
 Alpha  occ. eigenvalues --   -0.51696  -0.51404  -0.51050  -0.50841  -0.50665
 Alpha  occ. eigenvalues --   -0.50636  -0.50577  -0.50173  -0.50026  -0.49959
 Alpha  occ. eigenvalues --   -0.49672  -0.49301  -0.48814  -0.48628  -0.48346
 Alpha  occ. eigenvalues --   -0.47941  -0.47740  -0.47568  -0.47514  -0.47412
 Alpha  occ. eigenvalues --   -0.47245  -0.47237  -0.46325  -0.46176  -0.45876
 Alpha  occ. eigenvalues --   -0.45747  -0.45616  -0.45160  -0.44977  -0.44618
 Alpha  occ. eigenvalues --   -0.44486  -0.44379  -0.44312  -0.44086  -0.43940
 Alpha  occ. eigenvalues --   -0.43720  -0.43656  -0.43600  -0.43450  -0.43287
 Alpha  occ. eigenvalues --   -0.42933  -0.42751  -0.42566  -0.42500  -0.42248
 Alpha  occ. eigenvalues --   -0.42162  -0.41925  -0.41778  -0.41491  -0.41377
 Alpha  occ. eigenvalues --   -0.41330  -0.41235  -0.40837  -0.40494  -0.40320
 Alpha  occ. eigenvalues --   -0.40118  -0.40033  -0.39646  -0.39248  -0.39206
 Alpha  occ. eigenvalues --   -0.38933  -0.38792  -0.38227  -0.38205  -0.37858
 Alpha  occ. eigenvalues --   -0.37670  -0.37332  -0.37258  -0.37115  -0.36691
 Alpha  occ. eigenvalues --   -0.36663  -0.36341  -0.35896  -0.35690  -0.35352
 Alpha  occ. eigenvalues --   -0.35326  -0.34870  -0.34683  -0.33700  -0.33432
 Alpha  occ. eigenvalues --   -0.32640  -0.32149  -0.32032  -0.30936  -0.29897
 Alpha  occ. eigenvalues --   -0.29639  -0.29516  -0.28283  -0.27643  -0.22925
 Alpha  occ. eigenvalues --   -0.21163
 Alpha virt. eigenvalues --   -0.06730  -0.02882   0.01621   0.03996   0.05685
 Alpha virt. eigenvalues --    0.06147   0.06176   0.07183   0.07740   0.08472
 Alpha virt. eigenvalues --    0.09349   0.10590   0.11613   0.11736   0.11866

 Mulliken charges:
               1
     1  Mg   0.837054
     2  C    0.079720
     3  C   -0.202951
     4  C   -0.194200
     5  C   -0.171352
     6  N   -0.617236
     7  C    0.314517
     8  C   -0.133343
     9  C   -0.137929
    10  C    0.288764
    11  C   -0.287046
    12  C   -0.155303
    13  C   -0.269765
    14  C    0.577800
    15  O   -0.465645
    16  O   -0.396405
    17  N   -0.754071
    18  C    0.341167
    19  C    0.020685
    20  C    0.037093
    21  C    0.287732
    22  C   -0.400504
    23  C   -0.078615
    24  C   -0.234708
    25  N   -0.695871
    26  C    0.332452
    27  C    0.021777
    28  C   -0.018217
    29  C    0.302358
    30  C   -0.390781
    31  C   -0.198613
    32  C   -0.303078
    33  N   -0.710258
    34  C    0.247307
    35  C   -0.018686
    36  C    0.058425
    37  C    0.244700
    38  C   -0.390485
    39  C    0.365973
    40  O   -0.475826
    41  C   -0.325566
    42  C    0.592230
    43  O   -0.432818
    44  O   -0.457778
    45  C   -0.064322
    46  C    0.000633
    47  C   -0.138093
    48  C    0.112127
    49  C   -0.366775
    50  C   -0.229908
    51  C   -0.167764
    52  C   -0.179702
    53  C   -0.063451
    54  C   -0.272882
    55  C   -0.171156
    56  C   -0.172753
    57  C   -0.176002
    58  C   -0.068831
    59  C   -0.311033
    60  C   -0.146365
    61  C   -0.189476
    62  C   -0.145153
    63  C   -0.043510
    64  C   -0.300819
    65  C   -0.295207
    66  H    0.087077
    67  H    0.090554
    68  H    0.117394
    69  H    0.115579
    70  H    0.104194
    71  H    0.086306
    72  H    0.112543
    73  H    0.120431
    74  H    0.120412
    75  H    0.106919
    76  H    0.103359
    77  H    0.121937
    78  H    0.140578
    79  H    0.109736
    80  H    0.106029
    81  H    0.097821
    82  H    0.103461
    83  H    0.112820
    84  H    0.129037
    85  H    0.112855
    86  H    0.108449
    87  H    0.088677
    88  H    0.116969
    89  H    0.097836
    90  H    0.123580
    91  H    0.093152
    92  H    0.129979
    93  H    0.136091
    94  H    0.126018
    95  H    0.159343
    96  H    0.136843
    97  H    0.087604
    98  H    0.135049
    99  H    0.115996
   100  H    0.129000
   101  H    0.095759
   102  H    0.102575
   103  H    0.123436
   104  H    0.118799
   105  H    0.096794
   106  H    0.097760
   107  H    0.113675
   108  H    0.109479
   109  H    0.085890
   110  H    0.061394
   111  H    0.085519
   112  H    0.054862
   113  H    0.114597
   114  H    0.108889
   115  H    0.080193
   116  H    0.073068
   117  H    0.081830
   118  H    0.098232
   119  H    0.094430
   120  H    0.088655
   121  H    0.073977
   122  H    0.092705
   123  H    0.105280
   124  H    0.102337
   125  H    0.061786
   126  H    0.096421
   127  H    0.078897
   128  H    0.092294
   129  H    0.068124
   130  H    0.074236
   131  H    0.051493
   132  H    0.076901
   133  H    0.106139
   134  H    0.110134
   135  H    0.069094
   136  H    0.119523
   137  H    0.108935
 Sum of Mulliken charges =   0.00000

 Dipole moment (field-independent basis, Debye):
    X=              2.1318    Y=              6.4814    Z=              0.0729  Tot=              6.8234
 Quadrupole moment (field-independent basis, Debye-Ang):
   XX=           -344.6567   YY=           -393.7682   ZZ=           -397.9893
   XY=            -25.8268   XZ=              8.9107   YZ=             -3.3030

 Normal termination of Gaussian 09 at Sat Jun 29 23:24:13 2019.
