 Gaussian 09, Revision D.01,
 Gaussian 09:  ES64L-G09RevD.01 24-Apr-2013

 -------------------------------------
 # td=(NStates=1) CAM-B3LYP/6-31G(d,p)
 -------------------------------------

 --
 TD
 --
 Symbolic Z-matrix:
 Charge =  0 Multiplicity = 1

                         Standard orientation:
 ---------------------------------------------------------------------
 Center     Atomic      Atomic             Coordinates (Angstroms)
 Number     Number       Type             X           Y           Z
 ---------------------------------------------------------------------
      1         12           0       -7.133311    0.601971    0.129161
      2          6           0       -4.946592   -1.933463    0.569184
      3          6           0       -4.841551    2.766022    1.178933
      4          6           0       -9.384711    3.125166   -0.293694
      5          6           0       -9.591875   -1.677283   -0.989134
      6          7           0       -5.099467    0.412523    0.761157
      7          6           0       -4.365551   -0.755513    0.839096
      8          6           0       -2.878564   -0.403706    1.230516
      9          6           0       -2.939139    1.043274    1.646207
     10          6           0       -4.438146    1.521775    1.181558
     11          6           0       -3.003295    1.200511    3.153713
     12          6           0       -1.922416   -0.673264    0.049104
     13          6           0       -0.416989   -0.544683    0.479243
     14          6           0        0.457047   -0.720754   -0.607672
     15          8           0        0.269311   -1.000279   -1.779900
     16          8           0        1.832651   -0.485624   -0.156811
     17          7           0       -7.182175    2.554271    0.333983
     18          6           0       -6.091811    3.300809    0.852292
     19          6           0       -6.374748    4.794711    0.868404
     20          6           0       -7.590163    4.805710    0.307860
     21          6           0       -8.118444    3.543294   -0.019068
     22          6           0       -5.458582    5.850399    1.389875
     23          6           0       -8.414583    6.051112    0.321293
     24          6           0       -8.089263    7.309209    0.142424
     25          7           0       -9.191721    0.733466   -0.529314
     26          6           0       -9.872480    1.810493   -0.518908
     27          6           0      -11.149589    1.538537   -1.118949
     28          6           0      -11.199856    0.237351   -1.331338
     29          6           0       -9.929106   -0.369973   -0.904549
     30          6           0      -12.253351    2.471195   -1.411677
     31          6           0      -12.414632   -0.690722   -1.733092
     32          6           0      -12.261372   -0.879109   -3.198354
     33          7           0       -7.336862   -1.440946   -0.038373
     34          6           0       -8.377278   -2.158334   -0.412894
     35          6           0       -7.946382   -3.497174   -0.504332
     36          6           0       -6.587083   -3.501410   -0.053534
     37          6           0       -6.290542   -2.177932    0.119235
     38          6           0       -8.694890   -4.844683   -0.815179
     39          6           0       -5.439519   -4.364529    0.125976
     40          8           0       -5.278603   -5.577052    0.168795
     41          6           0       -4.244114   -3.301532    0.533048
     42          6           0       -3.530116   -3.633187    1.903379
     43          8           0       -3.708203   -3.048927    2.844078
     44          8           0       -2.653807   -4.675552    1.656166
     45          6           0       -2.090939   -5.205552    2.939725
     46          6           0        2.872139   -0.791844   -1.104645
     47          6           0        4.190421   -0.669659   -0.564221
     48          6           0        5.157615    0.148924   -0.856313
     49          6           0        5.125094    0.995656   -2.201539
     50          6           0        6.452279    0.220588   -0.208230
     51          6           0        7.602507   -0.260128   -0.929459
     52          6           0        8.881346   -0.273930   -0.050913
     53          6           0       10.195511   -0.581732   -0.839540
     54          6           0       10.101015   -2.014556   -1.404469
     55          6           0       11.440357   -0.384842   -0.011373
     56          6           0       12.758069   -0.436268   -0.774861
     57          6           0       13.963592   -0.055209    0.146840
     58          6           0       15.292694   -0.137356   -0.595395
     59          6           0       15.660143   -1.635757   -1.010434
     60          6           0       16.417742    0.429718    0.319424
     61          6           0       17.871665    0.642646   -0.212210
     62          6           0       18.800062    1.249821    0.808677
     63          6           0       20.296004    1.393492    0.247616
     64          6           0       20.301283    2.216191   -1.003632
     65          6           0       21.102352    2.055204    1.344746
     66          1           0       -3.883058    3.663136    1.318138
     67          1           0      -10.134495    3.808192   -0.637279
     68          1           0      -10.326477   -2.419499   -1.325269
     69          1           0       -2.560577   -1.003758    2.095851
     70          1           0       -2.158528    1.523012    1.276908
     71          1           0       -1.991524    1.046814    3.765005
     72          1           0       -3.326723    2.207766    3.352589
     73          1           0       -3.787171    0.630471    3.584839
     74          1           0       -2.042110   -1.673138   -0.476000
     75          1           0       -2.169331    0.131884   -0.720105
     76          1           0       -0.162146    0.427028    0.995387
     77          1           0       -0.265492   -1.355737    1.345021
     78          1           0       -4.927514    6.605810    0.423055
     79          1           0       -6.179288    6.627704    1.803304
     80          1           0       -4.759962    5.540939    2.121716
     81          1           0       -9.368481    5.739550    0.749113
     82          1           0       -8.839590    7.976246    0.287017
     83          1           0       -7.298704    7.834629   -0.107621
     84          1           0      -12.166614    3.279073   -2.188295
     85          1           0      -13.280529    1.918055   -1.538653
     86          1           0      -12.495829    3.130553   -0.709778
     87          1           0      -12.056215   -1.477177   -1.091741
     88          1           0      -13.505094   -0.169703   -1.507620
     89          1           0      -13.009317   -1.642499   -3.523236
     90          1           0      -12.472459    0.093359   -3.905525
     91          1           0      -11.384636   -1.249979   -3.488141
     92          1           0       -9.122720   -5.091742   -1.784742
     93          1           0       -8.081433   -5.710932   -0.480764
     94          1           0       -9.547461   -5.165852   -0.171063
     95          1           0       -3.452547   -3.511992   -0.250914
     96          1           0       -1.391302   -4.441403    3.295983
     97          1           0       -3.040153   -5.443799    3.533320
     98          1           0       -1.598485   -5.979098    2.613255
     99          1           0        2.562191   -1.798096   -1.624131
    100          1           0        2.610520   -0.063380   -1.934652
    101          1           0        4.233989   -1.294882    0.438181
    102          1           0        4.118144    1.218220   -2.661858
    103          1           0        5.524121    2.062089   -2.036242
    104          1           0        5.889384    0.619900   -2.903877
    105          1           0        6.766594    1.174101    0.274356
    106          1           0        6.415406   -0.398158    0.846252
    107          1           0        7.336836   -1.265023   -1.264872
    108          1           0        7.672114    0.237274   -1.907453
    109          1           0        9.028031    0.636094    0.368185
    110          1           0        8.750503   -1.024700    0.665212
    111          1           0       10.281526    0.271034   -1.625835
    112          1           0        9.081015   -2.169513   -1.992838
    113          1           0       11.033304   -2.112671   -1.859135
    114          1           0       10.058954   -2.668317   -0.310799
    115          1           0       11.347142    0.606818    0.627664
    116          1           0       11.372244   -1.206165    0.684646
    117          1           0       13.141396   -1.456102   -1.056543
    118          1           0       12.714374    0.333313   -1.547341
    119          1           0       13.697448    0.989944    0.420500
    120          1           0       13.714563   -0.604022    0.999552
    121          1           0       15.349642    0.623961   -1.511747
    122          1           0       15.769224   -2.143855    0.020676
    123          1           0       14.890990   -2.251025   -1.595999
    124          1           0       16.541320   -1.693905   -1.658854
    125          1           0       15.900963    1.310442    0.556721
    126          1           0       16.374977    0.140359    1.340416
    127          1           0       18.341544   -0.120777   -0.488828
    128          1           0       17.803692    1.391866   -1.034558
    129          1           0       18.675189    2.204734    1.235111
    130          1           0       18.966755    0.649332    1.689880
    131          1           0       20.669087    0.514694    0.096374
    132          1           0       19.885846    3.053581   -0.951010
    133          1           0       21.304635    2.688774   -1.164163
    134          1           0       19.814866    1.591384   -1.834328
    135          1           0       21.281108    1.328963    2.093641
    136          1           0       21.997364    1.969367    1.051404
    137          1           0       20.701893    3.180741    1.689270
 ---------------------------------------------------------------------

 SCF Done:  E(RCAM-B3LYP) =  -2932.57084395     A.U. after   17 cycles

 Excitation energies and oscillator strengths:

 Excited State   1:      Singlet-A      2.2853 eV  542.53 nm  f=0.2826  <S**2>=0.000
     240 -> 242       -0.25305
     240 -> 243        0.19018
     241 -> 242        0.60948
     241 -> 243        0.14658
 This state for optimization and/or second-order correction.
 Total Energy, E(TD-HF/TD-KS) =  -2932.48686068
 Copying the excited state density for this state as the 1-particle RhoCI density.

 The electronic state is 1-A.
 Alpha  occ. eigenvalues --  -46.84888 -19.24498 -19.23487 -19.22120 -19.21644
 Alpha  occ. eigenvalues --  -19.19394 -14.41547 -14.40532 -14.39474 -14.38712
 Alpha  occ. eigenvalues --  -10.39473 -10.37992 -10.34313 -10.32084 -10.31316
 Alpha  occ. eigenvalues --  -10.30716 -10.30436 -10.30356 -10.29919 -10.29597
 Alpha  occ. eigenvalues --  -10.29408 -10.29208 -10.28796 -10.28610 -10.28493
 Alpha  occ. eigenvalues --  -10.27987 -10.27872 -10.27800 -10.27630 -10.27628
 Alpha  occ. eigenvalues --  -10.27582 -10.27559 -10.27475 -10.27422 -10.27324
 Alpha  occ. eigenvalues --  -10.27281 -10.27273 -10.27136 -10.26879 -10.26505
 Alpha  occ. eigenvalues --  -10.26315 -10.26261 -10.25938 -10.25815 -10.25732
 Alpha  occ. eigenvalues --  -10.25724 -10.25568 -10.25546 -10.25546 -10.25418
 Alpha  occ. eigenvalues --  -10.25285 -10.25188 -10.25112 -10.24969 -10.24924
 Alpha  occ. eigenvalues --  -10.24754 -10.24508 -10.23813 -10.23781 -10.23774
 Alpha  occ. eigenvalues --  -10.23639 -10.23633 -10.23405 -10.23400 -10.22741
 Alpha  occ. eigenvalues --   -3.13883  -1.88598  -1.88096  -1.88080  -1.19637
 Alpha  occ. eigenvalues --   -1.15336  -1.10135  -1.09281  -1.07559  -1.06585
 Alpha  occ. eigenvalues --   -1.05653  -1.03620  -1.02580  -0.92022  -0.91895
 Alpha  occ. eigenvalues --   -0.90743  -0.90608  -0.90444  -0.89988  -0.89547
 Alpha  occ. eigenvalues --   -0.88708  -0.88431  -0.88333  -0.87092  -0.86058
 Alpha  occ. eigenvalues --   -0.85418  -0.84826  -0.83861  -0.83749  -0.83380
 Alpha  occ. eigenvalues --   -0.81589  -0.80830  -0.80684  -0.79616  -0.78788
 Alpha  occ. eigenvalues --   -0.77899  -0.77637  -0.77519  -0.75978  -0.75491
 Alpha  occ. eigenvalues --   -0.75321  -0.75206  -0.74202  -0.73406  -0.72904
 Alpha  occ. eigenvalues --   -0.71422  -0.70687  -0.69872  -0.69691  -0.69384
 Alpha  occ. eigenvalues --   -0.67963  -0.67055  -0.66245  -0.65413  -0.65178
 Alpha  occ. eigenvalues --   -0.64934  -0.64178  -0.62859  -0.61987  -0.61669
 Alpha  occ. eigenvalues --   -0.61345  -0.61001  -0.60388  -0.59688  -0.59644
 Alpha  occ. eigenvalues --   -0.59055  -0.58686  -0.58256  -0.56694  -0.56563
 Alpha  occ. eigenvalues --   -0.55993  -0.55781  -0.55410  -0.55153  -0.55028
 Alpha  occ. eigenvalues --   -0.54533  -0.54124  -0.53886  -0.53668  -0.53350
 Alpha  occ. eigenvalues --   -0.52980  -0.52667  -0.52501  -0.52377  -0.52117
 Alpha  occ. eigenvalues --   -0.51546  -0.51381  -0.51282  -0.51064  -0.51015
 Alpha  occ. eigenvalues --   -0.50543  -0.50356  -0.50165  -0.49793  -0.49661
 Alpha  occ. eigenvalues --   -0.49437  -0.49377  -0.48882  -0.48622  -0.48360
 Alpha  occ. eigenvalues --   -0.48122  -0.47956  -0.47705  -0.47563  -0.47432
 Alpha  occ. eigenvalues --   -0.47104  -0.46764  -0.46611  -0.46462  -0.46113
 Alpha  occ. eigenvalues --   -0.45903  -0.45680  -0.45361  -0.45071  -0.44929
 Alpha  occ. eigenvalues --   -0.44881  -0.44783  -0.44748  -0.44621  -0.44299
 Alpha  occ. eigenvalues --   -0.43846  -0.43680  -0.43624  -0.43494  -0.43245
 Alpha  occ. eigenvalues --   -0.43033  -0.42760  -0.42485  -0.42338  -0.42135
 Alpha  occ. eigenvalues --   -0.42001  -0.41858  -0.41603  -0.41548  -0.41241
 Alpha  occ. eigenvalues --   -0.41109  -0.40964  -0.40721  -0.40487  -0.40261
 Alpha  occ. eigenvalues --   -0.40216  -0.39828  -0.39425  -0.39382  -0.39252
 Alpha  occ. eigenvalues --   -0.38970  -0.38549  -0.38446  -0.37957  -0.37770
 Alpha  occ. eigenvalues --   -0.37726  -0.37080  -0.37030  -0.36632  -0.36282
 Alpha  occ. eigenvalues --   -0.35861  -0.35804  -0.35683  -0.35568  -0.35384
 Alpha  occ. eigenvalues --   -0.35041  -0.34960  -0.34290  -0.33662  -0.33452
 Alpha  occ. eigenvalues --   -0.33195  -0.32806  -0.32609  -0.31611  -0.30200
 Alpha  occ. eigenvalues --   -0.29779  -0.29021  -0.28696  -0.28562  -0.23898
 Alpha  occ. eigenvalues --   -0.22263
 Alpha virt. eigenvalues --   -0.06918  -0.02598   0.02279   0.04164   0.04490
 Alpha virt. eigenvalues --    0.05549   0.05759   0.06410   0.07087   0.08238
 Alpha virt. eigenvalues --    0.09146   0.09384   0.10332   0.10986   0.11426

 Mulliken charges:
               1
     1  Mg   0.823597
     2  C    0.066141
     3  C   -0.210929
     4  C   -0.183260
     5  C   -0.144250
     6  N   -0.654437
     7  C    0.291613
     8  C   -0.135576
     9  C   -0.114037
    10  C    0.346582
    11  C   -0.314892
    12  C   -0.181887
    13  C   -0.277795
    14  C    0.639368
    15  O   -0.462564
    16  O   -0.540964
    17  N   -0.719834
    18  C    0.278289
    19  C    0.099365
    20  C   -0.037712
    21  C    0.338664
    22  C   -0.360568
    23  C   -0.092326
    24  C   -0.226025
    25  N   -0.669239
    26  C    0.319780
    27  C    0.021522
    28  C   -0.009177
    29  C    0.289751
    30  C   -0.389519
    31  C   -0.204107
    32  C   -0.292629
    33  N   -0.719710
    34  C    0.250163
    35  C   -0.016022
    36  C    0.007566
    37  C    0.306897
    38  C   -0.406306
    39  C    0.355017
    40  O   -0.466264
    41  C   -0.347953
    42  C    0.614191
    43  O   -0.392563
    44  O   -0.502435
    45  C   -0.078535
    46  C    0.036393
    47  C   -0.117950
    48  C    0.147692
    49  C   -0.376755
    50  C   -0.227870
    51  C   -0.176322
    52  C   -0.160593
    53  C   -0.075737
    54  C   -0.280971
    55  C   -0.172340
    56  C   -0.182302
    57  C   -0.193487
    58  C   -0.058099
    59  C   -0.312610
    60  C   -0.188467
    61  C   -0.155321
    62  C   -0.178009
    63  C   -0.076564
    64  C   -0.292712
    65  C   -0.299816
    66  H    0.076532
    67  H    0.087307
    68  H    0.120442
    69  H    0.123108
    70  H    0.092756
    71  H    0.087451
    72  H    0.107970
    73  H    0.134391
    74  H    0.129834
    75  H    0.110898
    76  H    0.150805
    77  H    0.144175
    78  H    0.090475
    79  H    0.131039
    80  H    0.133852
    81  H    0.106319
    82  H    0.101943
    83  H    0.106245
    84  H    0.110291
    85  H    0.097907
    86  H    0.127410
    87  H    0.113582
    88  H    0.090861
    89  H    0.091671
    90  H    0.092701
    91  H    0.125817
    92  H    0.118575
    93  H    0.145327
    94  H    0.110761
    95  H    0.145818
    96  H    0.124498
    97  H    0.135443
    98  H    0.138360
    99  H    0.106122
   100  H    0.101487
   101  H    0.079910
   102  H    0.116934
   103  H    0.099589
   104  H    0.125058
   105  H    0.101608
   106  H    0.066822
   107  H    0.098136
   108  H    0.092133
   109  H    0.092605
   110  H    0.098029
   111  H    0.063133
   112  H    0.103471
   113  H    0.119343
   114  H    0.060047
   115  H    0.071444
   116  H    0.085836
   117  H    0.100230
   118  H    0.094215
   119  H    0.085582
   120  H    0.105260
   121  H    0.072022
   122  H    0.098447
   123  H    0.091872
   124  H    0.106477
   125  H    0.093871
   126  H    0.086949
   127  H    0.104277
   128  H    0.091873
   129  H    0.088900
   130  H    0.083158
   131  H    0.089903
   132  H    0.112195
   133  H    0.078782
   134  H    0.090880
   135  H    0.093929
   136  H    0.105667
   137  H    0.084091
 Sum of Mulliken charges =   0.00000

 Dipole moment (field-independent basis, Debye):
    X=              0.5777    Y=              6.7192    Z=              1.7210  Tot=              6.9601
 Quadrupole moment (field-independent basis, Debye-Ang):
   XX=           -327.7493   YY=           -386.7587   ZZ=           -398.1172
   XY=            -35.2200   XZ=              8.2076   YZ=             -3.4729

 Normal termination of Gaussian 09 at Sun Jun 30 01:01:45 2019.
