 Gaussian 09, Revision D.01,
 Gaussian 09:  ES64L-G09RevD.01 24-Apr-2013

 -------------------------------------
 # td=(NStates=1) CAM-B3LYP/6-31G(d,p)
 -------------------------------------

 --
 TD
 --
 Symbolic Z-matrix:
 Charge =  0 Multiplicity = 1

                         Standard orientation:
 ---------------------------------------------------------------------
 Center     Atomic      Atomic             Coordinates (Angstroms)
 Number     Number       Type             X           Y           Z
 ---------------------------------------------------------------------
      1         12           0       -7.126241    0.670238    0.100949
      2          6           0       -4.836474   -2.019495    0.560800
      3          6           0       -4.797964    2.769370    1.304515
      4          6           0       -9.372266    3.110706   -0.306566
      5          6           0       -9.530517   -1.653177   -0.909525
      6          7           0       -5.091200    0.425688    0.715608
      7          6           0       -4.319147   -0.683138    0.825454
      8          6           0       -2.860534   -0.401557    1.264330
      9          6           0       -2.984062    1.038524    1.718597
     10          6           0       -4.361295    1.439030    1.189374
     11          6           0       -2.845847    1.156663    3.194424
     12          6           0       -2.010360   -0.624653    0.199605
     13          6           0       -0.482597   -0.417348    0.442373
     14          6           0        0.478754   -0.611181   -0.717074
     15          8           0        0.265071   -1.079319   -1.765029
     16          8           0        1.769906   -0.259404   -0.271570
     17          7           0       -7.108080    2.604934    0.461642
     18          6           0       -6.135160    3.318445    0.869199
     19          6           0       -6.420347    4.754348    0.949909
     20          6           0       -7.634420    4.828418    0.531384
     21          6           0       -8.125725    3.472752    0.168795
     22          6           0       -5.493266    5.820382    1.310068
     23          6           0       -8.599711    5.991207    0.278533
     24          6           0       -8.221510    7.239000    0.115307
     25          7           0       -9.071979    0.633885   -0.515256
     26          6           0       -9.897319    1.840397   -0.654026
     27          6           0      -11.192111    1.511481   -1.057470
     28          6           0      -11.211588    0.115482   -1.262387
     29          6           0       -9.964961   -0.437830   -0.900910
     30          6           0      -12.192005    2.557697   -1.297260
     31          6           0      -12.344724   -0.744084   -1.759589
     32          6           0      -12.245790   -1.021123   -3.306662
     33          7           0       -7.214110   -1.371330   -0.179938
     34          6           0       -8.241654   -2.139902   -0.568639
     35          6           0       -7.895621   -3.562429   -0.508713
     36          6           0       -6.568641   -3.510176   -0.199613
     37          6           0       -6.181932   -2.216701    0.094833
     38          6           0       -8.703571   -4.713431   -0.824273
     39          6           0       -5.403914   -4.296170    0.164460
     40          8           0       -5.236077   -5.540503    0.148096
     41          6           0       -4.180001   -3.369760    0.551747
     42          6           0       -3.541655   -3.876523    1.868456
     43          8           0       -3.689017   -3.247230    2.920919
     44          8           0       -2.775209   -4.877739    1.731289
     45          6           0       -2.116590   -5.343762    2.921128
     46          6           0        2.822593   -0.461571   -1.244600
     47          6           0        4.158325   -0.284635   -0.555589
     48          6           0        5.143492    0.487268   -0.996322
     49          6           0        5.169396    1.299944   -2.213081
     50          6           0        6.375817    0.395375   -0.177918
     51          6           0        7.585851   -0.293558   -1.016616
     52          6           0        8.858928   -0.203497   -0.119889
     53          6           0       10.115133   -0.691525   -0.906925
     54          6           0       10.040239   -2.165118   -1.310622
     55          6           0       11.407963   -0.353480   -0.059653
     56          6           0       12.732909   -0.438597   -0.813135
     57          6           0       13.944696   -0.096526   -0.001876
     58          6           0       15.300130   -0.147960   -0.552470
     59          6           0       15.641882   -1.581001   -0.936602
     60          6           0       16.349458    0.453563    0.422282
     61          6           0       17.809156    0.644051   -0.295640
     62          6           0       18.785516    1.282635    0.846650
     63          6           0       20.180262    1.363976    0.343700
     64          6           0       20.343404    2.149690   -0.988614
     65          6           0       21.157666    1.885916    1.437449
     66          1           0       -4.107902    3.451808    1.805940
     67          1           0      -10.101068    3.855366   -0.425230
     68          1           0      -10.149559   -2.405764   -1.238220
     69          1           0       -2.420125   -1.140041    2.052011
     70          1           0       -2.134384    1.471644    1.240266
     71          1           0       -1.828934    0.885173    3.714786
     72          1           0       -3.141758    2.314470    3.666467
     73          1           0       -3.473808    0.508792    3.868965
     74          1           0       -2.112367   -1.564121   -0.414615
     75          1           0       -2.155062    0.201670   -0.627975
     76          1           0       -0.290197    0.452822    0.969579
     77          1           0       -0.311023   -1.053594    1.142345
     78          1           0       -4.726986    5.891983    0.595076
     79          1           0       -5.970006    6.733512    1.529111
     80          1           0       -5.086919    5.555915    2.316678
     81          1           0       -9.543366    5.589648    0.719680
     82          1           0       -8.951012    7.980087    0.126381
     83          1           0       -7.284139    7.667470   -0.381740
     84          1           0      -12.045519    3.550155   -2.021969
     85          1           0      -13.124351    2.080187   -1.764286
     86          1           0      -12.716511    2.818923   -0.220872
     87          1           0      -12.186031   -1.769786   -1.293286
     88          1           0      -13.408151   -0.389518   -1.562198
     89          1           0      -13.022676   -1.815432   -3.604714
     90          1           0      -12.579751   -0.040229   -4.073865
     91          1           0      -11.174457   -1.187051   -3.516810
     92          1           0       -9.027131   -4.751534   -1.917682
     93          1           0       -7.954689   -5.633525   -0.773179
     94          1           0       -9.659170   -4.795049   -0.060156
     95          1           0       -3.414900   -3.466911   -0.312603
     96          1           0       -1.378371   -4.617160    3.364188
     97          1           0       -2.852424   -5.592064    3.732087
     98          1           0       -1.440239   -6.184465    2.574546
     99          1           0        2.761751   -1.481043   -1.635320
    100          1           0        2.653427    0.211004   -2.017917
    101          1           0        4.532088   -1.165798    0.203893
    102          1           0        4.232548    1.265177   -2.685290
    103          1           0        5.328961    2.360573   -1.931998
    104          1           0        5.793163    0.740711   -2.936950
    105          1           0        6.502111    1.407545   -0.000745
    106          1           0        6.249077   -0.121546    0.969978
    107          1           0        7.342389   -1.374492   -1.329645
    108          1           0        7.783917    0.320186   -1.846516
    109          1           0        9.082397    1.002613    0.139664
    110          1           0        8.964612   -0.894228    0.745246
    111          1           0       10.377605   -0.032195   -1.692750
    112          1           0        9.209388   -2.321107   -2.017889
    113          1           0       10.814236   -2.643894   -1.822844
    114          1           0        9.792160   -2.882860   -0.579712
    115          1           0       11.260804    0.601473    0.386282
    116          1           0       11.350153   -0.986694    0.781454
    117          1           0       12.634548   -1.393722   -1.344186
    118          1           0       12.823701    0.217439   -1.699442
    119          1           0       13.768035    1.007025    0.410825
    120          1           0       13.907421   -0.751591    0.822672
    121          1           0       15.195493    0.490512   -1.459705
    122          1           0       15.981193   -2.177279    0.045473
    123          1           0       14.811548   -2.127984   -1.336736
    124          1           0       16.572331   -1.475427   -1.543964
    125          1           0       16.035050    1.401892    0.903491
    126          1           0       16.640441   -0.300668    1.264780
    127          1           0       18.476580   -0.397407   -0.461503
    128          1           0       17.701838    1.331640   -1.229250
    129          1           0       18.241221    2.143019    1.171068
    130          1           0       18.850815    0.636717    1.734442
    131          1           0       20.458651    0.321199   -0.035495
    132          1           0       19.941177    3.319642   -0.927155
    133          1           0       21.315757    1.997164   -1.288137
    134          1           0       19.708189    1.654584   -1.727496
    135          1           0       20.910811    1.271611    2.419700
    136          1           0       22.214008    1.844851    1.080152
    137          1           0       20.858737    2.917963    1.900735
 ---------------------------------------------------------------------

 SCF Done:  E(RCAM-B3LYP) =  -2932.69394510     A.U. after   18 cycles

 Excitation energies and oscillator strengths:

 Excited State   1:      Singlet-A      2.0692 eV  599.18 nm  f=0.2662  <S**2>=0.000
     240 -> 242       -0.11492
     240 -> 243       -0.23358
     241 -> 242        0.64976
 This state for optimization and/or second-order correction.
 Total Energy, E(TD-HF/TD-KS) =  -2932.61790270
 Copying the excited state density for this state as the 1-particle RhoCI density.

 The electronic state is 1-A.
 Alpha  occ. eigenvalues --  -46.84019 -19.27604 -19.24352 -19.21897 -19.19161
 Alpha  occ. eigenvalues --  -19.19050 -14.42033 -14.40252 -14.38500 -14.38496
 Alpha  occ. eigenvalues --  -10.39160 -10.38667 -10.34341 -10.32638 -10.31224
 Alpha  occ. eigenvalues --  -10.31031 -10.30896 -10.30292 -10.29599 -10.28772
 Alpha  occ. eigenvalues --  -10.28751 -10.28651 -10.28173 -10.28065 -10.27972
 Alpha  occ. eigenvalues --  -10.27951 -10.27933 -10.27628 -10.27597 -10.27554
 Alpha  occ. eigenvalues --  -10.27446 -10.27376 -10.27209 -10.27199 -10.27048
 Alpha  occ. eigenvalues --  -10.26928 -10.26895 -10.26785 -10.26773 -10.26686
 Alpha  occ. eigenvalues --  -10.26636 -10.26584 -10.26566 -10.26533 -10.26454
 Alpha  occ. eigenvalues --  -10.26302 -10.26248 -10.26169 -10.26069 -10.26062
 Alpha  occ. eigenvalues --  -10.25981 -10.25793 -10.25696 -10.25572 -10.25499
 Alpha  occ. eigenvalues --  -10.25464 -10.25361 -10.24871 -10.24690 -10.24673
 Alpha  occ. eigenvalues --  -10.24666 -10.24239 -10.24046 -10.23868 -10.23769
 Alpha  occ. eigenvalues --   -3.13150  -1.87846  -1.87389  -1.87340  -1.20845
 Alpha  occ. eigenvalues --   -1.17850  -1.09512  -1.07996  -1.07562  -1.07002
 Alpha  occ. eigenvalues --   -1.05193  -1.03890  -0.99816  -0.92693  -0.91829
 Alpha  occ. eigenvalues --   -0.91604  -0.90781  -0.90624  -0.89184  -0.89121
 Alpha  occ. eigenvalues --   -0.88411  -0.87727  -0.87257  -0.86929  -0.86301
 Alpha  occ. eigenvalues --   -0.84873  -0.84159  -0.83761  -0.83120  -0.82082
 Alpha  occ. eigenvalues --   -0.81849  -0.80884  -0.80074  -0.79679  -0.78727
 Alpha  occ. eigenvalues --   -0.78428  -0.76929  -0.76632  -0.75951  -0.75630
 Alpha  occ. eigenvalues --   -0.75225  -0.74456  -0.73975  -0.72516  -0.71983
 Alpha  occ. eigenvalues --   -0.71091  -0.70264  -0.69156  -0.68518  -0.68075
 Alpha  occ. eigenvalues --   -0.67621  -0.66465  -0.65225  -0.64706  -0.64495
 Alpha  occ. eigenvalues --   -0.64225  -0.63685  -0.62929  -0.62533  -0.62247
 Alpha  occ. eigenvalues --   -0.61446  -0.61072  -0.60903  -0.59686  -0.58856
 Alpha  occ. eigenvalues --   -0.58279  -0.58032  -0.57253  -0.57007  -0.56628
 Alpha  occ. eigenvalues --   -0.56241  -0.55966  -0.55039  -0.54835  -0.54690
 Alpha  occ. eigenvalues --   -0.54523  -0.53957  -0.53856  -0.53322  -0.53186
 Alpha  occ. eigenvalues --   -0.52943  -0.52632  -0.52410  -0.52295  -0.52204
 Alpha  occ. eigenvalues --   -0.52008  -0.51671  -0.50965  -0.50713  -0.50635
 Alpha  occ. eigenvalues --   -0.50516  -0.50065  -0.49855  -0.49539  -0.49460
 Alpha  occ. eigenvalues --   -0.49161  -0.49026  -0.48530  -0.48374  -0.48135
 Alpha  occ. eigenvalues --   -0.48009  -0.47891  -0.47497  -0.47194  -0.47046
 Alpha  occ. eigenvalues --   -0.46968  -0.46716  -0.46502  -0.46238  -0.45716
 Alpha  occ. eigenvalues --   -0.45607  -0.45411  -0.45341  -0.45025  -0.44893
 Alpha  occ. eigenvalues --   -0.44587  -0.44467  -0.44405  -0.44309  -0.43738
 Alpha  occ. eigenvalues --   -0.43485  -0.43461  -0.43274  -0.43248  -0.43010
 Alpha  occ. eigenvalues --   -0.42942  -0.42568  -0.42352  -0.42242  -0.42100
 Alpha  occ. eigenvalues --   -0.41839  -0.41805  -0.41384  -0.41323  -0.41248
 Alpha  occ. eigenvalues --   -0.40800  -0.40666  -0.40525  -0.40166  -0.40075
 Alpha  occ. eigenvalues --   -0.39921  -0.39873  -0.39761  -0.39077  -0.38914
 Alpha  occ. eigenvalues --   -0.38751  -0.38448  -0.37978  -0.37923  -0.37621
 Alpha  occ. eigenvalues --   -0.37436  -0.37280  -0.37129  -0.36923  -0.36470
 Alpha  occ. eigenvalues --   -0.35923  -0.35788  -0.35752  -0.35730  -0.35635
 Alpha  occ. eigenvalues --   -0.35550  -0.35152  -0.34650  -0.34123  -0.33345
 Alpha  occ. eigenvalues --   -0.33222  -0.32415  -0.31626  -0.30980  -0.29993
 Alpha  occ. eigenvalues --   -0.29143  -0.29096  -0.28920  -0.27083  -0.23255
 Alpha  occ. eigenvalues --   -0.20744
 Alpha virt. eigenvalues --   -0.06148  -0.02912   0.02125   0.04038   0.05875
 Alpha virt. eigenvalues --    0.06240   0.06811   0.06960   0.07302   0.07376
 Alpha virt. eigenvalues --    0.08416   0.10728   0.11271   0.11473   0.11566

 Mulliken charges:
               1
     1  Mg   0.819733
     2  C    0.086083
     3  C   -0.222788
     4  C   -0.189400
     5  C   -0.184262
     6  N   -0.622729
     7  C    0.284757
     8  C   -0.129511
     9  C   -0.122350
    10  C    0.353830
    11  C   -0.303794
    12  C   -0.190550
    13  C   -0.265639
    14  C    0.601040
    15  O   -0.431011
    16  O   -0.513967
    17  N   -0.696250
    18  C    0.308524
    19  C    0.012537
    20  C    0.007550
    21  C    0.294184
    22  C   -0.369321
    23  C   -0.049675
    24  C   -0.255035
    25  N   -0.711439
    26  C    0.275641
    27  C    0.065896
    28  C    0.035673
    29  C    0.352752
    30  C   -0.395170
    31  C   -0.248917
    32  C   -0.287226
    33  N   -0.721758
    34  C    0.265721
    35  C    0.057752
    36  C    0.036132
    37  C    0.265662
    38  C   -0.401220
    39  C    0.343256
    40  O   -0.498239
    41  C   -0.333046
    42  C    0.618595
    43  O   -0.504798
    44  O   -0.391141
    45  C   -0.095293
    46  C    0.021558
    47  C   -0.130277
    48  C    0.106341
    49  C   -0.358935
    50  C   -0.208265
    51  C   -0.179513
    52  C   -0.161392
    53  C   -0.075937
    54  C   -0.333555
    55  C   -0.180034
    56  C   -0.186721
    57  C   -0.157599
    58  C   -0.047509
    59  C   -0.305196
    60  C   -0.173475
    61  C   -0.191635
    62  C   -0.166010
    63  C   -0.051846
    64  C   -0.292387
    65  C   -0.301050
    66  H    0.080217
    67  H    0.084807
    68  H    0.078899
    69  H    0.121819
    70  H    0.118010
    71  H    0.099742
    72  H    0.066587
    73  H    0.134213
    74  H    0.122656
    75  H    0.084218
    76  H    0.132234
    77  H    0.142104
    78  H    0.136220
    79  H    0.126791
    80  H    0.113685
    81  H    0.111805
    82  H    0.105080
    83  H    0.113892
    84  H    0.116742
    85  H    0.109802
    86  H    0.104348
    87  H    0.106522
    88  H    0.105273
    89  H    0.103463
    90  H    0.065037
    91  H    0.119598
    92  H    0.125434
    93  H    0.143376
    94  H    0.110224
    95  H    0.155585
    96  H    0.125129
    97  H    0.146495
    98  H    0.126011
    99  H    0.120307
   100  H    0.112014
   101  H    0.074930
   102  H    0.117569
   103  H    0.120130
   104  H    0.133091
   105  H    0.104264
   106  H    0.077079
   107  H    0.100904
   108  H    0.112758
   109  H    0.068703
   110  H    0.097520
   111  H    0.091342
   112  H    0.095264
   113  H    0.112316
   114  H    0.106912
   115  H    0.085400
   116  H    0.088826
   117  H    0.091634
   118  H    0.079526
   119  H    0.061284
   120  H    0.089837
   121  H    0.075018
   122  H    0.076945
   123  H    0.111095
   124  H    0.107621
   125  H    0.093984
   126  H    0.087015
   127  H    0.073116
   128  H    0.097872
   129  H    0.095753
   130  H    0.090122
   131  H    0.078487
   132  H    0.071662
   133  H    0.106310
   134  H    0.101400
   135  H    0.080246
   136  H    0.102919
   137  H    0.095451
 Sum of Mulliken charges =   0.00000

 Dipole moment (field-independent basis, Debye):
    X=              1.5936    Y=              5.1786    Z=             -0.0945  Tot=              5.4191
 Quadrupole moment (field-independent basis, Debye-Ang):
   XX=           -353.6111   YY=           -387.3663   ZZ=           -397.6287
   XY=            -34.7697   XZ=              6.0817   YZ=             -3.3812

 Normal termination of Gaussian 09 at Sat Jun 29 12:02:13 2019.
