 Gaussian 09, Revision D.01,
 Gaussian 09:  ES64L-G09RevD.01 24-Apr-2013

 -------------------------------------
 # td=(NStates=1) CAM-B3LYP/6-31G(d,p)
 -------------------------------------

 --
 TD
 --
 Symbolic Z-matrix:
 Charge =  0 Multiplicity = 1

                         Standard orientation:
 ---------------------------------------------------------------------
 Center     Atomic      Atomic             Coordinates (Angstroms)
 Number     Number       Type             X           Y           Z
 ---------------------------------------------------------------------
      1         12           0       -7.238450    0.557439    0.126659
      2          6           0       -5.077387   -1.968316    0.579272
      3          6           0       -4.897584    2.811225    1.272296
      4          6           0       -9.417820    3.067788   -0.376333
      5          6           0       -9.593462   -1.709459   -0.961367
      6          7           0       -5.133433    0.394675    0.803803
      7          6           0       -4.422263   -0.743772    0.752546
      8          6           0       -2.942007   -0.354262    1.161247
      9          6           0       -2.954115    1.119410    1.635893
     10          6           0       -4.397218    1.526327    1.149760
     11          6           0       -2.771122    1.294414    3.082997
     12          6           0       -1.933258   -0.774523    0.124710
     13          6           0       -0.454347   -0.518712    0.529621
     14          6           0        0.546154   -0.705201   -0.632630
     15          8           0        0.135875   -0.859858   -1.761986
     16          8           0        1.769944   -0.545600   -0.147575
     17          7           0       -7.131915    2.607363    0.384672
     18          6           0       -6.094177    3.396094    0.876991
     19          6           0       -6.442615    4.723181    0.940033
     20          6           0       -7.830303    4.813035    0.509156
     21          6           0       -8.146674    3.443317    0.149990
     22          6           0       -5.638650    5.941865    1.329164
     23          6           0       -8.640593    6.040974    0.303189
     24          6           0       -8.090150    7.258768    0.044488
     25          7           0       -9.168326    0.712524   -0.469591
     26          6           0       -9.949830    1.785734   -0.638910
     27          6           0      -11.328909    1.507638   -1.065536
     28          6           0      -11.256939    0.147931   -1.291479
     29          6           0       -9.900430   -0.344413   -0.860492
     30          6           0      -12.319170    2.609170   -1.285324
     31          6           0      -12.396347   -0.816193   -1.782387
     32          6           0      -12.318145   -1.170111   -3.339561
     33          7           0       -7.287124   -1.372147   -0.257035
     34          6           0       -8.291319   -2.223907   -0.526213
     35          6           0       -7.914263   -3.631148   -0.473323
     36          6           0       -6.536538   -3.530892   -0.083404
     37          6           0       -6.291707   -2.189111    0.075325
     38          6           0       -8.532130   -4.823375   -0.721949
     39          6           0       -5.411763   -4.317682    0.293575
     40          8           0       -5.297564   -5.518189    0.272208
     41          6           0       -4.214794   -3.288785    0.575440
     42          6           0       -3.507883   -3.589538    1.842524
     43          8           0       -3.788873   -3.269947    2.953110
     44          8           0       -2.500011   -4.583657    1.654833
     45          6           0       -2.137341   -5.395802    2.884733
     46          6           0        2.818819   -0.719071   -1.130565
     47          6           0        4.204593   -0.549439   -0.522094
     48          6           0        5.045247    0.310473   -0.885808
     49          6           0        5.024452    1.233384   -2.036545
     50          6           0        6.488983    0.327934   -0.229714
     51          6           0        7.666259   -0.261018   -1.111877
     52          6           0        8.986905    0.037799   -0.347913
     53          6           0       10.267994   -0.429068   -1.047797
     54          6           0       10.183342   -1.997433   -1.453819
     55          6           0       11.401043   -0.190637   -0.016076
     56          6           0       12.839600   -0.434294   -0.738491
     57          6           0       14.029267    0.056021    0.117537
     58          6           0       15.404783   -0.002033   -0.518509
     59          6           0       15.609075   -1.399486   -1.173276
     60          6           0       16.445979    0.411189    0.523911
     61          6           0       17.905602    0.433918   -0.151449
     62          6           0       18.844921    1.163381    0.757291
     63          6           0       20.347882    1.229930    0.409250
     64          6           0       20.606094    1.882144   -0.942502
     65          6           0       21.169453    1.833690    1.520456
     66          1           0       -4.236485    3.629904    1.471305
     67          1           0      -10.051745    3.802982   -0.463636
     68          1           0      -10.176966   -2.561769   -1.259061
     69          1           0       -2.718301   -1.037695    2.148834
     70          1           0       -2.229363    1.539552    1.106025
     71          1           0       -1.886479    0.703412    3.490408
     72          1           0       -2.828648    2.350457    3.307300
     73          1           0       -3.596854    0.941152    3.733017
     74          1           0       -2.046367   -1.893826   -0.085676
     75          1           0       -2.114021   -0.327377   -0.714149
     76          1           0       -0.192073    0.550457    0.721792
     77          1           0       -0.317833   -1.183731    1.333740
     78          1           0       -4.882508    6.025748    0.383665
     79          1           0       -6.230351    6.901759    1.794221
     80          1           0       -4.903794    5.652906    2.007283
     81          1           0       -9.755517    6.019650    0.393396
     82          1           0       -8.756289    8.033675   -0.288134
     83          1           0       -6.999275    7.352011   -0.105716
     84          1           0      -12.060732    3.619021   -1.793302
     85          1           0      -13.222472    2.274269   -1.878942
     86          1           0      -12.641323    2.731593   -0.022530
     87          1           0      -12.546411   -1.666899   -0.916984
     88          1           0      -13.413190   -0.288862   -1.623079
     89          1           0      -13.043302   -1.900058   -3.757385
     90          1           0      -12.325421   -0.360093   -4.078179
     91          1           0      -11.459041   -1.640210   -3.462562
     92          1           0       -8.475991   -5.011202   -2.015461
     93          1           0       -7.886092   -5.661527   -0.386336
     94          1           0       -9.569961   -5.111998   -0.142021
     95          1           0       -3.711971   -3.505251   -0.353193
     96          1           0       -1.845595   -4.578374    3.710667
     97          1           0       -3.090700   -5.963321    3.277332
     98          1           0       -1.438345   -6.154854    2.653479
     99          1           0        2.945723   -1.747226   -1.496256
    100          1           0        2.693712    0.015834   -1.811360
    101          1           0        4.255108   -1.092858    0.553882
    102          1           0        3.956001    1.270225   -2.400020
    103          1           0        5.224067    2.188758   -1.844427
    104          1           0        5.542279    0.863239   -2.803183
    105          1           0        6.734635    1.436382   -0.198371
    106          1           0        6.398099   -0.100624    0.565481
    107          1           0        7.483122   -1.320920   -1.233974
    108          1           0        7.593312    0.255771   -2.110041
    109          1           0        9.151576    1.083712   -0.117670
    110          1           0        8.946048   -0.449417    0.655128
    111          1           0       10.423121    0.189501   -1.893519
    112          1           0        9.303704   -2.020799   -2.223613
    113          1           0       11.306448   -2.465110   -1.577878
    114          1           0        9.885770   -2.554337   -0.501292
    115          1           0       11.280245    0.904749    0.230729
    116          1           0       11.500511   -0.776654    0.684982
    117          1           0       13.170589   -1.500334   -0.923634
    118          1           0       13.072600    0.113073   -1.684025
    119          1           0       13.688665    1.157654    0.385744
    120          1           0       14.084551   -0.440479    1.268416
    121          1           0       15.448330    0.696012   -1.404963
    122          1           0       15.409471   -2.212546   -0.438118
    123          1           0       14.736980   -1.230471   -2.019226
    124          1           0       16.591335   -1.500871   -1.690546
    125          1           0       16.174687    1.414313    0.994199
    126          1           0       16.479062   -0.254326    1.421963
    127          1           0       18.182147   -0.629185   -0.659994
    128          1           0       17.786494    0.919352   -1.156866
    129          1           0       18.620954    2.274246    0.985284
    130          1           0       18.634897    0.531617    1.563792
    131          1           0       20.617142    0.224475    0.262631
    132          1           0       20.380600    2.961233   -0.787414
    133          1           0       21.790794    2.003699   -1.490189
    134          1           0       19.937065    1.478992   -1.743802
    135          1           0       20.785971    1.467769    2.572826
    136          1           0       22.198741    1.729076    1.438421
    137          1           0       20.879742    2.992482    1.346893
 ---------------------------------------------------------------------

 SCF Done:  E(RCAM-B3LYP) =  -2932.56951032     A.U. after   16 cycles

 Excitation energies and oscillator strengths:

 Excited State   1:      Singlet-A      1.9329 eV  641.45 nm  f=0.3190  <S**2>=0.000
     240 -> 243        0.24169
     241 -> 242        0.65822
 This state for optimization and/or second-order correction.
 Total Energy, E(TD-HF/TD-KS) =  -2932.49847799
 Copying the excited state density for this state as the 1-particle RhoCI density.

 The electronic state is 1-A.
 Alpha  occ. eigenvalues --  -46.84632 -19.27399 -19.23837 -19.21011 -19.20741
 Alpha  occ. eigenvalues --  -19.20474 -14.41727 -14.39762 -14.39442 -14.38504
 Alpha  occ. eigenvalues --  -10.39054 -10.38946 -10.35008 -10.31910 -10.31308
 Alpha  occ. eigenvalues --  -10.30772 -10.30643 -10.29780 -10.29709 -10.29614
 Alpha  occ. eigenvalues --  -10.29100 -10.28999 -10.28830 -10.28551 -10.28428
 Alpha  occ. eigenvalues --  -10.28273 -10.28200 -10.27903 -10.27875 -10.27823
 Alpha  occ. eigenvalues --  -10.27728 -10.27497 -10.27347 -10.27334 -10.27150
 Alpha  occ. eigenvalues --  -10.26886 -10.26742 -10.26686 -10.26645 -10.26499
 Alpha  occ. eigenvalues --  -10.26484 -10.26447 -10.26394 -10.26378 -10.26378
 Alpha  occ. eigenvalues --  -10.26351 -10.26344 -10.26094 -10.25956 -10.25953
 Alpha  occ. eigenvalues --  -10.25849 -10.25753 -10.25637 -10.25509 -10.25497
 Alpha  occ. eigenvalues --  -10.25463 -10.25307 -10.25131 -10.25053 -10.24884
 Alpha  occ. eigenvalues --  -10.24832 -10.24823 -10.24793 -10.24609 -10.24299
 Alpha  occ. eigenvalues --   -3.13692  -1.88392  -1.87929  -1.87881  -1.18985
 Alpha  occ. eigenvalues --   -1.15907  -1.11794  -1.09961  -1.06450  -1.06126
 Alpha  occ. eigenvalues --   -1.04488  -1.03273  -1.02366  -0.93413  -0.92216
 Alpha  occ. eigenvalues --   -0.90524  -0.89920  -0.89649  -0.89247  -0.88540
 Alpha  occ. eigenvalues --   -0.88460  -0.87967  -0.87695  -0.87170  -0.86015
 Alpha  occ. eigenvalues --   -0.85008  -0.83778  -0.83219  -0.82912  -0.82134
 Alpha  occ. eigenvalues --   -0.81992  -0.80821  -0.80020  -0.79761  -0.78707
 Alpha  occ. eigenvalues --   -0.77501  -0.76531  -0.76452  -0.75514  -0.75205
 Alpha  occ. eigenvalues --   -0.74798  -0.74419  -0.74217  -0.73627  -0.72279
 Alpha  occ. eigenvalues --   -0.71867  -0.70759  -0.69992  -0.69184  -0.68524
 Alpha  occ. eigenvalues --   -0.67561  -0.66346  -0.65263  -0.64565  -0.64444
 Alpha  occ. eigenvalues --   -0.64126  -0.63798  -0.63601  -0.62618  -0.61555
 Alpha  occ. eigenvalues --   -0.60971  -0.60608  -0.60372  -0.59807  -0.59014
 Alpha  occ. eigenvalues --   -0.58786  -0.58244  -0.58006  -0.57340  -0.57153
 Alpha  occ. eigenvalues --   -0.56536  -0.55542  -0.54982  -0.54845  -0.54541
 Alpha  occ. eigenvalues --   -0.54193  -0.54018  -0.53718  -0.53453  -0.52714
 Alpha  occ. eigenvalues --   -0.52554  -0.52231  -0.51833  -0.51465  -0.51424
 Alpha  occ. eigenvalues --   -0.51251  -0.51108  -0.51033  -0.50761  -0.50478
 Alpha  occ. eigenvalues --   -0.50268  -0.50033  -0.49999  -0.49854  -0.49563
 Alpha  occ. eigenvalues --   -0.49370  -0.49145  -0.48787  -0.48324  -0.48291
 Alpha  occ. eigenvalues --   -0.47671  -0.47632  -0.47541  -0.47274  -0.46967
 Alpha  occ. eigenvalues --   -0.46654  -0.46536  -0.46420  -0.46299  -0.46140
 Alpha  occ. eigenvalues --   -0.45907  -0.45830  -0.45609  -0.45428  -0.45200
 Alpha  occ. eigenvalues --   -0.44970  -0.44628  -0.44508  -0.44229  -0.44055
 Alpha  occ. eigenvalues --   -0.43958  -0.43831  -0.43517  -0.43485  -0.43270
 Alpha  occ. eigenvalues --   -0.42997  -0.42800  -0.42585  -0.42276  -0.42233
 Alpha  occ. eigenvalues --   -0.42111  -0.41991  -0.41911  -0.41383  -0.41365
 Alpha  occ. eigenvalues --   -0.40954  -0.40612  -0.40530  -0.40220  -0.40216
 Alpha  occ. eigenvalues --   -0.40141  -0.39803  -0.39616  -0.39318  -0.38863
 Alpha  occ. eigenvalues --   -0.38696  -0.38548  -0.38305  -0.38278  -0.37805
 Alpha  occ. eigenvalues --   -0.37587  -0.37137  -0.36902  -0.36833  -0.36727
 Alpha  occ. eigenvalues --   -0.36367  -0.36030  -0.35658  -0.35350  -0.35119
 Alpha  occ. eigenvalues --   -0.34860  -0.34172  -0.34083  -0.33626  -0.33380
 Alpha  occ. eigenvalues --   -0.33130  -0.32816  -0.32375  -0.31356  -0.31173
 Alpha  occ. eigenvalues --   -0.29945  -0.29390  -0.28959  -0.26404  -0.22573
 Alpha  occ. eigenvalues --   -0.20967
 Alpha virt. eigenvalues --   -0.07082  -0.02600   0.01405   0.04369   0.05343
 Alpha virt. eigenvalues --    0.05966   0.06713   0.07237   0.07678   0.07864
 Alpha virt. eigenvalues --    0.08616   0.10275   0.10740   0.11389   0.11429

 Mulliken charges:
               1
     1  Mg   0.834920
     2  C    0.008244
     3  C   -0.176330
     4  C   -0.156932
     5  C   -0.163241
     6  N   -0.606080
     7  C    0.316002
     8  C   -0.193793
     9  C   -0.078609
    10  C    0.273098
    11  C   -0.311673
    12  C   -0.164227
    13  C   -0.268122
    14  C    0.605519
    15  O   -0.473782
    16  O   -0.464185
    17  N   -0.714179
    18  C    0.298781
    19  C    0.018126
    20  C   -0.001009
    21  C    0.323524
    22  C   -0.383187
    23  C   -0.089771
    24  C   -0.250949
    25  N   -0.691019
    26  C    0.286418
    27  C    0.082300
    28  C   -0.032891
    29  C    0.326891
    30  C   -0.356294
    31  C   -0.242200
    32  C   -0.320222
    33  N   -0.732874
    34  C    0.232207
    35  C    0.111534
    36  C    0.026119
    37  C    0.335998
    38  C   -0.445604
    39  C    0.330968
    40  O   -0.456065
    41  C   -0.300135
    42  C    0.645163
    43  O   -0.449860
    44  O   -0.523431
    45  C   -0.074578
    46  C    0.025724
    47  C   -0.169524
    48  C    0.108385
    49  C   -0.358207
    50  C   -0.175670
    51  C   -0.195386
    52  C   -0.168884
    53  C   -0.059121
    54  C   -0.314314
    55  C   -0.144724
    56  C   -0.221242
    57  C   -0.158942
    58  C   -0.059918
    59  C   -0.299789
    60  C   -0.172762
    61  C   -0.198613
    62  C   -0.150207
    63  C   -0.068870
    64  C   -0.289627
    65  C   -0.284769
    66  H    0.067157
    67  H    0.047888
    68  H    0.105553
    69  H    0.098122
    70  H    0.105968
    71  H    0.106202
    72  H    0.108521
    73  H    0.123008
    74  H    0.110013
    75  H    0.122593
    76  H    0.125593
    77  H    0.134724
    78  H    0.107528
    79  H    0.132401
    80  H    0.119831
    81  H    0.098710
    82  H    0.101114
    83  H    0.117513
    84  H    0.130836
    85  H    0.120696
    86  H    0.096447
    87  H    0.097768
    88  H    0.094418
    89  H    0.101281
    90  H    0.114251
    91  H    0.128953
    92  H    0.099144
    93  H    0.164329
    94  H    0.111547
    95  H    0.177079
    96  H    0.123499
    97  H    0.120733
    98  H    0.135213
    99  H    0.132630
   100  H    0.120649
   101  H    0.085173
   102  H    0.089195
   103  H    0.130044
   104  H    0.139349
   105  H    0.082038
   106  H    0.086522
   107  H    0.108453
   108  H    0.087581
   109  H    0.092217
   110  H    0.089647
   111  H    0.092977
   112  H    0.104210
   113  H    0.096470
   114  H    0.093314
   115  H    0.086106
   116  H    0.104355
   117  H    0.101726
   118  H    0.090689
   119  H    0.069957
   120  H    0.047188
   121  H    0.087843
   122  H    0.107278
   123  H    0.085968
   124  H    0.101028
   125  H    0.093648
   126  H    0.090334
   127  H    0.079380
   128  H    0.084039
   129  H    0.082160
   130  H    0.105412
   131  H    0.091778
   132  H    0.092529
   133  H    0.060239
   134  H    0.104810
   135  H    0.089643
   136  H    0.116233
   137  H    0.070449
 Sum of Mulliken charges =   0.00000

 Dipole moment (field-independent basis, Debye):
    X=              0.9970    Y=              3.6928    Z=             -0.4314  Tot=              3.8493
 Quadrupole moment (field-independent basis, Debye-Ang):
   XX=           -350.0880   YY=           -394.3064   ZZ=           -399.3440
   XY=            -20.5395   XZ=             13.7206   YZ=             -4.3073

 Normal termination of Gaussian 09 at Sun Jun 30 04:11:38 2019.
