 Gaussian 09, Revision D.01,
 Gaussian 09:  ES64L-G09RevD.01 24-Apr-2013

 -------------------------------------
 # td=(NStates=1) CAM-B3LYP/6-31G(d,p)
 -------------------------------------

 --
 TD
 --
 Symbolic Z-matrix:
 Charge =  0 Multiplicity = 1

                         Standard orientation:
 ---------------------------------------------------------------------
 Center     Atomic      Atomic             Coordinates (Angstroms)
 Number     Number       Type             X           Y           Z
 ---------------------------------------------------------------------
      1         12           0       -7.104108    0.660037    0.026928
      2          6           0       -4.863865   -1.901783    0.492539
      3          6           0       -4.802699    2.865261    1.190853
      4          6           0       -9.405217    3.203020   -0.466149
      5          6           0       -9.534923   -1.789896   -0.837814
      6          7           0       -5.168845    0.515991    0.765284
      7          6           0       -4.413498   -0.691262    0.906389
      8          6           0       -2.979963   -0.392000    1.312775
      9          6           0       -3.092532    1.140568    1.771189
     10          6           0       -4.415710    1.544071    1.221888
     11          6           0       -2.948423    1.308006    3.220264
     12          6           0       -1.914107   -0.644747    0.214002
     13          6           0       -0.459656   -0.378116    0.707396
     14          6           0        0.483090   -0.613672   -0.470878
     15          8           0        0.284785   -1.034366   -1.571980
     16          8           0        1.803376   -0.386769   -0.097717
     17          7           0       -7.066262    2.597859    0.244021
     18          6           0       -6.051512    3.439025    0.828272
     19          6           0       -6.463739    4.756677    0.932849
     20          6           0       -7.700503    4.872602    0.386532
     21          6           0       -8.158020    3.547169   -0.017600
     22          6           0       -5.644317    5.898375    1.448254
     23          6           0       -8.627547    6.047188    0.163879
     24          6           0       -8.073689    7.324710   -0.030815
     25          7           0       -9.029791    0.633758   -0.646390
     26          6           0       -9.847310    1.812751   -0.796937
     27          6           0      -11.207318    1.466424   -1.233254
     28          6           0      -11.205173    0.012095   -1.229195
     29          6           0       -9.895945   -0.459067   -0.872655
     30          6           0      -12.419145    2.355244   -1.369545
     31          6           0      -12.445384   -0.755304   -1.629819
     32          6           0      -12.412088   -1.150116   -3.177157
     33          7           0       -7.244463   -1.384070   -0.281017
     34          6           0       -8.209455   -2.232166   -0.622624
     35          6           0       -7.803156   -3.546536   -0.595084
     36          6           0       -6.416115   -3.467472   -0.219529
     37          6           0       -6.213675   -2.167780    0.084389
     38          6           0       -8.675989   -4.859254   -0.710395
     39          6           0       -5.305100   -4.313105    0.128261
     40          8           0       -5.082609   -5.484167   -0.006900
     41          6           0       -4.190715   -3.284142    0.533784
     42          6           0       -3.509136   -3.657655    1.877149
     43          8           0       -3.650818   -3.143970    2.989306
     44          8           0       -2.612448   -4.617667    1.700508
     45          6           0       -2.083593   -5.172571    3.020186
     46          6           0        2.845172   -0.846078   -1.094185
     47          6           0        4.124820   -0.601994   -0.385925
     48          6           0        5.083035    0.199753   -0.831420
     49          6           0        5.041641    0.989327   -2.141318
     50          6           0        6.405405    0.486836   -0.178547
     51          6           0        7.583002   -0.312974   -0.925761
     52          6           0        8.884405   -0.437607   -0.159528
     53          6           0       10.188799   -0.714156   -0.941602
     54          6           0       10.113277   -2.209020   -1.527787
     55          6           0       11.421555   -0.395150    0.036741
     56          6           0       12.737360   -0.571608   -0.644343
     57          6           0       13.964692   -0.190524    0.189448
     58          6           0       15.341792   -0.187295   -0.530841
     59          6           0       15.745118   -1.564275   -0.914747
     60          6           0       16.367700    0.579606    0.379584
     61          6           0       17.773888    0.702436   -0.258709
     62          6           0       18.694684    1.343118    0.667148
     63          6           0       20.182908    1.449981    0.186492
     64          6           0       20.303648    2.408050   -1.034864
     65          6           0       21.165281    1.920138    1.294148
     66          1           0       -4.003341    3.490579    1.616429
     67          1           0      -10.161632    3.963306   -0.891431
     68          1           0      -10.127575   -2.584469   -1.118252
     69          1           0       -2.808309   -0.906424    2.334330
     70          1           0       -2.326179    1.559462    1.390622
     71          1           0       -1.912315    1.054566    3.622833
     72          1           0       -3.176447    2.228661    3.596466
     73          1           0       -3.554048    0.623682    3.780006
     74          1           0       -1.957862   -1.602698   -0.156783
     75          1           0       -2.097470    0.315706   -0.572956
     76          1           0       -0.312910    0.590871    1.108873
     77          1           0       -0.031523   -1.255085    1.413707
     78          1           0       -5.021672    6.267540    0.697358
     79          1           0       -6.113709    6.720170    1.863659
     80          1           0       -4.980037    5.473951    2.193135
     81          1           0       -9.623926    5.897923    0.042998
     82          1           0       -8.622572    8.282512   -0.190101
     83          1           0       -6.908102    7.395517    0.197695
     84          1           0      -12.476714    3.080167   -2.228352
     85          1           0      -13.399069    1.621104   -1.344718
     86          1           0      -12.457251    3.040951   -0.566817
     87          1           0      -12.548089   -1.728366   -0.979423
     88          1           0      -13.301779   -0.225453   -1.676765
     89          1           0      -13.413767   -1.739462   -3.325078
     90          1           0      -12.188082   -0.193927   -3.723490
     91          1           0      -11.469707   -1.753677   -3.330852
     92          1           0       -9.040826   -5.056500   -1.616454
     93          1           0       -7.934855   -5.603090   -0.549805
     94          1           0       -9.449517   -4.952027    0.097715
     95          1           0       -3.400073   -3.291404   -0.080765
     96          1           0       -1.557196   -4.342641    3.371826
     97          1           0       -3.030864   -5.440512    3.615365
     98          1           0       -1.546487   -6.073871    2.707463
     99          1           0        2.461821   -1.972317   -1.270336
    100          1           0        2.698043   -0.406672   -1.986929
    101          1           0        4.178265   -1.298311    0.634925
    102          1           0        4.017058    1.229519   -2.705874
    103          1           0        5.702519    1.880897   -2.254671
    104          1           0        5.459125    0.426695   -3.110696
    105          1           0        6.571540    1.409262   -0.025625
    106          1           0        6.304107    0.070473    0.807658
    107          1           0        7.035014   -1.365280   -1.116603
    108          1           0        7.959972    0.275520   -1.952728
    109          1           0        8.981135    0.590927    0.395871
    110          1           0        8.826483   -1.227756    0.609316
    111          1           0       10.409426   -0.065352   -1.750978
    112          1           0        9.458316   -2.486262   -2.424022
    113          1           0       10.982187   -2.350897   -2.065970
    114          1           0       10.015586   -2.965548   -0.635953
    115          1           0       11.231365    0.764233    0.159063
    116          1           0       11.469189   -0.842151    1.201065
    117          1           0       12.772391   -1.695814   -0.925561
    118          1           0       12.855570    0.039435   -1.524847
    119          1           0       13.736854    0.709757    0.502961
    120          1           0       13.961854   -0.852820    0.925375
    121          1           0       15.450782    0.306748   -1.552217
    122          1           0       15.896873   -2.209539   -0.149567
    123          1           0       15.113771   -2.025485   -1.627695
    124          1           0       16.755355   -1.515670   -1.294919
    125          1           0       15.886525    1.588916    0.493291
    126          1           0       16.379613   -0.165353    1.242012
    127          1           0       18.168940   -0.370852   -0.289628
    128          1           0       17.595807    1.388789   -1.168004
    129          1           0       18.454827    2.393538    0.723268
    130          1           0       18.938786    0.957568    1.603632
    131          1           0       20.603662    0.542446   -0.118603
    132          1           0       19.986106    3.446241   -0.814952
    133          1           0       21.282261    2.429667   -1.439640
    134          1           0       19.685633    2.227091   -1.976706
    135          1           0       21.142157    1.208848    2.001243
    136          1           0       22.200687    2.026278    0.878347
    137          1           0       20.828506    2.925829    1.631814
 ---------------------------------------------------------------------

 SCF Done:  E(RCAM-B3LYP) =  -2932.69189296     A.U. after   17 cycles

 Excitation energies and oscillator strengths:

 Excited State   1:      Singlet-A      2.1928 eV  565.42 nm  f=0.1938  <S**2>=0.000
     240 -> 242       -0.29825
     240 -> 243        0.21659
     241 -> 242        0.57129
     241 -> 243        0.16235
 This state for optimization and/or second-order correction.
 Total Energy, E(TD-HF/TD-KS) =  -2932.61130964
 Copying the excited state density for this state as the 1-particle RhoCI density.

 The electronic state is 1-A.
 Alpha  occ. eigenvalues --  -46.82710 -19.25404 -19.23636 -19.20616 -19.19635
 Alpha  occ. eigenvalues --  -19.19449 -14.41334 -14.39674 -14.39457 -14.37975
 Alpha  occ. eigenvalues --  -10.38385 -10.38345 -10.34138 -10.31633 -10.31125
 Alpha  occ. eigenvalues --  -10.31024 -10.30907 -10.30804 -10.30295 -10.29756
 Alpha  occ. eigenvalues --  -10.28976 -10.28921 -10.28804 -10.28752 -10.28475
 Alpha  occ. eigenvalues --  -10.28253 -10.28233 -10.28069 -10.28024 -10.27669
 Alpha  occ. eigenvalues --  -10.27529 -10.27509 -10.27476 -10.27410 -10.27354
 Alpha  occ. eigenvalues --  -10.27279 -10.27214 -10.27202 -10.27198 -10.27135
 Alpha  occ. eigenvalues --  -10.27050 -10.27000 -10.26979 -10.26761 -10.26528
 Alpha  occ. eigenvalues --  -10.26175 -10.25921 -10.25810 -10.25646 -10.25639
 Alpha  occ. eigenvalues --  -10.25511 -10.25405 -10.25352 -10.25269 -10.25098
 Alpha  occ. eigenvalues --  -10.24793 -10.24743 -10.24594 -10.24578 -10.23911
 Alpha  occ. eigenvalues --  -10.23902 -10.23598 -10.23568 -10.22353 -10.22061
 Alpha  occ. eigenvalues --   -3.11956  -1.86644  -1.86231  -1.86128  -1.16982
 Alpha  occ. eigenvalues --   -1.16323  -1.11216  -1.07030  -1.06441  -1.05011
 Alpha  occ. eigenvalues --   -1.02703  -1.01131  -0.99901  -0.92530  -0.90987
 Alpha  occ. eigenvalues --   -0.90766  -0.89989  -0.89409  -0.88906  -0.88630
 Alpha  occ. eigenvalues --   -0.87988  -0.87580  -0.87460  -0.86540  -0.85767
 Alpha  occ. eigenvalues --   -0.84959  -0.84146  -0.83203  -0.83120  -0.82095
 Alpha  occ. eigenvalues --   -0.81752  -0.81016  -0.80325  -0.79269  -0.78506
 Alpha  occ. eigenvalues --   -0.77869  -0.77124  -0.76257  -0.76068  -0.75608
 Alpha  occ. eigenvalues --   -0.75512  -0.75368  -0.74741  -0.73411  -0.72707
 Alpha  occ. eigenvalues --   -0.71871  -0.70341  -0.69323  -0.68712  -0.68507
 Alpha  occ. eigenvalues --   -0.66939  -0.66625  -0.65751  -0.64480  -0.63320
 Alpha  occ. eigenvalues --   -0.63255  -0.62877  -0.62630  -0.61722  -0.61577
 Alpha  occ. eigenvalues --   -0.61415  -0.61073  -0.60227  -0.59670  -0.58793
 Alpha  occ. eigenvalues --   -0.58482  -0.57933  -0.57693  -0.56937  -0.56407
 Alpha  occ. eigenvalues --   -0.56224  -0.55579  -0.55164  -0.54967  -0.54856
 Alpha  occ. eigenvalues --   -0.54758  -0.54218  -0.53834  -0.53334  -0.52823
 Alpha  occ. eigenvalues --   -0.52507  -0.52273  -0.52243  -0.52152  -0.51820
 Alpha  occ. eigenvalues --   -0.51534  -0.51024  -0.50894  -0.50758  -0.50549
 Alpha  occ. eigenvalues --   -0.50421  -0.49845  -0.49688  -0.49580  -0.49448
 Alpha  occ. eigenvalues --   -0.49183  -0.48712  -0.48537  -0.48437  -0.48177
 Alpha  occ. eigenvalues --   -0.47987  -0.47754  -0.47617  -0.47346  -0.47137
 Alpha  occ. eigenvalues --   -0.46787  -0.46620  -0.46555  -0.46092  -0.45914
 Alpha  occ. eigenvalues --   -0.45757  -0.45458  -0.45061  -0.44989  -0.44721
 Alpha  occ. eigenvalues --   -0.44646  -0.44615  -0.44311  -0.44025  -0.43806
 Alpha  occ. eigenvalues --   -0.43781  -0.43726  -0.43297  -0.43189  -0.43094
 Alpha  occ. eigenvalues --   -0.42917  -0.42767  -0.42608  -0.42378  -0.42270
 Alpha  occ. eigenvalues --   -0.41871  -0.41641  -0.41467  -0.41305  -0.41135
 Alpha  occ. eigenvalues --   -0.41101  -0.40841  -0.40736  -0.40632  -0.40442
 Alpha  occ. eigenvalues --   -0.39986  -0.39891  -0.39829  -0.39629  -0.38879
 Alpha  occ. eigenvalues --   -0.38643  -0.38541  -0.38376  -0.37966  -0.37675
 Alpha  occ. eigenvalues --   -0.37287  -0.37182  -0.37178  -0.36941  -0.36914
 Alpha  occ. eigenvalues --   -0.36598  -0.36239  -0.36113  -0.35373  -0.35296
 Alpha  occ. eigenvalues --   -0.35148  -0.34920  -0.34616  -0.33543  -0.33316
 Alpha  occ. eigenvalues --   -0.33067  -0.32853  -0.32023  -0.30821  -0.29778
 Alpha  occ. eigenvalues --   -0.29518  -0.28638  -0.28066  -0.27051  -0.23231
 Alpha  occ. eigenvalues --   -0.22180
 Alpha virt. eigenvalues --   -0.06865  -0.03504   0.02132   0.03699   0.05339
 Alpha virt. eigenvalues --    0.06558   0.06931   0.07114   0.07392   0.07523
 Alpha virt. eigenvalues --    0.08698   0.10753   0.11550   0.11693   0.11897

 Mulliken charges:
               1
     1  Mg   0.806710
     2  C    0.037495
     3  C   -0.234925
     4  C   -0.200927
     5  C   -0.120045
     6  N   -0.644879
     7  C    0.275210
     8  C   -0.185061
     9  C   -0.117849
    10  C    0.382976
    11  C   -0.328760
    12  C   -0.146138
    13  C   -0.259607
    14  C    0.597113
    15  O   -0.461783
    16  O   -0.521909
    17  N   -0.727350
    18  C    0.324104
    19  C    0.037122
    20  C    0.005700
    21  C    0.309599
    22  C   -0.381092
    23  C   -0.055115
    24  C   -0.243365
    25  N   -0.679363
    26  C    0.256870
    27  C    0.018238
    28  C    0.014345
    29  C    0.306973
    30  C   -0.376720
    31  C   -0.235449
    32  C   -0.308587
    33  N   -0.690576
    34  C    0.268828
    35  C   -0.025247
    36  C   -0.033513
    37  C    0.292361
    38  C   -0.369309
    39  C    0.374782
    40  O   -0.454972
    41  C   -0.290270
    42  C    0.589123
    43  O   -0.505132
    44  O   -0.464348
    45  C   -0.079518
    46  C    0.027962
    47  C   -0.126968
    48  C    0.132914
    49  C   -0.374503
    50  C   -0.217655
    51  C   -0.158333
    52  C   -0.150982
    53  C   -0.058878
    54  C   -0.321262
    55  C   -0.169633
    56  C   -0.188073
    57  C   -0.149424
    58  C   -0.082545
    59  C   -0.318421
    60  C   -0.167749
    61  C   -0.169337
    62  C   -0.147399
    63  C   -0.082959
    64  C   -0.320774
    65  C   -0.309341
    66  H    0.073315
    67  H    0.102962
    68  H    0.097490
    69  H    0.134072
    70  H    0.097922
    71  H    0.098878
    72  H    0.115195
    73  H    0.129659
    74  H    0.130612
    75  H    0.095063
    76  H    0.144564
    77  H    0.131037
    78  H    0.139313
    79  H    0.135172
    80  H    0.112447
    81  H    0.097747
    82  H    0.115792
    83  H    0.095015
    84  H    0.116560
    85  H    0.100519
    86  H    0.130857
    87  H    0.091869
    88  H    0.114314
    89  H    0.100887
    90  H    0.116345
    91  H    0.106839
    92  H    0.131143
    93  H    0.149067
    94  H    0.119801
    95  H    0.163100
    96  H    0.149263
    97  H    0.143129
    98  H    0.135641
    99  H    0.107551
   100  H    0.129674
   101  H    0.087604
   102  H    0.103209
   103  H    0.118384
   104  H    0.107188
   105  H    0.113311
   106  H    0.100678
   107  H    0.090393
   108  H    0.066370
   109  H    0.070378
   110  H    0.095097
   111  H    0.093604
   112  H    0.099437
   113  H    0.112267
   114  H    0.092716
   115  H    0.076238
   116  H    0.066919
   117  H    0.084068
   118  H    0.092893
   119  H    0.092177
   120  H    0.098436
   121  H    0.065023
   122  H    0.097965
   123  H    0.109020
   124  H    0.095978
   125  H    0.090119
   126  H    0.083937
   127  H    0.093325
   128  H    0.097066
   129  H    0.086259
   130  H    0.092455
   131  H    0.089005
   132  H    0.091620
   133  H    0.101031
   134  H    0.085042
   135  H    0.109569
   136  H    0.097888
   137  H    0.098134
 Sum of Mulliken charges =   0.00000

 Dipole moment (field-independent basis, Debye):
    X=              1.2510    Y=              5.3090    Z=              1.1748  Tot=              5.5794
 Quadrupole moment (field-independent basis, Debye-Ang):
   XX=           -323.4288   YY=           -380.9108   ZZ=           -398.0691
   XY=            -32.1002   XZ=              5.3324   YZ=             -6.0324

 Normal termination of Gaussian 09 at Sat Jun 29 13:42:52 2019.
