 Gaussian 09, Revision D.01,
 Gaussian 09:  ES64L-G09RevD.01 24-Apr-2013

 -------------------------------------
 # td=(NStates=1) CAM-B3LYP/6-31G(d,p)
 -------------------------------------

 --
 TD
 --
 Symbolic Z-matrix:
 Charge =  0 Multiplicity = 1

                         Standard orientation:
 ---------------------------------------------------------------------
 Center     Atomic      Atomic             Coordinates (Angstroms)
 Number     Number       Type             X           Y           Z
 ---------------------------------------------------------------------
      1         12           0       -7.124027    0.619409    0.115177
      2          6           0       -4.857406   -1.977957    0.473259
      3          6           0       -4.868843    2.787059    1.361185
      4          6           0       -9.447503    3.149608   -0.462255
      5          6           0       -9.540016   -1.725627   -0.776114
      6          7           0       -5.086683    0.441484    0.741427
      7          6           0       -4.377841   -0.686302    0.798790
      8          6           0       -3.014185   -0.416729    1.291166
      9          6           0       -3.022094    1.011027    1.728657
     10          6           0       -4.454170    1.447313    1.223896
     11          6           0       -2.951176    1.155004    3.317477
     12          6           0       -1.949941   -0.617203    0.136893
     13          6           0       -0.378874   -0.608231    0.618193
     14          6           0        0.522356   -0.677706   -0.593553
     15          8           0        0.220421   -0.972594   -1.771102
     16          8           0        1.807229   -0.585848   -0.175654
     17          7           0       -7.153660    2.652812    0.428562
     18          6           0       -6.091441    3.402467    0.944159
     19          6           0       -6.418688    4.782500    0.888193
     20          6           0       -7.706893    4.914728    0.344541
     21          6           0       -8.172768    3.504608    0.029109
     22          6           0       -5.634730    5.916617    1.354762
     23          6           0       -8.632694    6.085172    0.114885
     24          6           0       -8.168322    7.307743   -0.055944
     25          7           0       -9.076863    0.723431   -0.428509
     26          6           0       -9.852012    1.806191   -0.520745
     27          6           0      -11.167090    1.449054   -1.001948
     28          6           0      -11.186841    0.137907   -1.186304
     29          6           0       -9.902610   -0.383454   -0.676243
     30          6           0      -12.274260    2.488725   -1.381557
     31          6           0      -12.381601   -0.776043   -1.603873
     32          6           0      -12.254681   -1.253385   -3.055932
     33          7           0       -7.240107   -1.426896   -0.175945
     34          6           0       -8.292745   -2.280390   -0.564182
     35          6           0       -7.803125   -3.578541   -0.468936
     36          6           0       -6.422058   -3.520634   -0.127051
     37          6           0       -6.118529   -2.210234   -0.038611
     38          6           0       -8.651007   -4.864671   -0.840787
     39          6           0       -5.335003   -4.373352    0.120619
     40          8           0       -5.149822   -5.493814    0.075108
     41          6           0       -4.127716   -3.302142    0.498287
     42          6           0       -3.457662   -3.686579    1.828060
     43          8           0       -3.721005   -3.184670    2.896426
     44          8           0       -2.706224   -4.754464    1.627027
     45          6           0       -2.193853   -5.307090    2.787222
     46          6           0        2.935919   -0.703946   -1.291302
     47          6           0        4.179814   -0.356870   -0.621481
     48          6           0        5.124912    0.517161   -1.043480
     49          6           0        4.961496    1.280108   -2.382739
     50          6           0        6.367854    0.570986   -0.294447
     51          6           0        7.664202   -0.099437   -1.084910
     52          6           0        8.969149   -0.189484   -0.260247
     53          6           0       10.193248   -0.644574   -0.942173
     54          6           0       10.102185   -2.022200   -1.421942
     55          6           0       11.493392   -0.336730   -0.085292
     56          6           0       12.780288   -0.374648   -0.821229
     57          6           0       13.876239    0.055561    0.132793
     58          6           0       15.344436   -0.091161   -0.433868
     59          6           0       15.573672   -1.533551   -0.909794
     60          6           0       16.436421    0.323104    0.478105
     61          6           0       17.794487    0.410464   -0.106898
     62          6           0       18.740329    1.305238    0.817861
     63          6           0       20.183275    1.237465    0.347983
     64          6           0       20.323052    2.194004   -0.928141
     65          6           0       21.089542    1.933829    1.488918
     66          1           0       -4.117672    3.553057    1.654396
     67          1           0      -10.094663    4.125803   -0.686299
     68          1           0      -10.421453   -2.463743   -1.108054
     69          1           0       -2.346660   -1.104094    1.975526
     70          1           0       -2.452985    1.859302    1.202892
     71          1           0       -2.113841    0.777887    3.617343
     72          1           0       -3.027286    2.090592    3.706560
     73          1           0       -3.766494    0.316937    3.785726
     74          1           0       -2.118222   -1.656581   -0.402090
     75          1           0       -1.976163    0.132191   -0.557230
     76          1           0       -0.264603    0.319234    1.250027
     77          1           0       -0.178096   -1.385969    1.319945
     78          1           0       -4.854810    6.308454    0.754542
     79          1           0       -6.125904    6.770754    1.706217
     80          1           0       -5.163011    5.456278    2.208573
     81          1           0       -9.764488    5.938343    0.309172
     82          1           0       -8.817213    8.212141   -0.112177
     83          1           0       -7.187397    7.619859   -0.192240
     84          1           0      -12.005334    3.184945   -2.227313
     85          1           0      -13.118367    1.850842   -1.666225
     86          1           0      -12.555400    2.896848   -0.425745
     87          1           0      -12.418178   -1.694437   -0.922345
     88          1           0      -13.301616   -0.098679   -1.513017
     89          1           0      -13.018433   -1.802282   -3.474554
     90          1           0      -12.167729   -0.446466   -3.746959
     91          1           0      -11.282545   -1.802638   -3.398123
     92          1           0       -9.090743   -4.650153   -1.755540
     93          1           0       -7.966063   -5.722561   -0.608685
     94          1           0       -9.561757   -4.904624   -0.313871
     95          1           0       -3.356324   -3.383879   -0.244234
     96          1           0       -1.446005   -4.790248    3.456376
     97          1           0       -2.856820   -5.673363    3.476058
     98          1           0       -1.658296   -6.301983    2.614317
     99          1           0        2.706925   -1.702033   -1.605237
    100          1           0        2.688138   -0.013467   -2.055556
    101          1           0        4.303943   -0.966468    0.312813
    102          1           0        3.865190    1.004653   -2.937750
    103          1           0        5.174582    2.434059   -2.125187
    104          1           0        5.813234    1.088861   -3.072802
    105          1           0        6.569348    1.646714   -0.060548
    106          1           0        6.460051   -0.038450    0.616838
    107          1           0        7.322685   -0.952030   -1.284779
    108          1           0        7.879292    0.429818   -1.927373
    109          1           0        9.347945    0.917274    0.272686
    110          1           0        8.545656   -0.967474    0.640092
    111          1           0       10.028990    0.002921   -1.762819
    112          1           0        9.246825   -2.205258   -2.233754
    113          1           0       11.048165   -2.357186   -1.846996
    114          1           0        9.949418   -2.904921   -0.654487
    115          1           0       11.467571    0.613328    0.408075
    116          1           0       11.556387   -0.885202    0.760060
    117          1           0       13.119012   -1.386564   -1.162676
    118          1           0       12.750508    0.343680   -1.660023
    119          1           0       13.732914    1.060158    0.344343
    120          1           0       13.783675   -0.528429    1.066066
    121          1           0       15.476880    0.243575   -1.422989
    122          1           0       15.624761   -2.121910    0.016719
    123          1           0       14.784252   -2.136662   -1.501792
    124          1           0       16.497763   -1.625985   -1.369735
    125          1           0       16.171059    1.268987    0.828228
    126          1           0       16.614498   -0.257451    1.518753
    127          1           0       18.244688   -0.565367   -0.412149
    128          1           0       17.722448    1.047813   -1.075022
    129          1           0       18.466203    2.316436    0.847975
    130          1           0       18.509398    0.760376    1.896528
    131          1           0       20.404663    0.159274    0.117305
    132          1           0       20.048274    3.083358   -0.455035
    133          1           0       21.360016    2.092751   -1.305718
    134          1           0       19.840526    1.634683   -1.705834
    135          1           0       21.166735    1.340485    2.210434
    136          1           0       22.115269    2.004216    1.026410
    137          1           0       20.684100    2.903433    1.658441
 ---------------------------------------------------------------------

 SCF Done:  E(RCAM-B3LYP) =  -2932.66446153     A.U. after   18 cycles

 Excitation energies and oscillator strengths:

 Excited State   1:      Singlet-A      2.0931 eV  592.34 nm  f=0.2386  <S**2>=0.000
     240 -> 242       -0.11405
     240 -> 243        0.25381
     241 -> 242        0.64328
 This state for optimization and/or second-order correction.
 Total Energy, E(TD-HF/TD-KS) =  -2932.58754034
 Copying the excited state density for this state as the 1-particle RhoCI density.

 The electronic state is 1-A.
 Alpha  occ. eigenvalues --  -46.84051 -19.27265 -19.24637 -19.20420 -19.20030
 Alpha  occ. eigenvalues --  -19.19864 -14.41877 -14.39467 -14.39082 -14.38042
 Alpha  occ. eigenvalues --  -10.38772 -10.38461 -10.33981 -10.31496 -10.30914
 Alpha  occ. eigenvalues --  -10.30483 -10.30444 -10.30233 -10.29780 -10.29586
 Alpha  occ. eigenvalues --  -10.29106 -10.28847 -10.28655 -10.28491 -10.28292
 Alpha  occ. eigenvalues --  -10.28140 -10.28137 -10.28070 -10.27853 -10.27686
 Alpha  occ. eigenvalues --  -10.27666 -10.27614 -10.27397 -10.27364 -10.27201
 Alpha  occ. eigenvalues --  -10.27058 -10.26914 -10.26592 -10.26576 -10.26535
 Alpha  occ. eigenvalues --  -10.26439 -10.26406 -10.26313 -10.26274 -10.26072
 Alpha  occ. eigenvalues --  -10.25956 -10.25954 -10.25797 -10.25771 -10.25686
 Alpha  occ. eigenvalues --  -10.25396 -10.25163 -10.25010 -10.24919 -10.24907
 Alpha  occ. eigenvalues --  -10.24760 -10.24701 -10.24658 -10.24556 -10.24510
 Alpha  occ. eigenvalues --  -10.24263 -10.24196 -10.23742 -10.23435 -10.23082
 Alpha  occ. eigenvalues --   -3.13028  -1.87748  -1.87282  -1.87175  -1.19973
 Alpha  occ. eigenvalues --   -1.15508  -1.14520  -1.09385  -1.06849  -1.05582
 Alpha  occ. eigenvalues --   -1.03560  -1.02431  -1.01588  -0.92329  -0.92172
 Alpha  occ. eigenvalues --   -0.91384  -0.90484  -0.89280  -0.88913  -0.88477
 Alpha  occ. eigenvalues --   -0.88382  -0.87710  -0.86890  -0.86412  -0.85705
 Alpha  occ. eigenvalues --   -0.84984  -0.84556  -0.83583  -0.83234  -0.82636
 Alpha  occ. eigenvalues --   -0.81645  -0.81357  -0.80664  -0.80151  -0.78039
 Alpha  occ. eigenvalues --   -0.77717  -0.77025  -0.76333  -0.76078  -0.76015
 Alpha  occ. eigenvalues --   -0.75528  -0.75310  -0.74754  -0.73026  -0.72417
 Alpha  occ. eigenvalues --   -0.71788  -0.70977  -0.70054  -0.69325  -0.68378
 Alpha  occ. eigenvalues --   -0.67922  -0.66801  -0.65749  -0.65277  -0.65075
 Alpha  occ. eigenvalues --   -0.64393  -0.63665  -0.62532  -0.62264  -0.62190
 Alpha  occ. eigenvalues --   -0.62163  -0.60605  -0.60290  -0.59417  -0.58863
 Alpha  occ. eigenvalues --   -0.58297  -0.58113  -0.56953  -0.56403  -0.56181
 Alpha  occ. eigenvalues --   -0.55942  -0.55839  -0.55429  -0.55179  -0.54919
 Alpha  occ. eigenvalues --   -0.54512  -0.54325  -0.54017  -0.53357  -0.53032
 Alpha  occ. eigenvalues --   -0.52880  -0.52526  -0.52237  -0.51791  -0.51687
 Alpha  occ. eigenvalues --   -0.51626  -0.51418  -0.51157  -0.51025  -0.50759
 Alpha  occ. eigenvalues --   -0.50595  -0.50204  -0.50023  -0.49792  -0.49621
 Alpha  occ. eigenvalues --   -0.49430  -0.49220  -0.48934  -0.48668  -0.48520
 Alpha  occ. eigenvalues --   -0.48427  -0.48065  -0.47943  -0.47687  -0.47492
 Alpha  occ. eigenvalues --   -0.47212  -0.46923  -0.46813  -0.46330  -0.46261
 Alpha  occ. eigenvalues --   -0.45962  -0.45809  -0.45662  -0.45371  -0.45353
 Alpha  occ. eigenvalues --   -0.45083  -0.44824  -0.44743  -0.44484  -0.44282
 Alpha  occ. eigenvalues --   -0.44189  -0.43692  -0.43564  -0.43402  -0.43090
 Alpha  occ. eigenvalues --   -0.42837  -0.42662  -0.42577  -0.42365  -0.42035
 Alpha  occ. eigenvalues --   -0.41927  -0.41769  -0.41561  -0.41388  -0.41102
 Alpha  occ. eigenvalues --   -0.40833  -0.40608  -0.40364  -0.40248  -0.40147
 Alpha  occ. eigenvalues --   -0.39869  -0.39754  -0.39642  -0.39409  -0.39325
 Alpha  occ. eigenvalues --   -0.39161  -0.38737  -0.38545  -0.38109  -0.37875
 Alpha  occ. eigenvalues --   -0.37761  -0.37442  -0.37073  -0.36913  -0.36693
 Alpha  occ. eigenvalues --   -0.36442  -0.35884  -0.35622  -0.35333  -0.35317
 Alpha  occ. eigenvalues --   -0.35199  -0.34997  -0.34833  -0.33406  -0.33098
 Alpha  occ. eigenvalues --   -0.32950  -0.32740  -0.32329  -0.30245  -0.29791
 Alpha  occ. eigenvalues --   -0.29390  -0.29149  -0.27883  -0.27646  -0.22773
 Alpha  occ. eigenvalues --   -0.21188
 Alpha virt. eigenvalues --   -0.06414  -0.02631   0.02160   0.04118   0.04987
 Alpha virt. eigenvalues --    0.06161   0.06340   0.06802   0.07196   0.08342
 Alpha virt. eigenvalues --    0.08659   0.10727   0.10978   0.11611   0.12001

 Mulliken charges:
               1
     1  Mg   0.815237
     2  C    0.087052
     3  C   -0.205824
     4  C   -0.187299
     5  C   -0.196249
     6  N   -0.625412
     7  C    0.327161
     8  C   -0.174750
     9  C   -0.150345
    10  C    0.340675
    11  C   -0.292614
    12  C   -0.178466
    13  C   -0.290397
    14  C    0.619043
    15  O   -0.503414
    16  O   -0.514331
    17  N   -0.728960
    18  C    0.328583
    19  C    0.016244
    20  C   -0.004506
    21  C    0.297244
    22  C   -0.382255
    23  C   -0.082850
    24  C   -0.237266
    25  N   -0.676814
    26  C    0.335105
    27  C   -0.034638
    28  C    0.048456
    29  C    0.267967
    30  C   -0.352227
    31  C   -0.234232
    32  C   -0.319945
    33  N   -0.730078
    34  C    0.304609
    35  C   -0.025529
    36  C    0.024210
    37  C    0.274161
    38  C   -0.360703
    39  C    0.341458
    40  O   -0.395620
    41  C   -0.364316
    42  C    0.618352
    43  O   -0.477901
    44  O   -0.407685
    45  C   -0.103621
    46  C    0.008849
    47  C   -0.124145
    48  C    0.141841
    49  C   -0.355645
    50  C   -0.243774
    51  C   -0.181602
    52  C   -0.151710
    53  C   -0.028967
    54  C   -0.310357
    55  C   -0.181280
    56  C   -0.171817
    57  C   -0.185203
    58  C   -0.075330
    59  C   -0.331398
    60  C   -0.151135
    61  C   -0.190966
    62  C   -0.140740
    63  C   -0.110526
    64  C   -0.296114
    65  C   -0.292159
    66  H    0.078574
    67  H    0.101127
    68  H    0.092685
    69  H    0.124521
    70  H    0.105913
    71  H    0.121938
    72  H    0.113717
    73  H    0.100163
    74  H    0.104842
    75  H    0.119800
    76  H    0.130587
    77  H    0.144569
    78  H    0.126574
    79  H    0.128924
    80  H    0.112245
    81  H    0.108109
    82  H    0.095986
    83  H    0.111737
    84  H    0.125471
    85  H    0.104159
    86  H    0.129217
    87  H    0.109183
    88  H    0.101355
    89  H    0.113317
    90  H    0.114426
    91  H    0.096266
    92  H    0.129912
    93  H    0.142025
    94  H    0.120930
    95  H    0.151464
    96  H    0.112008
    97  H    0.137528
    98  H    0.106745
    99  H    0.147563
   100  H    0.127193
   101  H    0.098962
   102  H    0.102645
   103  H    0.104852
   104  H    0.131293
   105  H    0.095965
   106  H    0.112922
   107  H    0.120495
   108  H    0.094234
   109  H    0.050352
   110  H    0.039833
   111  H    0.095198
   112  H    0.086802
   113  H    0.108143
   114  H    0.087654
   115  H    0.089051
   116  H    0.104599
   117  H    0.092078
   118  H    0.090865
   119  H    0.096754
   120  H    0.089089
   121  H    0.101026
   122  H    0.091227
   123  H    0.091511
   124  H    0.105852
   125  H    0.100191
   126  H    0.067348
   127  H    0.096333
   128  H    0.080568
   129  H    0.093960
   130  H    0.056927
   131  H    0.078082
   132  H    0.108692
   133  H    0.098263
   134  H    0.111144
   135  H    0.113974
   136  H    0.087113
   137  H    0.100097
 Sum of Mulliken charges =   0.00000

 Dipole moment (field-independent basis, Debye):
    X=              3.1338    Y=              5.2907    Z=             -0.1902  Tot=              6.1521
 Quadrupole moment (field-independent basis, Debye-Ang):
   XX=           -323.3938   YY=           -384.3865   ZZ=           -398.8796
   XY=            -25.1300   XZ=              6.1577   YZ=             -2.1631

 Normal termination of Gaussian 09 at Thu Jun 27 02:26:18 2019.
