 Gaussian 09, Revision D.01,
 Gaussian 09:  ES64L-G09RevD.01 24-Apr-2013

 -------------------------------------
 # td=(NStates=1) CAM-B3LYP/6-31G(d,p)
 -------------------------------------

 --
 TD
 --
 Symbolic Z-matrix:
 Charge =  0 Multiplicity = 1

                         Standard orientation:
 ---------------------------------------------------------------------
 Center     Atomic      Atomic             Coordinates (Angstroms)
 Number     Number       Type             X           Y           Z
 ---------------------------------------------------------------------
      1         12           0       -6.974107    0.632466    0.023500
      2          6           0       -4.881039   -1.995756    0.499540
      3          6           0       -4.708841    2.755309    1.278993
      4          6           0       -9.331268    3.147890   -0.375265
      5          6           0       -9.546915   -1.689806   -0.963691
      6          7           0       -5.092183    0.409675    0.783077
      7          6           0       -4.350887   -0.715381    0.831812
      8          6           0       -2.936929   -0.369452    1.261760
      9          6           0       -3.065872    1.107622    1.871132
     10          6           0       -4.373565    1.483342    1.184555
     11          6           0       -3.034264    1.062997    3.340101
     12          6           0       -1.958015   -0.505125    0.060410
     13          6           0       -0.482256   -0.335713    0.529873
     14          6           0        0.448818   -0.689754   -0.624615
     15          8           0        0.207654   -1.065185   -1.715231
     16          8           0        1.758006   -0.464396   -0.269779
     17          7           0       -7.048085    2.589033    0.267049
     18          6           0       -6.058937    3.370447    0.748595
     19          6           0       -6.346864    4.731013    0.756856
     20          6           0       -7.683519    4.805658    0.392874
     21          6           0       -8.078102    3.552675    0.008774
     22          6           0       -5.424898    5.760478    1.461046
     23          6           0       -8.437265    5.999286    0.462077
     24          6           0       -8.144017    7.278507    0.179154
     25          7           0       -9.077077    0.703523   -0.542663
     26          6           0       -9.865905    1.875000   -0.626152
     27          6           0      -11.203594    1.545279   -1.126595
     28          6           0      -11.178670    0.181477   -1.317927
     29          6           0       -9.919611   -0.250092   -0.943279
     30          6           0      -12.221010    2.509911   -1.274067
     31          6           0      -12.375738   -0.675922   -1.812067
     32          6           0      -12.308161   -1.075047   -3.213474
     33          7           0       -7.279934   -1.417212   -0.142734
     34          6           0       -8.345455   -2.220188   -0.545093
     35          6           0       -7.870474   -3.615563   -0.539176
     36          6           0       -6.509033   -3.552735   -0.237252
     37          6           0       -6.166629   -2.182524   -0.000809
     38          6           0       -8.699377   -4.858366   -0.732051
     39          6           0       -5.393914   -4.357493    0.124539
     40          8           0       -5.206155   -5.569561    0.051209
     41          6           0       -4.216650   -3.295518    0.536655
     42          6           0       -3.694027   -3.777416    1.811034
     43          8           0       -3.902228   -3.116358    2.882547
     44          8           0       -2.820956   -4.737495    1.706636
     45          6           0       -2.253132   -5.308168    2.987223
     46          6           0        2.796465   -0.713126   -1.193695
     47          6           0        4.116755   -0.464188   -0.544592
     48          6           0        5.083466    0.327236   -0.964552
     49          6           0        5.023035    1.340727   -2.179214
     50          6           0        6.430623    0.459153   -0.154781
     51          6           0        7.596392   -0.099242   -0.916848
     52          6           0        8.896537   -0.035608   -0.116104
     53          6           0       10.160928   -0.583108   -0.795176
     54          6           0       10.064344   -2.116234   -1.251525
     55          6           0       11.450616   -0.271222    0.017915
     56          6           0       12.743604   -0.491723   -0.663361
     57          6           0       13.907537   -0.132513    0.187730
     58          6           0       15.337060   -0.339314   -0.402758
     59          6           0       15.629050   -1.705358   -0.861888
     60          6           0       16.522761    0.287003    0.497834
     61          6           0       17.788539    0.568409   -0.292340
     62          6           0       18.874469    1.188442    0.695704
     63          6           0       20.292528    1.311925    0.091929
     64          6           0       20.404181    2.095615   -1.146694
     65          6           0       21.138847    2.085908    1.204132
     66          1           0       -3.968958    3.539798    1.517487
     67          1           0      -10.085004    3.930242   -0.481877
     68          1           0      -10.240656   -2.459461   -1.282001
     69          1           0       -2.610763   -0.958437    2.125169
     70          1           0       -2.205854    1.734422    1.580956
     71          1           0       -2.145492    0.797921    3.509873
     72          1           0       -3.348067    2.137220    3.903270
     73          1           0       -3.638809    0.297918    3.786520
     74          1           0       -2.073401   -1.481996   -0.565607
     75          1           0       -2.283768    0.269011   -0.607628
     76          1           0       -0.085803    0.440717    0.899859
     77          1           0       -0.304244   -1.045485    1.390680
     78          1           0       -4.598681    6.290231    0.811855
     79          1           0       -6.137433    6.437377    1.772247
     80          1           0       -4.683358    5.407548    2.170086
     81          1           0       -9.687001    5.856848    0.361147
     82          1           0       -8.823984    8.181182    0.081652
     83          1           0       -7.163049    7.543971    0.231966
     84          1           0      -11.780343    2.948087   -2.185824
     85          1           0      -13.186788    2.104058   -1.561347
     86          1           0      -12.212839    3.162512   -0.423768
     87          1           0      -12.701280   -1.509512   -0.953984
     88          1           0      -13.408980   -0.119994   -1.871604
     89          1           0      -13.126943   -1.568774   -3.360218
     90          1           0      -12.419805   -0.128718   -3.891079
     91          1           0      -11.428617   -1.639250   -3.403631
     92          1           0       -9.193028   -4.991605   -1.721554
     93          1           0       -8.128429   -5.684715   -0.804065
     94          1           0       -9.433378   -4.833952    0.121983
     95          1           0       -3.453807   -3.273856   -0.415879
     96          1           0       -1.967271   -4.406576    3.759846
     97          1           0       -3.114877   -5.619389    3.460902
     98          1           0       -1.372002   -5.926210    2.739304
     99          1           0        2.660176   -1.748266   -1.370512
    100          1           0        2.552830   -0.179013   -2.136845
    101          1           0        4.422516   -1.109646    0.276928
    102          1           0        4.091088    1.322169   -2.451068
    103          1           0        5.194533    2.395530   -1.737310
    104          1           0        5.676454    1.104877   -3.128604
    105          1           0        6.777268    1.500683    0.029524
    106          1           0        6.345273   -0.291441    0.693217
    107          1           0        7.318471   -0.925614   -1.225000
    108          1           0        7.544575    0.355508   -1.950832
    109          1           0        9.179945    0.955607    0.480746
    110          1           0        8.833205   -0.629303    0.747947
    111          1           0       10.370060   -0.113525   -1.876570
    112          1           0        9.190563   -2.427732   -1.966153
    113          1           0       10.931632   -2.597800   -1.782725
    114          1           0        9.737228   -2.747053   -0.300481
    115          1           0       11.270571    0.713899    0.591855
    116          1           0       11.596201   -1.280017    0.766845
    117          1           0       12.858694   -1.595147   -0.927096
    118          1           0       12.738735    0.263639   -1.556043
    119          1           0       13.536908    0.769516    0.271714
    120          1           0       13.850912   -0.823561    1.042468
    121          1           0       15.284053    0.543436   -1.328588
    122          1           0       15.878210   -2.388490   -0.113340
    123          1           0       14.783886   -2.205289   -1.354076
    124          1           0       16.538880   -1.782768   -1.428160
    125          1           0       16.232310    1.231249    1.016200
    126          1           0       16.894925   -0.358458    1.389779
    127          1           0       18.191419   -0.406734   -0.644240
    128          1           0       17.443056    1.132374   -1.118167
    129          1           0       18.653142    2.221372    1.122617
    130          1           0       18.854621    0.853286    1.799739
    131          1           0       20.940946    0.361860   -0.014777
    132          1           0       20.452866    3.315762   -0.792275
    133          1           0       21.360744    1.965000   -1.660001
    134          1           0       19.713625    2.001375   -1.992441
    135          1           0       21.072764    1.514516    2.123548
    136          1           0       22.193177    2.136547    1.077911
    137          1           0       20.875600    3.101841    1.408167
 ---------------------------------------------------------------------

 SCF Done:  E(RCAM-B3LYP) =  -2932.60303986     A.U. after   15 cycles

 Excitation energies and oscillator strengths:

 Excited State   1:      Singlet-A      2.1108 eV  587.37 nm  f=0.2424  <S**2>=0.000
     240 -> 243        0.24200
     241 -> 242        0.64518
 This state for optimization and/or second-order correction.
 Total Energy, E(TD-HF/TD-KS) =  -2932.52546809
 Copying the excited state density for this state as the 1-particle RhoCI density.

 The electronic state is 1-A.
 Alpha  occ. eigenvalues --  -46.84163 -19.27064 -19.24316 -19.21168 -19.20972
 Alpha  occ. eigenvalues --  -19.19214 -14.41150 -14.39177 -14.38943 -14.38906
 Alpha  occ. eigenvalues --  -10.38870 -10.38843 -10.35549 -10.33007 -10.31737
 Alpha  occ. eigenvalues --  -10.31169 -10.30158 -10.29713 -10.29403 -10.28976
 Alpha  occ. eigenvalues --  -10.28807 -10.28801 -10.28789 -10.28209 -10.27963
 Alpha  occ. eigenvalues --  -10.27963 -10.27926 -10.27909 -10.27905 -10.27869
 Alpha  occ. eigenvalues --  -10.27813 -10.27789 -10.27695 -10.27272 -10.27240
 Alpha  occ. eigenvalues --  -10.27149 -10.26856 -10.26849 -10.26801 -10.26396
 Alpha  occ. eigenvalues --  -10.26393 -10.26354 -10.26332 -10.26253 -10.26180
 Alpha  occ. eigenvalues --  -10.26164 -10.26005 -10.25948 -10.25919 -10.25889
 Alpha  occ. eigenvalues --  -10.25802 -10.25562 -10.25551 -10.25473 -10.25372
 Alpha  occ. eigenvalues --  -10.25318 -10.25262 -10.25086 -10.24793 -10.24418
 Alpha  occ. eigenvalues --  -10.23886 -10.23791 -10.23742 -10.23454 -10.23365
 Alpha  occ. eigenvalues --   -3.13191  -1.87893  -1.87424  -1.87380  -1.18509
 Alpha  occ. eigenvalues --   -1.17865  -1.10744  -1.09833  -1.05708  -1.04604
 Alpha  occ. eigenvalues --   -1.03360  -1.03138  -1.02180  -0.92980  -0.91385
 Alpha  occ. eigenvalues --   -0.90738  -0.90105  -0.89475  -0.89183  -0.88949
 Alpha  occ. eigenvalues --   -0.88402  -0.88131  -0.87852  -0.87307  -0.86364
 Alpha  occ. eigenvalues --   -0.85855  -0.85036  -0.84315  -0.83506  -0.82766
 Alpha  occ. eigenvalues --   -0.81857  -0.81578  -0.80874  -0.80443  -0.79145
 Alpha  occ. eigenvalues --   -0.78762  -0.78050  -0.76216  -0.76092  -0.75538
 Alpha  occ. eigenvalues --   -0.75252  -0.75017  -0.74207  -0.73806  -0.72848
 Alpha  occ. eigenvalues --   -0.71326  -0.70707  -0.68957  -0.68685  -0.68201
 Alpha  occ. eigenvalues --   -0.67438  -0.67372  -0.65493  -0.64491  -0.64429
 Alpha  occ. eigenvalues --   -0.64173  -0.62887  -0.62819  -0.61708  -0.61535
 Alpha  occ. eigenvalues --   -0.61289  -0.60657  -0.60382  -0.59395  -0.59309
 Alpha  occ. eigenvalues --   -0.58533  -0.58236  -0.57629  -0.57145  -0.57079
 Alpha  occ. eigenvalues --   -0.57003  -0.56732  -0.55801  -0.55270  -0.55127
 Alpha  occ. eigenvalues --   -0.54827  -0.54198  -0.53482  -0.53328  -0.53313
 Alpha  occ. eigenvalues --   -0.53043  -0.52719  -0.52461  -0.52208  -0.51905
 Alpha  occ. eigenvalues --   -0.51555  -0.51425  -0.51331  -0.50716  -0.50486
 Alpha  occ. eigenvalues --   -0.50342  -0.49937  -0.49897  -0.49711  -0.49432
 Alpha  occ. eigenvalues --   -0.49224  -0.49138  -0.48991  -0.48861  -0.48571
 Alpha  occ. eigenvalues --   -0.48260  -0.48227  -0.47855  -0.47630  -0.47377
 Alpha  occ. eigenvalues --   -0.47087  -0.47024  -0.46906  -0.46807  -0.46629
 Alpha  occ. eigenvalues --   -0.46346  -0.45859  -0.45472  -0.45262  -0.44957
 Alpha  occ. eigenvalues --   -0.44638  -0.44581  -0.44315  -0.44100  -0.43722
 Alpha  occ. eigenvalues --   -0.43658  -0.43616  -0.43076  -0.42965  -0.42866
 Alpha  occ. eigenvalues --   -0.42790  -0.42634  -0.42550  -0.42358  -0.42202
 Alpha  occ. eigenvalues --   -0.42010  -0.41967  -0.41766  -0.41745  -0.41224
 Alpha  occ. eigenvalues --   -0.41133  -0.41071  -0.40707  -0.40511  -0.40260
 Alpha  occ. eigenvalues --   -0.40099  -0.39866  -0.39652  -0.39559  -0.39157
 Alpha  occ. eigenvalues --   -0.38476  -0.38450  -0.37580  -0.37441  -0.37355
 Alpha  occ. eigenvalues --   -0.37278  -0.37058  -0.36788  -0.36724  -0.36507
 Alpha  occ. eigenvalues --   -0.36293  -0.35788  -0.35354  -0.35239  -0.35202
 Alpha  occ. eigenvalues --   -0.34445  -0.34079  -0.33879  -0.33732  -0.33585
 Alpha  occ. eigenvalues --   -0.33240  -0.32398  -0.32132  -0.30929  -0.30755
 Alpha  occ. eigenvalues --   -0.29972  -0.29682  -0.27685  -0.26896  -0.22892
 Alpha  occ. eigenvalues --   -0.21749
 Alpha virt. eigenvalues --   -0.06604  -0.02922   0.01141   0.04355   0.05179
 Alpha virt. eigenvalues --    0.05522   0.06424   0.07101   0.07415   0.07935
 Alpha virt. eigenvalues --    0.09065   0.11108   0.11290   0.11375   0.11875

 Mulliken charges:
               1
     1  Mg   0.825557
     2  C    0.079234
     3  C   -0.198613
     4  C   -0.178332
     5  C   -0.169514
     6  N   -0.674595
     7  C    0.348250
     8  C   -0.199652
     9  C   -0.139453
    10  C    0.377451
    11  C   -0.281815
    12  C   -0.172957
    13  C   -0.244377
    14  C    0.586542
    15  O   -0.451672
    16  O   -0.503581
    17  N   -0.710172
    18  C    0.281952
    19  C   -0.011193
    20  C    0.070710
    21  C    0.276173
    22  C   -0.359620
    23  C   -0.103808
    24  C   -0.237134
    25  N   -0.651682
    26  C    0.246614
    27  C    0.031524
    28  C    0.036721
    29  C    0.291063
    30  C   -0.372253
    31  C   -0.243068
    32  C   -0.281062
    33  N   -0.731978
    34  C    0.286591
    35  C    0.007220
    36  C    0.044328
    37  C    0.297071
    38  C   -0.369518
    39  C    0.337920
    40  O   -0.463447
    41  C   -0.351334
    42  C    0.640147
    43  O   -0.527903
    44  O   -0.444374
    45  C   -0.090241
    46  C    0.026340
    47  C   -0.133063
    48  C    0.095936
    49  C   -0.344578
    50  C   -0.223229
    51  C   -0.152199
    52  C   -0.183120
    53  C   -0.030578
    54  C   -0.320844
    55  C   -0.156944
    56  C   -0.189631
    57  C   -0.138990
    58  C   -0.032282
    59  C   -0.329756
    60  C   -0.186526
    61  C   -0.167237
    62  C   -0.175791
    63  C   -0.048429
    64  C   -0.282585
    65  C   -0.338270
    66  H    0.078441
    67  H    0.085821
    68  H    0.095612
    69  H    0.120964
    70  H    0.097298
    71  H    0.116215
    72  H    0.079891
    73  H    0.132084
    74  H    0.122967
    75  H    0.123840
    76  H    0.140220
    77  H    0.134006
    78  H    0.094021
    79  H    0.122595
    80  H    0.121593
    81  H    0.053873
    82  H    0.111996
    83  H    0.100712
    84  H    0.135990
    85  H    0.116095
    86  H    0.131555
    87  H    0.080445
    88  H    0.084100
    89  H    0.118100
    90  H    0.093516
    91  H    0.108228
    92  H    0.122312
    93  H    0.154294
    94  H    0.135096
    95  H    0.149919
    96  H    0.124860
    97  H    0.161243
    98  H    0.144621
    99  H    0.118218
   100  H    0.119267
   101  H    0.090631
   102  H    0.120789
   103  H    0.110223
   104  H    0.112540
   105  H    0.105114
   106  H    0.086710
   107  H    0.105665
   108  H    0.077319
   109  H    0.075216
   110  H    0.110060
   111  H    0.065990
   112  H    0.091743
   113  H    0.111549
   114  H    0.080090
   115  H    0.086942
   116  H    0.053096
   117  H    0.089944
   118  H    0.069788
   119  H    0.096385
   120  H    0.081760
   121  H    0.033397
   122  H    0.114101
   123  H    0.104504
   124  H    0.112286
   125  H    0.089696
   126  H    0.074486
   127  H    0.094807
   128  H    0.107591
   129  H    0.086212
   130  H    0.087037
   131  H    0.083734
   132  H    0.059435
   133  H    0.104695
   134  H    0.104030
   135  H    0.095094
   136  H    0.100579
   137  H    0.106814
 Sum of Mulliken charges =   0.00000

 Dipole moment (field-independent basis, Debye):
    X=              0.8814    Y=              1.6248    Z=             -0.0064  Tot=              1.8485
 Quadrupole moment (field-independent basis, Debye-Ang):
   XX=           -343.6403   YY=           -388.1040   ZZ=           -397.6057
   XY=            -15.3879   XZ=             19.3214   YZ=             -3.6164

 Normal termination of Gaussian 09 at Sun Jun 30 23:26:10 2019.
