 Gaussian 09, Revision D.01,
 Gaussian 09:  ES64L-G09RevD.01 24-Apr-2013

 -------------------------------------
 # td=(NStates=1) CAM-B3LYP/6-31G(d,p)
 -------------------------------------

 --
 TD
 --
 Symbolic Z-matrix:
 Charge =  0 Multiplicity = 1

                         Standard orientation:
 ---------------------------------------------------------------------
 Center     Atomic      Atomic             Coordinates (Angstroms)
 Number     Number       Type             X           Y           Z
 ---------------------------------------------------------------------
      1         12           0       -7.188842    0.601631    0.118721
      2          6           0       -4.807222   -1.930347    0.513862
      3          6           0       -4.830550    2.806423    1.256034
      4          6           0       -9.414897    3.089352   -0.336617
      5          6           0       -9.442392   -1.752823   -0.872073
      6          7           0       -5.109828    0.408541    0.721409
      7          6           0       -4.296298   -0.713715    0.798080
      8          6           0       -3.003981   -0.437799    1.199450
      9          6           0       -2.968281    1.076619    1.631180
     10          6           0       -4.397464    1.421615    1.167132
     11          6           0       -2.833400    1.351832    3.174868
     12          6           0       -1.922666   -0.657686    0.125008
     13          6           0       -0.430609   -0.394405    0.495661
     14          6           0        0.476431   -0.551295   -0.611695
     15          8           0        0.222353   -0.880270   -1.763807
     16          8           0        1.728111   -0.368724   -0.103355
     17          7           0       -7.164396    2.646506    0.397533
     18          6           0       -6.105677    3.373931    0.912917
     19          6           0       -6.467965    4.785105    0.872739
     20          6           0       -7.801256    4.832059    0.378813
     21          6           0       -8.203166    3.409776    0.186916
     22          6           0       -5.606972    5.916233    1.315472
     23          6           0       -8.720348    6.001204    0.211302
     24          6           0       -8.259206    7.303337   -0.018519
     25          7           0       -9.190369    0.682983   -0.511680
     26          6           0       -9.944727    1.788032   -0.691957
     27          6           0      -11.245123    1.404087   -1.256511
     28          6           0      -11.309712    0.020021   -1.221377
     29          6           0       -9.947446   -0.375877   -0.803659
     30          6           0      -12.239234    2.396724   -1.423148
     31          6           0      -12.371123   -0.902380   -1.682027
     32          6           0      -12.266770   -1.377590   -3.149124
     33          7           0       -7.259517   -1.417429   -0.117935
     34          6           0       -8.188432   -2.258570   -0.525695
     35          6           0       -7.812951   -3.633955   -0.565563
     36          6           0       -6.496802   -3.515396   -0.150854
     37          6           0       -6.208444   -2.161508    0.125766
     38          6           0       -8.610532   -4.747646   -0.959080
     39          6           0       -5.293304   -4.378278    0.185229
     40          8           0       -5.096905   -5.559564    0.141536
     41          6           0       -4.162490   -3.309457    0.484434
     42          6           0       -3.505768   -3.706197    1.845883
     43          8           0       -3.716200   -3.149634    2.905027
     44          8           0       -2.712714   -4.784480    1.628252
     45          6           0       -2.005954   -5.135413    2.889946
     46          6           0        2.827877   -0.604053   -1.044788
     47          6           0        4.070043   -0.318827   -0.409401
     48          6           0        5.131561    0.414201   -0.927257
     49          6           0        5.044867    1.151180   -2.269283
     50          6           0        6.421829    0.499119   -0.226232
     51          6           0        7.599279   -0.006811   -0.948168
     52          6           0        8.862932   -0.008903   -0.052222
     53          6           0       10.172479   -0.532372   -0.821194
     54          6           0        9.970614   -1.952193   -1.221632
     55          6           0       11.344698   -0.224546    0.060515
     56          6           0       12.727534   -0.394720   -0.654909
     57          6           0       14.056878   -0.161844    0.263899
     58          6           0       15.298251   -0.253615   -0.470577
     59          6           0       15.824398   -1.706280   -0.736650
     60          6           0       16.351216    0.408506    0.395869
     61          6           0       17.771429    0.421897   -0.242565
     62          6           0       18.870907    1.195951    0.655170
     63          6           0       20.267786    1.249358    0.130741
     64          6           0       20.330362    2.163436   -1.205654
     65          6           0       21.156267    1.893053    1.125695
     66          1           0       -4.109346    3.470309    1.606031
     67          1           0      -10.276849    3.821973   -0.390628
     68          1           0      -10.241696   -2.534542   -0.852842
     69          1           0       -2.626248   -1.156579    2.019593
     70          1           0       -2.224457    1.709994    1.275129
     71          1           0       -1.814582    1.149914    3.513527
     72          1           0       -2.773095    2.428867    3.343362
     73          1           0       -3.585616    0.752706    3.930697
     74          1           0       -1.985724   -1.651012   -0.383015
     75          1           0       -1.955058   -0.093182   -0.773003
     76          1           0       -0.265042    0.639957    0.876120
     77          1           0       -0.281767   -1.106789    1.303545
     78          1           0       -4.969234    6.326175    0.618800
     79          1           0       -6.132197    6.833836    1.864515
     80          1           0       -5.039676    5.475937    2.057108
     81          1           0       -9.632071    5.785313    0.456464
     82          1           0       -9.120940    8.081173    0.230782
     83          1           0       -7.054525    7.569954   -0.206657
     84          1           0      -11.897034    3.147588   -2.154316
     85          1           0      -13.099082    2.039559   -2.036313
     86          1           0      -12.301017    2.806885   -0.348461
     87          1           0      -12.095116   -1.715213   -1.056528
     88          1           0      -13.319778   -0.482017   -1.531583
     89          1           0      -13.051037   -2.140081   -3.333566
     90          1           0      -12.227078   -0.343258   -3.726533
     91          1           0      -11.188517   -1.947273   -3.158066
     92          1           0       -8.644733   -4.678637   -1.997879
     93          1           0       -8.049694   -5.523080   -0.533701
     94          1           0       -9.643006   -4.852306   -0.595784
     95          1           0       -3.282301   -3.519294   -0.285585
     96          1           0       -1.445203   -4.227906    3.177848
     97          1           0       -2.792412   -5.404731    3.694674
     98          1           0       -1.512845   -5.998189    2.474961
     99          1           0        2.873615   -1.652540   -1.455208
    100          1           0        2.583559    0.056735   -1.964720
    101          1           0        3.939834   -0.949471    0.491600
    102          1           0        4.146633    0.917618   -2.913433
    103          1           0        5.037101    2.272769   -2.000456
    104          1           0        5.846847    0.820071   -2.842870
    105          1           0        6.740403    1.717857    0.016797
    106          1           0        6.244906    0.168857    0.794772
    107          1           0        7.468731   -1.011775   -1.224385
    108          1           0        7.808762    0.553858   -1.802533
    109          1           0        9.061994    1.030961    0.339033
    110          1           0        8.767988   -0.668629    0.725280
    111          1           0       10.163851    0.056296   -1.755606
    112          1           0        9.060075   -2.189732   -1.800832
    113          1           0       10.879534   -2.442190   -1.721225
    114          1           0       10.043197   -2.599176   -0.313977
    115          1           0       11.200693    0.721999    0.496101
    116          1           0       11.180596   -1.040078    0.908461
    117          1           0       12.773140   -1.360050   -0.990024
    118          1           0       13.067836    0.177441   -1.518387
    119          1           0       13.645143    0.730604    0.896978
    120          1           0       13.989279   -0.927997    0.925378
    121          1           0       15.175667    0.266217   -1.543475
    122          1           0       16.293897   -2.318618    0.216256
    123          1           0       14.895592   -2.523415   -1.018483
    124          1           0       16.679004   -1.694223   -1.515801
    125          1           0       15.848844    1.408903    0.794595
    126          1           0       16.638499   -0.325328    1.196049
    127          1           0       18.336765   -0.579115   -0.513674
    128          1           0       17.898474    1.032226   -1.086967
    129          1           0       18.647658    2.266506    0.804019
    130          1           0       18.987460    0.675095    1.626120
    131          1           0       20.803107    0.231992   -0.003548
    132          1           0       20.061099    3.070488   -0.976893
    133          1           0       21.371649    2.296510   -1.472675
    134          1           0       19.795841    1.790124   -1.915184
    135          1           0       20.911249    1.183931    1.962110
    136          1           0       22.182015    2.117415    0.813462
    137          1           0       20.785306    2.918113    1.528582
 ---------------------------------------------------------------------

 SCF Done:  E(RCAM-B3LYP) =  -2932.68840721     A.U. after   18 cycles

 Excitation energies and oscillator strengths:

 Excited State   1:      Singlet-A      2.0438 eV  606.64 nm  f=0.2214  <S**2>=0.000
     240 -> 243       -0.24242
     241 -> 242        0.65827
 This state for optimization and/or second-order correction.
 Total Energy, E(TD-HF/TD-KS) =  -2932.61329971
 Copying the excited state density for this state as the 1-particle RhoCI density.

 The electronic state is 1-A.
 Alpha  occ. eigenvalues --  -46.85461 -19.26332 -19.26268 -19.21457 -19.21267
 Alpha  occ. eigenvalues --  -19.20672 -14.41868 -14.39196 -14.38975 -14.38947
 Alpha  occ. eigenvalues --  -10.39313 -10.39075 -10.35233 -10.31968 -10.31759
 Alpha  occ. eigenvalues --  -10.31491 -10.30590 -10.29308 -10.29010 -10.28803
 Alpha  occ. eigenvalues --  -10.28771 -10.28504 -10.28500 -10.28420 -10.28400
 Alpha  occ. eigenvalues --  -10.28346 -10.28193 -10.27736 -10.27536 -10.27482
 Alpha  occ. eigenvalues --  -10.27413 -10.27163 -10.27148 -10.27137 -10.27114
 Alpha  occ. eigenvalues --  -10.27095 -10.27050 -10.26907 -10.26802 -10.26752
 Alpha  occ. eigenvalues --  -10.26705 -10.26536 -10.26491 -10.26273 -10.26143
 Alpha  occ. eigenvalues --  -10.26074 -10.25938 -10.25927 -10.25916 -10.25801
 Alpha  occ. eigenvalues --  -10.25600 -10.25560 -10.25413 -10.25275 -10.25172
 Alpha  occ. eigenvalues --  -10.24954 -10.24953 -10.24936 -10.24792 -10.24655
 Alpha  occ. eigenvalues --  -10.24609 -10.24581 -10.24436 -10.24418 -10.21604
 Alpha  occ. eigenvalues --   -3.14287  -1.89014  -1.88513  -1.88457  -1.17573
 Alpha  occ. eigenvalues --   -1.17452  -1.11973  -1.09108  -1.09054  -1.06485
 Alpha  occ. eigenvalues --   -1.05256  -1.04047  -1.03009  -0.92013  -0.91837
 Alpha  occ. eigenvalues --   -0.91025  -0.90530  -0.89847  -0.89225  -0.89171
 Alpha  occ. eigenvalues --   -0.88874  -0.88071  -0.87755  -0.87231  -0.86994
 Alpha  occ. eigenvalues --   -0.85408  -0.84735  -0.83488  -0.83147  -0.82333
 Alpha  occ. eigenvalues --   -0.81560  -0.80624  -0.80272  -0.79613  -0.79104
 Alpha  occ. eigenvalues --   -0.77271  -0.77201  -0.76510  -0.76314  -0.76089
 Alpha  occ. eigenvalues --   -0.75367  -0.74856  -0.73531  -0.73496  -0.72137
 Alpha  occ. eigenvalues --   -0.71387  -0.70796  -0.69106  -0.68848  -0.67689
 Alpha  occ. eigenvalues --   -0.66766  -0.66454  -0.65730  -0.65346  -0.64182
 Alpha  occ. eigenvalues --   -0.63861  -0.63554  -0.62943  -0.62275  -0.61726
 Alpha  occ. eigenvalues --   -0.61688  -0.61302  -0.60229  -0.59921  -0.59354
 Alpha  occ. eigenvalues --   -0.58612  -0.58149  -0.57957  -0.57141  -0.56489
 Alpha  occ. eigenvalues --   -0.56223  -0.55782  -0.55467  -0.55225  -0.54852
 Alpha  occ. eigenvalues --   -0.54668  -0.54500  -0.53908  -0.53632  -0.53289
 Alpha  occ. eigenvalues --   -0.53037  -0.52722  -0.52364  -0.52254  -0.51983
 Alpha  occ. eigenvalues --   -0.51548  -0.51368  -0.51267  -0.50937  -0.50611
 Alpha  occ. eigenvalues --   -0.50522  -0.50476  -0.50428  -0.49903  -0.49712
 Alpha  occ. eigenvalues --   -0.49510  -0.49283  -0.49175  -0.48923  -0.48773
 Alpha  occ. eigenvalues --   -0.48592  -0.48146  -0.47742  -0.47562  -0.47456
 Alpha  occ. eigenvalues --   -0.47280  -0.46785  -0.46360  -0.45991  -0.45886
 Alpha  occ. eigenvalues --   -0.45845  -0.45759  -0.45486  -0.45256  -0.45075
 Alpha  occ. eigenvalues --   -0.44842  -0.44669  -0.44645  -0.44438  -0.44296
 Alpha  occ. eigenvalues --   -0.44123  -0.43665  -0.43566  -0.43172  -0.43152
 Alpha  occ. eigenvalues --   -0.43079  -0.42876  -0.42633  -0.42482  -0.42260
 Alpha  occ. eigenvalues --   -0.42118  -0.42046  -0.41988  -0.41714  -0.41418
 Alpha  occ. eigenvalues --   -0.41290  -0.41178  -0.40806  -0.40562  -0.40239
 Alpha  occ. eigenvalues --   -0.40003  -0.39978  -0.39927  -0.39681  -0.39316
 Alpha  occ. eigenvalues --   -0.38866  -0.38678  -0.38315  -0.38288  -0.38030
 Alpha  occ. eigenvalues --   -0.37895  -0.37755  -0.37244  -0.36651  -0.36590
 Alpha  occ. eigenvalues --   -0.36418  -0.36319  -0.36188  -0.35852  -0.35785
 Alpha  occ. eigenvalues --   -0.35055  -0.34586  -0.34419  -0.34147  -0.33717
 Alpha  occ. eigenvalues --   -0.33244  -0.32970  -0.31942  -0.30211  -0.29705
 Alpha  occ. eigenvalues --   -0.29602  -0.29089  -0.27598  -0.26945  -0.22809
 Alpha  occ. eigenvalues --   -0.20602
 Alpha virt. eigenvalues --   -0.05821  -0.02769   0.02138   0.03909   0.04827
 Alpha virt. eigenvalues --    0.05462   0.05799   0.06250   0.06638   0.07468
 Alpha virt. eigenvalues --    0.08349   0.10585   0.11238   0.11793   0.11809

 Mulliken charges:
               1
     1  Mg   0.831133
     2  C    0.067779
     3  C   -0.217133
     4  C   -0.186950
     5  C   -0.186452
     6  N   -0.652141
     7  C    0.371506
     8  C   -0.188927
     9  C   -0.132017
    10  C    0.363814
    11  C   -0.316506
    12  C   -0.204471
    13  C   -0.266467
    14  C    0.629038
    15  O   -0.483360
    16  O   -0.496906
    17  N   -0.726554
    18  C    0.318726
    19  C    0.003141
    20  C   -0.022959
    21  C    0.362487
    22  C   -0.377150
    23  C   -0.046541
    24  C   -0.248440
    25  N   -0.661977
    26  C    0.261104
    27  C    0.018730
    28  C    0.021360
    29  C    0.271943
    30  C   -0.387752
    31  C   -0.232072
    32  C   -0.282269
    33  N   -0.707511
    34  C    0.240537
    35  C    0.057631
    36  C   -0.074985
    37  C    0.304494
    38  C   -0.375851
    39  C    0.402640
    40  O   -0.443477
    41  C   -0.346934
    42  C    0.619381
    43  O   -0.479119
    44  O   -0.460906
    45  C   -0.088566
    46  C    0.013943
    47  C   -0.126107
    48  C    0.098661
    49  C   -0.357178
    50  C   -0.207202
    51  C   -0.175108
    52  C   -0.185395
    53  C   -0.059731
    54  C   -0.316838
    55  C   -0.170846
    56  C   -0.195956
    57  C   -0.181758
    58  C   -0.037992
    59  C   -0.301921
    60  C   -0.158509
    61  C   -0.203222
    62  C   -0.167164
    63  C   -0.076412
    64  C   -0.312864
    65  C   -0.288147
    66  H    0.064360
    67  H    0.078790
    68  H    0.087480
    69  H    0.129345
    70  H    0.116223
    71  H    0.106327
    72  H    0.109919
    73  H    0.115614
    74  H    0.111575
    75  H    0.123000
    76  H    0.133896
    77  H    0.142234
    78  H    0.132178
    79  H    0.108940
    80  H    0.120577
    81  H    0.095095
    82  H    0.098801
    83  H    0.110102
    84  H    0.122616
    85  H    0.105584
    86  H    0.127237
    87  H    0.105783
    88  H    0.107101
    89  H    0.111260
    90  H    0.100748
    91  H    0.086656
    92  H    0.144748
    93  H    0.148379
    94  H    0.120749
    95  H    0.155993
    96  H    0.133201
    97  H    0.138518
    98  H    0.138418
    99  H    0.126614
   100  H    0.108288
   101  H    0.098302
   102  H    0.108702
   103  H    0.119144
   104  H    0.129950
   105  H    0.050553
   106  H    0.110418
   107  H    0.104845
   108  H    0.108916
   109  H    0.080643
   110  H    0.100798
   111  H    0.082325
   112  H    0.110135
   113  H    0.094840
   114  H    0.091140
   115  H    0.099299
   116  H    0.072734
   117  H    0.101747
   118  H    0.090512
   119  H    0.081464
   120  H    0.108753
   121  H    0.072928
   122  H    0.083415
   123  H    0.069463
   124  H    0.113577
   125  H    0.090094
   126  H    0.103375
   127  H    0.090576
   128  H    0.102898
   129  H    0.091296
   130  H    0.076270
   131  H    0.074026
   132  H    0.109553
   133  H    0.090049
   134  H    0.107812
   135  H    0.090332
   136  H    0.103818
   137  H    0.077643
 Sum of Mulliken charges =   0.00000

 Dipole moment (field-independent basis, Debye):
    X=              2.7099    Y=              3.2376    Z=              1.1483  Tot=              4.3753
 Quadrupole moment (field-independent basis, Debye-Ang):
   XX=           -355.8552   YY=           -394.4843   ZZ=           -401.3761
   XY=            -17.1670   XZ=              0.5920   YZ=             -1.0681

 Normal termination of Gaussian 09 at Sat Jun 29 02:27:20 2019.
