 Gaussian 09, Revision D.01,
 Gaussian 09:  ES64L-G09RevD.01 24-Apr-2013

 -------------------------------------
 # td=(NStates=1) CAM-B3LYP/6-31G(d,p)
 -------------------------------------

 --
 TD
 --
 Symbolic Z-matrix:
 Charge =  0 Multiplicity = 1

                         Standard orientation:
 ---------------------------------------------------------------------
 Center     Atomic      Atomic             Coordinates (Angstroms)
 Number     Number       Type             X           Y           Z
 ---------------------------------------------------------------------
      1         12           0       -7.135179    0.629053    0.210613
      2          6           0       -4.895429   -1.912454    0.516194
      3          6           0       -4.839008    2.769584    1.199893
      4          6           0       -9.376924    3.079488   -0.466358
      5          6           0       -9.569185   -1.818624   -0.834809
      6          7           0       -5.130547    0.481182    0.746534
      7          6           0       -4.349937   -0.682771    0.773717
      8          6           0       -2.878889   -0.404081    1.255902
      9          6           0       -2.980927    1.047999    1.690961
     10          6           0       -4.359160    1.556810    1.260993
     11          6           0       -3.071009    1.187312    3.253954
     12          6           0       -2.019249   -0.532104    0.008003
     13          6           0       -0.503399   -0.508597    0.532707
     14          6           0        0.480709   -0.689954   -0.661451
     15          8           0        0.213094   -0.975813   -1.801793
     16          8           0        1.728812   -0.483196   -0.305992
     17          7           0       -7.160889    2.599508    0.500133
     18          6           0       -6.071313    3.371640    0.846382
     19          6           0       -6.379542    4.729039    0.950623
     20          6           0       -7.696519    4.842641    0.448391
     21          6           0       -8.194890    3.505408    0.163461
     22          6           0       -5.507907    5.838468    1.363377
     23          6           0       -8.519985    6.078101    0.303638
     24          6           0       -8.080233    7.271191   -0.013453
     25          7           0       -9.127700    0.688633   -0.473746
     26          6           0       -9.832865    1.805332   -0.648047
     27          6           0      -11.198118    1.459327   -1.147755
     28          6           0      -11.217112    0.027612   -1.312135
     29          6           0       -9.922344   -0.457319   -0.836807
     30          6           0      -12.216263    2.398847   -1.591423
     31          6           0      -12.326098   -0.719135   -1.871743
     32          6           0      -12.176429   -1.030130   -3.348362
     33          7           0       -7.291237   -1.432129   -0.074488
     34          6           0       -8.328156   -2.343429   -0.417176
     35          6           0       -7.861745   -3.662872   -0.466255
     36          6           0       -6.479591   -3.522552   -0.157322
     37          6           0       -6.198344   -2.285182    0.094591
     38          6           0       -8.570251   -4.910923   -0.810555
     39          6           0       -5.204414   -4.344354    0.100995
     40          8           0       -5.101024   -5.575978    0.128281
     41          6           0       -4.039424   -3.260376    0.471018
     42          6           0       -3.563050   -3.593260    1.783212
     43          8           0       -3.869652   -2.904155    2.854723
     44          8           0       -2.758806   -4.698186    1.862990
     45          6           0       -2.219836   -5.093851    3.085734
     46          6           0        2.795904   -0.740578   -1.236840
     47          6           0        4.070964   -0.572772   -0.559044
     48          6           0        4.986795    0.345262   -0.893934
     49          6           0        5.092958    1.359381   -1.964253
     50          6           0        6.362449    0.258833   -0.079008
     51          6           0        7.584242   -0.136684   -0.855620
     52          6           0        8.897269    0.006273   -0.077816
     53          6           0       10.156197   -0.568463   -0.814780
     54          6           0       10.031518   -2.051562   -1.184225
     55          6           0       11.365930   -0.333580    0.002881
     56          6           0       12.776499   -0.601037   -0.673010
     57          6           0       13.916914   -0.105493    0.221255
     58          6           0       15.381106   -0.194374   -0.474972
     59          6           0       15.710691   -1.664574   -1.010759
     60          6           0       16.429754    0.437580    0.450285
     61          6           0       17.832602    0.427363   -0.185580
     62          6           0       18.748461    1.243431    0.714642
     63          6           0       20.244303    1.330881    0.200618
     64          6           0       20.340688    2.020865   -1.196090
     65          6           0       21.191936    2.107653    1.179966
     66          1           0       -4.180748    3.394105    1.730153
     67          1           0       -9.971543    3.940492   -0.749274
     68          1           0      -10.232973   -2.616932   -1.333168
     69          1           0       -2.917579   -1.169601    2.207973
     70          1           0       -2.279839    1.573094    1.226051
     71          1           0       -2.134703    0.961407    3.805750
     72          1           0       -3.275556    2.368468    3.326056
     73          1           0       -3.979134    0.719248    3.478168
     74          1           0       -2.308964   -1.442756   -0.701509
     75          1           0       -2.045225    0.249125   -0.795691
     76          1           0       -0.083979    0.430086    0.860176
     77          1           0       -0.182437   -1.420312    1.115364
     78          1           0       -4.796579    6.369497    0.557354
     79          1           0       -6.043285    6.739179    1.610239
     80          1           0       -4.750749    5.528016    2.049529
     81          1           0       -9.649871    5.718260    0.416130
     82          1           0       -8.900584    8.077071    0.083429
     83          1           0       -7.147788    7.712967    0.016472
     84          1           0      -11.825691    3.058150   -2.303130
     85          1           0      -13.114415    2.011297   -2.010915
     86          1           0      -12.579665    3.104182   -0.723994
     87          1           0      -12.389747   -1.431249   -0.935337
     88          1           0      -13.252162   -0.091714   -1.803556
     89          1           0      -12.824480   -1.673182   -3.841327
     90          1           0      -12.035560   -0.167538   -4.037677
     91          1           0      -11.253490   -1.651923   -3.529640
     92          1           0       -8.754095   -4.839286   -1.944833
     93          1           0       -8.147235   -5.872571   -0.547132
     94          1           0       -9.567575   -4.800328   -0.264882
     95          1           0       -3.157496   -3.347752   -0.170400
     96          1           0       -1.798251   -4.264332    3.356941
     97          1           0       -3.177068   -5.417602    3.726973
     98          1           0       -1.552959   -6.008469    2.773064
     99          1           0        2.676668   -1.718905   -1.788484
    100          1           0        2.614730    0.386236   -1.950247
    101          1           0        4.240897   -1.363084    0.291243
    102          1           0        4.122201    1.455788   -2.586083
    103          1           0        5.476374    2.358214   -1.570911
    104          1           0        5.889733    0.991707   -2.794311
    105          1           0        6.649384    1.216485    0.257957
    106          1           0        6.273459   -0.386582    0.856486
    107          1           0        7.353097   -1.141469   -1.276692
    108          1           0        7.497116    0.578585   -1.662873
    109          1           0        9.128991    1.126225    0.080432
    110          1           0        8.495172   -0.593866    0.863580
    111          1           0       10.342650   -0.045261   -1.742426
    112          1           0        9.365437   -2.371058   -1.999029
    113          1           0       11.006247   -2.542161   -1.546908
    114          1           0        9.753950   -2.699110   -0.386009
    115          1           0       11.146624    0.786849    0.421315
    116          1           0       11.298257   -0.868828    0.917081
    117          1           0       12.858824   -1.646675   -0.778135
    118          1           0       12.764103   -0.261456   -1.620721
    119          1           0       13.814370    0.983138    0.377684
    120          1           0       13.881413   -0.562505    1.305896
    121          1           0       15.448485    0.515712   -1.284199
    122          1           0       15.781008   -2.177059   -0.157196
    123          1           0       15.121614   -2.142587   -1.688673
    124          1           0       16.778899   -1.749596   -1.580495
    125          1           0       16.302104    1.387381    0.486530
    126          1           0       16.443980   -0.120467    1.451013
    127          1           0       18.307090   -0.538327   -0.638074
    128          1           0       18.014229    0.901121   -1.049964
    129          1           0       18.425951    2.387149    0.747582
    130          1           0       18.822987    0.983673    1.762994
    131          1           0       20.692701    0.440132    0.111031
    132          1           0       20.134809    3.044707   -1.126925
    133          1           0       21.408540    1.937389   -1.547170
    134          1           0       19.927780    1.652351   -2.075827
    135          1           0       21.275791    1.580431    1.981691
    136          1           0       22.306727    2.054733    0.787071
    137          1           0       20.862340    3.020128    1.679469
 ---------------------------------------------------------------------

 SCF Done:  E(RCAM-B3LYP) =  -2932.63166388     A.U. after   18 cycles

 Excitation energies and oscillator strengths:

 Excited State   1:      Singlet-A      1.9859 eV  624.33 nm  f=0.3029  <S**2>=0.000
     240 -> 242        0.16798
     240 -> 243       -0.20823
     241 -> 242        0.64390
 This state for optimization and/or second-order correction.
 Total Energy, E(TD-HF/TD-KS) =  -2932.55868391
 Copying the excited state density for this state as the 1-particle RhoCI density.

 The electronic state is 1-A.
 Alpha  occ. eigenvalues --  -46.83291 -19.26104 -19.25577 -19.21168 -19.20098
 Alpha  occ. eigenvalues --  -19.19423 -14.40554 -14.39515 -14.39083 -14.37877
 Alpha  occ. eigenvalues --  -10.39680 -10.37907 -10.36506 -10.33854 -10.31487
 Alpha  occ. eigenvalues --  -10.29908 -10.29827 -10.29711 -10.29667 -10.29574
 Alpha  occ. eigenvalues --  -10.29174 -10.29103 -10.28720 -10.28622 -10.28571
 Alpha  occ. eigenvalues --  -10.28538 -10.28500 -10.28316 -10.28165 -10.27751
 Alpha  occ. eigenvalues --  -10.27648 -10.27454 -10.27411 -10.27275 -10.27270
 Alpha  occ. eigenvalues --  -10.27206 -10.27010 -10.26959 -10.26680 -10.26634
 Alpha  occ. eigenvalues --  -10.26539 -10.26408 -10.26364 -10.26350 -10.26305
 Alpha  occ. eigenvalues --  -10.26265 -10.26217 -10.26180 -10.26054 -10.25567
 Alpha  occ. eigenvalues --  -10.25495 -10.25495 -10.25466 -10.25431 -10.25197
 Alpha  occ. eigenvalues --  -10.24851 -10.24477 -10.24457 -10.24341 -10.24317
 Alpha  occ. eigenvalues --  -10.24283 -10.24214 -10.23892 -10.23628 -10.23121
 Alpha  occ. eigenvalues --   -3.12304  -1.87016  -1.86541  -1.86483  -1.18910
 Alpha  occ. eigenvalues --   -1.17278  -1.10182  -1.08328  -1.05445  -1.02993
 Alpha  occ. eigenvalues --   -1.02335  -1.01550  -1.00711  -0.91784  -0.91461
 Alpha  occ. eigenvalues --   -0.90243  -0.89673  -0.89559  -0.89283  -0.88809
 Alpha  occ. eigenvalues --   -0.88371  -0.87482  -0.87399  -0.86461  -0.86269
 Alpha  occ. eigenvalues --   -0.85473  -0.84513  -0.84284  -0.83384  -0.83100
 Alpha  occ. eigenvalues --   -0.81865  -0.81476  -0.80420  -0.80007  -0.78074
 Alpha  occ. eigenvalues --   -0.77945  -0.77340  -0.76569  -0.76286  -0.75840
 Alpha  occ. eigenvalues --   -0.75576  -0.75197  -0.74472  -0.73123  -0.72717
 Alpha  occ. eigenvalues --   -0.71340  -0.70845  -0.70260  -0.69440  -0.67903
 Alpha  occ. eigenvalues --   -0.67250  -0.66726  -0.65769  -0.64930  -0.64389
 Alpha  occ. eigenvalues --   -0.64076  -0.63566  -0.63523  -0.62505  -0.62004
 Alpha  occ. eigenvalues --   -0.61566  -0.60503  -0.60149  -0.59193  -0.58722
 Alpha  occ. eigenvalues --   -0.58122  -0.57897  -0.57598  -0.57017  -0.56956
 Alpha  occ. eigenvalues --   -0.55912  -0.55369  -0.55242  -0.55038  -0.54446
 Alpha  occ. eigenvalues --   -0.53987  -0.53708  -0.53455  -0.53268  -0.52955
 Alpha  occ. eigenvalues --   -0.52892  -0.52474  -0.52265  -0.51710  -0.51629
 Alpha  occ. eigenvalues --   -0.51481  -0.51059  -0.50650  -0.50604  -0.50481
 Alpha  occ. eigenvalues --   -0.50145  -0.49884  -0.49749  -0.49629  -0.49249
 Alpha  occ. eigenvalues --   -0.48930  -0.48746  -0.48581  -0.48493  -0.48268
 Alpha  occ. eigenvalues --   -0.48207  -0.47948  -0.47776  -0.47668  -0.47342
 Alpha  occ. eigenvalues --   -0.47121  -0.47030  -0.46636  -0.46349  -0.45746
 Alpha  occ. eigenvalues --   -0.45678  -0.45394  -0.45259  -0.45194  -0.44737
 Alpha  occ. eigenvalues --   -0.44602  -0.44580  -0.44478  -0.44101  -0.43976
 Alpha  occ. eigenvalues --   -0.43957  -0.43431  -0.43353  -0.43014  -0.42873
 Alpha  occ. eigenvalues --   -0.42824  -0.42596  -0.42521  -0.42371  -0.42173
 Alpha  occ. eigenvalues --   -0.41646  -0.41482  -0.41193  -0.41103  -0.40990
 Alpha  occ. eigenvalues --   -0.40825  -0.40534  -0.40524  -0.40272  -0.39891
 Alpha  occ. eigenvalues --   -0.39570  -0.39525  -0.39397  -0.38943  -0.38854
 Alpha  occ. eigenvalues --   -0.38657  -0.38300  -0.38235  -0.37793  -0.37563
 Alpha  occ. eigenvalues --   -0.37497  -0.37368  -0.37181  -0.37121  -0.36760
 Alpha  occ. eigenvalues --   -0.36723  -0.36591  -0.36233  -0.35697  -0.35641
 Alpha  occ. eigenvalues --   -0.35170  -0.34339  -0.34003  -0.33226  -0.32831
 Alpha  occ. eigenvalues --   -0.32730  -0.32403  -0.32052  -0.31122  -0.30295
 Alpha  occ. eigenvalues --   -0.29962  -0.28047  -0.27584  -0.26737  -0.22872
 Alpha  occ. eigenvalues --   -0.21590
 Alpha virt. eigenvalues --   -0.07469  -0.02797   0.01904   0.03857   0.04954
 Alpha virt. eigenvalues --    0.05429   0.06619   0.07093   0.07391   0.08107
 Alpha virt. eigenvalues --    0.08716   0.10592   0.11128   0.11408   0.11990

 Mulliken charges:
               1
     1  Mg   0.802657
     2  C    0.065785
     3  C   -0.198815
     4  C   -0.169411
     5  C   -0.183201
     6  N   -0.631525
     7  C    0.248989
     8  C   -0.146781
     9  C   -0.108186
    10  C    0.302063
    11  C   -0.295686
    12  C   -0.193745
    13  C   -0.248465
    14  C    0.549903
    15  O   -0.482501
    16  O   -0.455455
    17  N   -0.720242
    18  C    0.320750
    19  C    0.078318
    20  C   -0.026924
    21  C    0.283900
    22  C   -0.378525
    23  C   -0.066463
    24  C   -0.244336
    25  N   -0.688988
    26  C    0.354121
    27  C    0.019574
    28  C    0.015396
    29  C    0.284671
    30  C   -0.387914
    31  C   -0.240281
    32  C   -0.320786
    33  N   -0.721906
    34  C    0.266695
    35  C    0.009374
    36  C   -0.011137
    37  C    0.317962
    38  C   -0.371074
    39  C    0.379085
    40  O   -0.453564
    41  C   -0.332918
    42  C    0.632529
    43  O   -0.522025
    44  O   -0.451459
    45  C   -0.055193
    46  C    0.020323
    47  C   -0.120234
    48  C    0.143471
    49  C   -0.367065
    50  C   -0.231786
    51  C   -0.173955
    52  C   -0.169617
    53  C   -0.043772
    54  C   -0.329200
    55  C   -0.165679
    56  C   -0.178028
    57  C   -0.179359
    58  C   -0.078790
    59  C   -0.310874
    60  C   -0.149646
    61  C   -0.188699
    62  C   -0.176105
    63  C   -0.061028
    64  C   -0.320476
    65  C   -0.323802
    66  H    0.056672
    67  H    0.090542
    68  H    0.109184
    69  H    0.160629
    70  H    0.100957
    71  H    0.113644
    72  H    0.077758
    73  H    0.145536
    74  H    0.117654
    75  H    0.132448
    76  H    0.142632
    77  H    0.136485
    78  H    0.099712
    79  H    0.125764
    80  H    0.122490
    81  H    0.096232
    82  H    0.090720
    83  H    0.113746
    84  H    0.132335
    85  H    0.118193
    86  H    0.098460
    87  H    0.109143
    88  H    0.104292
    89  H    0.117572
    90  H    0.117730
    91  H    0.099857
    92  H    0.122692
    93  H    0.153474
    94  H    0.113692
    95  H    0.165620
    96  H    0.133827
    97  H    0.122130
    98  H    0.121997
    99  H    0.137393
   100  H    0.071563
   101  H    0.095909
   102  H    0.109078
   103  H    0.124471
   104  H    0.120795
   105  H    0.097220
   106  H    0.080506
   107  H    0.096120
   108  H    0.085797
   109  H    0.089281
   110  H    0.083805
   111  H    0.091185
   112  H    0.101014
   113  H    0.086877
   114  H    0.106440
   115  H    0.050902
   116  H    0.095500
   117  H    0.108501
   118  H    0.100654
   119  H    0.092685
   120  H    0.077339
   121  H    0.084508
   122  H    0.117558
   123  H    0.111942
   124  H    0.068692
   125  H    0.110495
   126  H    0.085035
   127  H    0.076711
   128  H    0.111285
   129  H    0.067987
   130  H    0.088301
   131  H    0.099340
   132  H    0.109769
   133  H    0.081660
   134  H    0.102361
   135  H    0.114466
   136  H    0.083909
   137  H    0.099178
 Sum of Mulliken charges =   0.00000

 Dipole moment (field-independent basis, Debye):
    X=              2.0855    Y=              3.8453    Z=             -0.4568  Tot=              4.3982
 Quadrupole moment (field-independent basis, Debye-Ang):
   XX=           -346.2304   YY=           -385.8680   ZZ=           -397.8543
   XY=            -24.1169   XZ=             14.9221   YZ=             -0.4338

 Normal termination of Gaussian 09 at Fri Jun 28 10:42:05 2019.
