 Gaussian 09, Revision D.01,
 Gaussian 09:  ES64L-G09RevD.01 24-Apr-2013

 -------------------------------------
 # td=(NStates=1) CAM-B3LYP/6-31G(d,p)
 -------------------------------------

 --
 TD
 --
 Symbolic Z-matrix:
 Charge =  0 Multiplicity = 1

                         Standard orientation:
 ---------------------------------------------------------------------
 Center     Atomic      Atomic             Coordinates (Angstroms)
 Number     Number       Type             X           Y           Z
 ---------------------------------------------------------------------
      1         12           0       -7.120610    0.641082    0.023175
      2          6           0       -4.884032   -1.922331    0.428266
      3          6           0       -4.705220    2.757235    1.040402
      4          6           0       -9.408717    3.081532   -0.251041
      5          6           0       -9.546328   -1.714487   -1.014963
      6          7           0       -5.073220    0.392986    0.644090
      7          6           0       -4.416807   -0.705465    0.806082
      8          6           0       -2.921911   -0.428180    1.177206
      9          6           0       -3.059024    0.999014    1.621286
     10          6           0       -4.367438    1.494994    1.103409
     11          6           0       -3.010044    1.176000    3.110083
     12          6           0       -1.885405   -0.690447    0.008786
     13          6           0       -0.546068   -0.568629    0.502754
     14          6           0        0.490106   -0.692766   -0.599786
     15          8           0        0.154354   -0.955776   -1.708217
     16          8           0        1.724381   -0.452599   -0.152108
     17          7           0       -7.007845    2.615609    0.333108
     18          6           0       -5.971649    3.335083    0.855666
     19          6           0       -6.363576    4.728651    0.921083
     20          6           0       -7.576766    4.821056    0.483595
     21          6           0       -8.124731    3.488583    0.125223
     22          6           0       -5.542108    5.748355    1.599404
     23          6           0       -8.486314    5.971083    0.337055
     24          6           0       -8.152745    7.238805    0.185142
     25          7           0       -9.104838    0.644534   -0.435997
     26          6           0       -9.842546    1.825687   -0.597461
     27          6           0      -11.220066    1.540310   -1.096543
     28          6           0      -11.307946    0.150648   -1.266424
     29          6           0      -10.001510   -0.377823   -0.884439
     30          6           0      -12.276907    2.554641   -1.211466
     31          6           0      -12.344564   -0.723324   -1.790995
     32          6           0      -12.270810   -0.918642   -3.315891
     33          7           0       -7.171460   -1.356674   -0.129188
     34          6           0       -8.294468   -2.152591   -0.595945
     35          6           0       -7.846651   -3.548961   -0.653170
     36          6           0       -6.525193   -3.536975   -0.131092
     37          6           0       -6.165298   -2.178873    0.050927
     38          6           0       -8.660559   -4.740198   -0.915994
     39          6           0       -5.379353   -4.356937    0.144251
     40          8           0       -5.321593   -5.589579    0.135992
     41          6           0       -4.234156   -3.351353    0.522520
     42          6           0       -3.704941   -3.817374    1.836373
     43          8           0       -3.950802   -3.207113    2.910583
     44          8           0       -2.749905   -4.749464    1.775290
     45          6           0       -2.314543   -5.311706    3.015370
     46          6           0        2.729318   -0.543882   -1.178492
     47          6           0        4.038825   -0.329247   -0.461914
     48          6           0        5.001910    0.452160   -0.998306
     49          6           0        4.950724    1.146153   -2.224200
     50          6           0        6.344057    0.436289   -0.145472
     51          6           0        7.632361   -0.100565   -0.955496
     52          6           0        8.884880    0.062803   -0.142551
     53          6           0       10.198845   -0.360558   -0.893830
     54          6           0       10.313748   -1.845255   -1.329259
     55          6           0       11.465137   -0.205535    0.004939
     56          6           0       12.777896   -0.398023   -0.698152
     57          6           0       14.041229   -0.153173    0.155223
     58          6           0       15.362927   -0.348189   -0.471001
     59          6           0       15.696086   -1.781996   -0.762004
     60          6           0       16.448246    0.202966    0.432551
     61          6           0       17.944873    0.379103   -0.151728
     62          6           0       18.868453    1.254223    0.716341
     63          6           0       20.255161    1.321450    0.170353
     64          6           0       20.382900    2.203602   -1.068349
     65          6           0       21.239282    1.852553    1.290768
     66          1           0       -3.967908    3.305671    1.464883
     67          1           0      -10.065878    3.717340   -0.129653
     68          1           0      -10.423018   -2.503491   -1.316023
     69          1           0       -2.493344   -1.292599    1.808378
     70          1           0       -2.222198    1.503265    1.202423
     71          1           0       -1.909736    0.718962    3.442540
     72          1           0       -2.943983    2.185968    3.559188
     73          1           0       -3.878352    0.634280    3.700854
     74          1           0       -2.071300   -1.791374   -0.300597
     75          1           0       -2.150756    0.169447   -0.681340
     76          1           0       -0.181770    0.240302    1.107818
     77          1           0       -0.373998   -1.414412    1.304604
     78          1           0       -4.941562    6.232747    0.812595
     79          1           0       -6.228737    6.584070    2.012625
     80          1           0       -4.971082    5.211319    2.335816
     81          1           0       -9.490619    5.797673    0.637757
     82          1           0       -8.859782    7.968132    0.325922
     83          1           0       -7.254104    7.577118    0.021898
     84          1           0      -12.210005    3.289317   -2.030237
     85          1           0      -13.219263    1.944707   -1.299005
     86          1           0      -12.261079    3.252162   -0.270147
     87          1           0      -12.527993   -1.686781   -1.192463
     88          1           0      -13.207841   -0.221573   -1.671213
     89          1           0      -13.055922   -1.564221   -3.651283
     90          1           0      -12.051901    0.152626   -3.730937
     91          1           0      -11.438322   -1.418656   -3.504506
     92          1           0       -9.206964   -4.668138   -1.866265
     93          1           0       -7.976718   -5.481511   -0.824203
     94          1           0       -9.504636   -5.044444    0.004900
     95          1           0       -3.367155   -3.406367   -0.280182
     96          1           0       -2.058039   -4.418856    3.638824
     97          1           0       -3.267834   -5.771171    3.414619
     98          1           0       -1.470108   -6.037738    2.615317
     99          1           0        2.706172   -1.510568   -1.619453
    100          1           0        2.709821    0.214338   -2.065383
    101          1           0        4.271467   -0.736696    0.525826
    102          1           0        3.860714    1.445546   -2.790554
    103          1           0        5.643879    2.365080   -2.250875
    104          1           0        5.610542    0.436432   -2.897082
    105          1           0        6.330091    1.507687    0.150084
    106          1           0        6.154056   -0.291302    0.680023
    107          1           0        7.516379   -1.261935   -1.230583
    108          1           0        7.800331    0.286631   -1.948141
    109          1           0        9.237575    1.206904    0.209423
    110          1           0        8.877675   -0.533006    0.804427
    111          1           0       10.563805    0.281074   -1.793656
    112          1           0        9.174449   -2.224691   -1.921114
    113          1           0       11.135708   -1.969493   -1.992586
    114          1           0       10.493282   -2.564908   -0.523824
    115          1           0       11.364885    0.872811    0.556205
    116          1           0       11.419099   -0.978413    0.825572
    117          1           0       12.734696   -1.489272   -0.926080
    118          1           0       12.865047    0.426266   -1.415180
    119          1           0       14.075985    0.977346    0.334516
    120          1           0       13.870727   -0.390263    1.267027
    121          1           0       15.505031    0.265398   -1.234609
    122          1           0       15.742706   -2.381302    0.075877
    123          1           0       14.928383   -2.244348   -1.494177
    124          1           0       16.862981   -1.837645   -1.021839
    125          1           0       16.147795    1.221033    0.793294
    126          1           0       16.521335   -0.333620    1.251247
    127          1           0       18.340944   -0.601035   -0.380695
    128          1           0       17.854155    0.845562   -1.177222
    129          1           0       18.514377    2.349352    0.750262
    130          1           0       19.011577    0.836652    1.808576
    131          1           0       20.496908    0.326238   -0.219451
    132          1           0       20.165839    3.245989   -1.026048
    133          1           0       21.550421    2.167256   -1.505393
    134          1           0       19.771058    1.849044   -1.905529
    135          1           0       21.131616    1.147639    2.316390
    136          1           0       22.283330    1.818915    0.974673
    137          1           0       20.853022    2.842656    1.464064
 ---------------------------------------------------------------------

 SCF Done:  E(RCAM-B3LYP) =  -2932.64330029     A.U. after   17 cycles

 Excitation energies and oscillator strengths:

 Excited State   1:      Singlet-A      2.0328 eV  609.92 nm  f=0.2740  <S**2>=0.000
     240 -> 243       -0.24332
     241 -> 242        0.65685
 This state for optimization and/or second-order correction.
 Total Energy, E(TD-HF/TD-KS) =  -2932.56859590
 Copying the excited state density for this state as the 1-particle RhoCI density.

 The electronic state is 1-A.
 Alpha  occ. eigenvalues --  -46.83180 -19.26831 -19.25864 -19.20668 -19.19972
 Alpha  occ. eigenvalues --  -19.19664 -14.40577 -14.39652 -14.39648 -14.38723
 Alpha  occ. eigenvalues --  -10.38883 -10.38496 -10.34730 -10.32256 -10.31971
 Alpha  occ. eigenvalues --  -10.30768 -10.30098 -10.29817 -10.29728 -10.29481
 Alpha  occ. eigenvalues --  -10.29450 -10.29255 -10.28997 -10.28829 -10.28828
 Alpha  occ. eigenvalues --  -10.28730 -10.27782 -10.27744 -10.27563 -10.27498
 Alpha  occ. eigenvalues --  -10.27435 -10.27307 -10.27257 -10.27165 -10.27127
 Alpha  occ. eigenvalues --  -10.27124 -10.27106 -10.26988 -10.26689 -10.26542
 Alpha  occ. eigenvalues --  -10.26505 -10.26404 -10.26404 -10.26338 -10.26204
 Alpha  occ. eigenvalues --  -10.26201 -10.26147 -10.25926 -10.25864 -10.25854
 Alpha  occ. eigenvalues --  -10.25800 -10.25789 -10.25638 -10.25604 -10.25516
 Alpha  occ. eigenvalues --  -10.25380 -10.25377 -10.25367 -10.24889 -10.24717
 Alpha  occ. eigenvalues --  -10.24651 -10.24464 -10.24180 -10.24127 -10.23798
 Alpha  occ. eigenvalues --   -3.12386  -1.87087  -1.86635  -1.86563  -1.19242
 Alpha  occ. eigenvalues --   -1.17762  -1.10669  -1.09770  -1.06545  -1.05353
 Alpha  occ. eigenvalues --   -1.02843  -1.02639  -1.00431  -0.92226  -0.91679
 Alpha  occ. eigenvalues --   -0.91359  -0.90823  -0.90065  -0.89762  -0.89736
 Alpha  occ. eigenvalues --   -0.89015  -0.88935  -0.88233  -0.87603  -0.86162
 Alpha  occ. eigenvalues --   -0.85388  -0.84960  -0.83710  -0.83639  -0.82719
 Alpha  occ. eigenvalues --   -0.81600  -0.81505  -0.80771  -0.79815  -0.78654
 Alpha  occ. eigenvalues --   -0.77454  -0.77405  -0.75968  -0.75729  -0.75172
 Alpha  occ. eigenvalues --   -0.75001  -0.74851  -0.73963  -0.73041  -0.72565
 Alpha  occ. eigenvalues --   -0.71637  -0.70732  -0.70296  -0.68874  -0.68393
 Alpha  occ. eigenvalues --   -0.67447  -0.66940  -0.65713  -0.65081  -0.64862
 Alpha  occ. eigenvalues --   -0.63746  -0.63573  -0.63213  -0.62563  -0.62045
 Alpha  occ. eigenvalues --   -0.61759  -0.61113  -0.60468  -0.59560  -0.58914
 Alpha  occ. eigenvalues --   -0.58425  -0.58169  -0.57782  -0.57314  -0.56826
 Alpha  occ. eigenvalues --   -0.56268  -0.55533  -0.55376  -0.55151  -0.54939
 Alpha  occ. eigenvalues --   -0.54676  -0.54347  -0.53213  -0.53069  -0.52912
 Alpha  occ. eigenvalues --   -0.52826  -0.52703  -0.52577  -0.52213  -0.51958
 Alpha  occ. eigenvalues --   -0.51611  -0.51547  -0.51324  -0.50996  -0.50876
 Alpha  occ. eigenvalues --   -0.50400  -0.50196  -0.49858  -0.49805  -0.49699
 Alpha  occ. eigenvalues --   -0.49574  -0.49052  -0.48901  -0.48311  -0.48209
 Alpha  occ. eigenvalues --   -0.47970  -0.47903  -0.47611  -0.47383  -0.47122
 Alpha  occ. eigenvalues --   -0.46905  -0.46633  -0.46312  -0.46084  -0.46036
 Alpha  occ. eigenvalues --   -0.45915  -0.45563  -0.45413  -0.45218  -0.44968
 Alpha  occ. eigenvalues --   -0.44822  -0.44596  -0.44567  -0.44352  -0.44189
 Alpha  occ. eigenvalues --   -0.43957  -0.43737  -0.43553  -0.43392  -0.43240
 Alpha  occ. eigenvalues --   -0.43066  -0.42906  -0.42517  -0.42353  -0.42125
 Alpha  occ. eigenvalues --   -0.41766  -0.41754  -0.41516  -0.41319  -0.41300
 Alpha  occ. eigenvalues --   -0.41009  -0.40806  -0.40501  -0.40483  -0.40366
 Alpha  occ. eigenvalues --   -0.40055  -0.39846  -0.39534  -0.39376  -0.39121
 Alpha  occ. eigenvalues --   -0.38868  -0.38532  -0.38470  -0.38201  -0.38003
 Alpha  occ. eigenvalues --   -0.37858  -0.37052  -0.36776  -0.36738  -0.36606
 Alpha  occ. eigenvalues --   -0.36571  -0.36137  -0.35890  -0.35759  -0.35540
 Alpha  occ. eigenvalues --   -0.35355  -0.34965  -0.34731  -0.33914  -0.33667
 Alpha  occ. eigenvalues --   -0.32800  -0.32466  -0.32177  -0.31128  -0.29840
 Alpha  occ. eigenvalues --   -0.29130  -0.28994  -0.28502  -0.27837  -0.23440
 Alpha  occ. eigenvalues --   -0.21025
 Alpha virt. eigenvalues --   -0.06475  -0.03201   0.01723   0.04692   0.05655
 Alpha virt. eigenvalues --    0.05862   0.06058   0.06830   0.06974   0.07859
 Alpha virt. eigenvalues --    0.08421   0.10333   0.10572   0.10791   0.10844

 Mulliken charges:
               1
     1  Mg   0.808486
     2  C    0.058248
     3  C   -0.164093
     4  C   -0.097812
     5  C   -0.181006
     6  N   -0.644542
     7  C    0.347001
     8  C   -0.140025
     9  C   -0.161161
    10  C    0.349131
    11  C   -0.289477
    12  C   -0.160259
    13  C   -0.275695
    14  C    0.624839
    15  O   -0.459740
    16  O   -0.471597
    17  N   -0.711745
    18  C    0.296741
    19  C    0.004577
    20  C    0.032907
    21  C    0.257110
    22  C   -0.362492
    23  C   -0.085271
    24  C   -0.222559
    25  N   -0.679273
    26  C    0.290115
    27  C    0.029294
    28  C    0.038520
    29  C    0.257870
    30  C   -0.381335
    31  C   -0.259175
    32  C   -0.302876
    33  N   -0.743896
    34  C    0.270508
    35  C    0.017297
    36  C    0.026141
    37  C    0.327565
    38  C   -0.359054
    39  C    0.347638
    40  O   -0.480476
    41  C   -0.330509
    42  C    0.625828
    43  O   -0.505150
    44  O   -0.445774
    45  C   -0.082720
    46  C    0.014018
    47  C   -0.137455
    48  C    0.131846
    49  C   -0.349036
    50  C   -0.209028
    51  C   -0.187363
    52  C   -0.143781
    53  C   -0.055849
    54  C   -0.298117
    55  C   -0.179134
    56  C   -0.166631
    57  C   -0.194515
    58  C   -0.024200
    59  C   -0.306712
    60  C   -0.194093
    61  C   -0.199719
    62  C   -0.146986
    63  C   -0.057475
    64  C   -0.308943
    65  C   -0.292466
    66  H    0.066171
    67  H    0.039854
    68  H    0.102639
    69  H    0.105714
    70  H    0.107019
    71  H    0.073922
    72  H    0.108048
    73  H    0.120999
    74  H    0.115867
    75  H    0.109801
    76  H    0.135799
    77  H    0.115909
    78  H    0.125266
    79  H    0.115595
    80  H    0.120754
    81  H    0.096709
    82  H    0.097301
    83  H    0.095807
    84  H    0.128482
    85  H    0.113643
    86  H    0.109300
    87  H    0.098883
    88  H    0.111317
    89  H    0.108688
    90  H    0.102248
    91  H    0.124402
    92  H    0.121746
    93  H    0.158936
    94  H    0.096422
    95  H    0.153049
    96  H    0.141369
    97  H    0.138341
    98  H    0.125349
    99  H    0.136274
   100  H    0.103058
   101  H    0.092562
   102  H    0.110466
   103  H    0.054804
   104  H    0.128572
   105  H    0.114239
   106  H    0.104302
   107  H    0.089353
   108  H    0.109447
   109  H    0.069788
   110  H    0.097466
   111  H    0.080079
   112  H    0.038054
   113  H    0.123422
   114  H    0.106128
   115  H    0.053833
   116  H    0.082285
   117  H    0.101229
   118  H    0.100780
   119  H    0.074097
   120  H    0.082124
   121  H    0.097162
   122  H    0.114310
   123  H    0.090203
   124  H    0.075685
   125  H    0.077386
   126  H    0.102852
   127  H    0.098043
   128  H    0.086304
   129  H    0.082450
   130  H    0.079736
   131  H    0.089594
   132  H    0.106645
   133  H    0.065607
   134  H    0.103926
   135  H    0.067855
   136  H    0.107374
   137  H    0.110693
 Sum of Mulliken charges =   0.00000

 Dipole moment (field-independent basis, Debye):
    X=              1.8391    Y=              4.6836    Z=              0.0983  Tot=              5.0327
 Quadrupole moment (field-independent basis, Debye-Ang):
   XX=           -337.8213   YY=           -391.9292   ZZ=           -401.8768
   XY=            -24.2649   XZ=              8.6617   YZ=             -0.1057

 Normal termination of Gaussian 09 at Fri Jun 28 05:39:32 2019.
