 Gaussian 09, Revision D.01,
 Gaussian 09:  ES64L-G09RevD.01 24-Apr-2013

 -------------------------------------
 # td=(NStates=1) CAM-B3LYP/6-31G(d,p)
 -------------------------------------

 --
 TD
 --
 Symbolic Z-matrix:
 Charge =  0 Multiplicity = 1

                         Standard orientation:
 ---------------------------------------------------------------------
 Center     Atomic      Atomic             Coordinates (Angstroms)
 Number     Number       Type             X           Y           Z
 ---------------------------------------------------------------------
      1         12           0       -7.132118    0.553391    0.092551
      2          6           0       -4.840726   -1.940752    0.501483
      3          6           0       -4.861290    2.860882    1.183214
      4          6           0       -9.458870    3.059631   -0.398458
      5          6           0       -9.506882   -1.761910   -0.866529
      6          7           0       -5.142452    0.420623    0.664328
      7          6           0       -4.314477   -0.666387    0.775659
      8          6           0       -2.925558   -0.454296    1.284925
      9          6           0       -3.048014    1.084968    1.644404
     10          6           0       -4.392731    1.513369    1.071692
     11          6           0       -3.141367    1.314922    3.157929
     12          6           0       -1.945973   -0.642885    0.101312
     13          6           0       -0.427317   -0.265209    0.555057
     14          6           0        0.559582   -0.639962   -0.509095
     15          8           0        0.267394   -1.025662   -1.683757
     16          8           0        1.804234   -0.419759   -0.119953
     17          7           0       -7.075279    2.623312    0.420173
     18          6           0       -6.113457    3.417556    0.849608
     19          6           0       -6.504937    4.805849    0.966292
     20          6           0       -7.780865    4.729567    0.431983
     21          6           0       -8.198491    3.422310    0.126666
     22          6           0       -5.577152    5.904690    1.402507
     23          6           0       -8.605010    5.878255    0.339626
     24          6           0       -8.229634    7.146915   -0.098551
     25          7           0       -9.116199    0.676317   -0.597779
     26          6           0       -9.925583    1.860040   -0.654888
     27          6           0      -11.258451    1.380227   -1.025038
     28          6           0      -11.292338   -0.018424   -1.118699
     29          6           0       -9.917701   -0.373867   -0.900796
     30          6           0      -12.319209    2.506682   -1.271677
     31          6           0      -12.449310   -0.780180   -1.742522
     32          6           0      -12.281523   -1.230949   -3.233502
     33          7           0       -7.182595   -1.411211   -0.278286
     34          6           0       -8.292089   -2.179535   -0.626499
     35          6           0       -7.800777   -3.683909   -0.659813
     36          6           0       -6.474809   -3.624263   -0.143071
     37          6           0       -6.158430   -2.294444    0.024048
     38          6           0       -8.667192   -4.880472   -0.827317
     39          6           0       -5.322573   -4.406752    0.051064
     40          8           0       -4.995266   -5.622630   -0.007049
     41          6           0       -4.273895   -3.373106    0.499052
     42          6           0       -3.581930   -3.711072    1.816368
     43          8           0       -3.784238   -3.171724    2.899877
     44          8           0       -2.696481   -4.696839    1.710626
     45          6           0       -2.088049   -5.152342    2.886114
     46          6           0        2.867670   -0.506163   -1.079796
     47          6           0        4.189907   -0.253950   -0.491151
     48          6           0        5.175865    0.546168   -0.881351
     49          6           0        5.091526    1.510540   -2.050769
     50          6           0        6.461092    0.582756   -0.052857
     51          6           0        7.579284   -0.130197   -0.886394
     52          6           0        8.896928    0.039428   -0.035247
     53          6           0       10.223998   -0.520171   -0.794610
     54          6           0        9.965349   -1.952842   -1.369367
     55          6           0       11.454962   -0.302512    0.089746
     56          6           0       12.805619   -0.491204   -0.588773
     57          6           0       13.943327   -0.032712    0.310131
     58          6           0       15.374677   -0.346047   -0.395545
     59          6           0       15.708708   -1.767081   -0.614335
     60          6           0       16.537469    0.161732    0.557936
     61          6           0       17.843778    0.299395   -0.224475
     62          6           0       18.879730    1.278136    0.668082
     63          6           0       20.219884    1.319766    0.008617
     64          6           0       20.164036    2.073683   -1.345493
     65          6           0       21.305804    2.030415    0.963265
     66          1           0       -4.149725    3.769798    1.549128
     67          1           0      -10.032632    3.903749   -0.357595
     68          1           0      -10.269931   -2.357955   -1.232836
     69          1           0       -2.711862   -1.213523    2.058405
     70          1           0       -2.132738    1.717799    1.316476
     71          1           0       -2.188895    0.946028    3.514918
     72          1           0       -3.131067    2.547277    3.346946
     73          1           0       -3.828254    0.735970    3.658798
     74          1           0       -1.846911   -1.809061   -0.124809
     75          1           0       -2.214260    0.023606   -0.709577
     76          1           0       -0.546695    0.677412    0.844023
     77          1           0       -0.050212   -0.791243    1.711089
     78          1           0       -4.861897    6.260532    0.656601
     79          1           0       -6.184122    6.565244    1.960246
     80          1           0       -4.768366    5.481460    2.043556
     81          1           0       -9.705349    5.785998    0.387057
     82          1           0       -8.966150    7.980463   -0.461626
     83          1           0       -7.351019    7.441352   -0.174045
     84          1           0      -12.211477    3.277234   -1.888267
     85          1           0      -13.362367    1.972159   -1.631813
     86          1           0      -12.670794    3.048820   -0.485421
     87          1           0      -12.834597   -1.485564   -0.997570
     88          1           0      -13.230010   -0.134714   -1.726756
     89          1           0      -13.174398   -1.643524   -3.430339
     90          1           0      -12.051062   -0.307158   -3.908147
     91          1           0      -11.376760   -1.731035   -3.513874
     92          1           0       -9.497249   -4.880101   -1.682071
     93          1           0       -7.901639   -5.785427   -1.219875
     94          1           0       -9.134187   -5.214514    0.151829
     95          1           0       -3.463332   -3.578585   -0.219895
     96          1           0       -1.300811   -4.611469    3.418773
     97          1           0       -2.785121   -5.436260    3.677846
     98          1           0       -1.344709   -6.004527    2.269259
     99          1           0        2.694665   -1.495846   -1.529220
    100          1           0        2.721812    0.138412   -1.984489
    101          1           0        4.200723   -0.951954    0.368958
    102          1           0        4.134828    1.551550   -2.435219
    103          1           0        5.458603    2.519755   -1.558781
    104          1           0        5.668040    1.232669   -2.853478
    105          1           0        6.850688    1.528100    0.278439
    106          1           0        6.273805    0.197848    0.825890
    107          1           0        7.400645   -1.169363   -0.919093
    108          1           0        7.773528    0.336923   -1.878535
    109          1           0        9.078881    0.949946    0.390509
    110          1           0        8.836014   -0.589325    0.743782
    111          1           0       10.185537    0.226041   -1.626817
    112          1           0        9.207421   -1.985465   -2.072458
    113          1           0       10.765300   -2.131848   -2.067116
    114          1           0        9.967856   -2.652105   -0.534147
    115          1           0       11.381000    0.530902    0.694331
    116          1           0       11.425466   -1.028984    0.950002
    117          1           0       12.730380   -1.542703   -0.764175
    118          1           0       12.972014    0.015201   -1.588262
    119          1           0       13.849113    1.063346    0.450186
    120          1           0       13.756797   -0.660788    1.146464
    121          1           0       15.582260    0.207989   -1.358798
    122          1           0       15.632866   -2.497876    0.292664
    123          1           0       14.966645   -2.252946   -1.269088
    124          1           0       16.612035   -2.012754   -1.137914
    125          1           0       16.224047    1.196979    0.857501
    126          1           0       16.775604   -0.477284    1.628408
    127          1           0       18.387506   -0.547602   -0.466627
    128          1           0       17.674560    0.829854   -1.128176
    129          1           0       18.444521    2.249819    0.776861
    130          1           0       18.901686    0.968993    1.773889
    131          1           0       20.556144    0.413289   -0.321425
    132          1           0       19.504892    3.068448   -1.311933
    133          1           0       21.161939    2.152530   -1.835896
    134          1           0       19.789769    1.308232   -1.978668
    135          1           0       21.290974    1.513445    1.852656
    136          1           0       22.275368    2.143230    0.377164
    137          1           0       20.965119    3.126315    1.163580
 ---------------------------------------------------------------------

 SCF Done:  E(RCAM-B3LYP) =  -2932.64005287     A.U. after   17 cycles

 Excitation energies and oscillator strengths:

 Excited State   1:      Singlet-A      1.9766 eV  627.28 nm  f=0.2728  <S**2>=0.000
     240 -> 242       -0.12657
     240 -> 243       -0.20046
     241 -> 242        0.64736
     241 -> 243       -0.12408
 This state for optimization and/or second-order correction.
 Total Energy, E(TD-HF/TD-KS) =  -2932.56741595
 Copying the excited state density for this state as the 1-particle RhoCI density.

 The electronic state is 1-A.
 Alpha  occ. eigenvalues --  -46.84286 -19.26839 -19.26809 -19.20687 -19.20538
 Alpha  occ. eigenvalues --  -19.20341 -14.42276 -14.39810 -14.39329 -14.38505
 Alpha  occ. eigenvalues --  -10.39858 -10.39114 -10.35674 -10.32571 -10.31639
 Alpha  occ. eigenvalues --  -10.31578 -10.31508 -10.31367 -10.30196 -10.30196
 Alpha  occ. eigenvalues --  -10.29605 -10.29270 -10.29055 -10.28833 -10.28368
 Alpha  occ. eigenvalues --  -10.28310 -10.28294 -10.28268 -10.28033 -10.27932
 Alpha  occ. eigenvalues --  -10.27814 -10.27467 -10.27172 -10.26874 -10.26785
 Alpha  occ. eigenvalues --  -10.26711 -10.26663 -10.26434 -10.26400 -10.26329
 Alpha  occ. eigenvalues --  -10.26304 -10.26234 -10.26140 -10.26067 -10.26051
 Alpha  occ. eigenvalues --  -10.25846 -10.25785 -10.25769 -10.25687 -10.25644
 Alpha  occ. eigenvalues --  -10.25462 -10.25426 -10.25419 -10.25251 -10.25102
 Alpha  occ. eigenvalues --  -10.24948 -10.24765 -10.24764 -10.24592 -10.24574
 Alpha  occ. eigenvalues --  -10.24500 -10.24484 -10.24266 -10.24131 -10.23275
 Alpha  occ. eigenvalues --   -3.13273  -1.87986  -1.87508  -1.87453  -1.19449
 Alpha  occ. eigenvalues --   -1.18528  -1.09204  -1.08644  -1.06674  -1.04284
 Alpha  occ. eigenvalues --   -1.03254  -1.02995  -1.01464  -0.93437  -0.91419
 Alpha  occ. eigenvalues --   -0.90091  -0.89842  -0.89663  -0.88878  -0.88689
 Alpha  occ. eigenvalues --   -0.87835  -0.87701  -0.87679  -0.86821  -0.86238
 Alpha  occ. eigenvalues --   -0.85322  -0.84404  -0.83871  -0.82751  -0.82556
 Alpha  occ. eigenvalues --   -0.81923  -0.81323  -0.80600  -0.80063  -0.78710
 Alpha  occ. eigenvalues --   -0.78219  -0.77534  -0.77105  -0.76278  -0.75888
 Alpha  occ. eigenvalues --   -0.75149  -0.75134  -0.73839  -0.73326  -0.72124
 Alpha  occ. eigenvalues --   -0.71886  -0.71176  -0.70264  -0.69570  -0.69143
 Alpha  occ. eigenvalues --   -0.67842  -0.67637  -0.65544  -0.65166  -0.65035
 Alpha  occ. eigenvalues --   -0.64520  -0.63727  -0.63575  -0.63283  -0.62810
 Alpha  occ. eigenvalues --   -0.61941  -0.61503  -0.61355  -0.60085  -0.59582
 Alpha  occ. eigenvalues --   -0.58781  -0.58339  -0.58208  -0.57202  -0.56854
 Alpha  occ. eigenvalues --   -0.56746  -0.56219  -0.55575  -0.55485  -0.55282
 Alpha  occ. eigenvalues --   -0.54742  -0.53865  -0.53735  -0.53442  -0.52846
 Alpha  occ. eigenvalues --   -0.52753  -0.52589  -0.52320  -0.51923  -0.51564
 Alpha  occ. eigenvalues --   -0.51332  -0.51065  -0.51039  -0.50754  -0.50471
 Alpha  occ. eigenvalues --   -0.50191  -0.50162  -0.49869  -0.49845  -0.49523
 Alpha  occ. eigenvalues --   -0.49254  -0.49152  -0.48507  -0.48247  -0.48100
 Alpha  occ. eigenvalues --   -0.47899  -0.47525  -0.47501  -0.47243  -0.47153
 Alpha  occ. eigenvalues --   -0.46973  -0.46505  -0.46364  -0.46246  -0.46046
 Alpha  occ. eigenvalues --   -0.45637  -0.45406  -0.45180  -0.45090  -0.44887
 Alpha  occ. eigenvalues --   -0.44804  -0.44611  -0.44308  -0.44058  -0.43958
 Alpha  occ. eigenvalues --   -0.43699  -0.43561  -0.43437  -0.43279  -0.43077
 Alpha  occ. eigenvalues --   -0.42994  -0.42810  -0.42674  -0.42510  -0.42362
 Alpha  occ. eigenvalues --   -0.42007  -0.41904  -0.41688  -0.41493  -0.41084
 Alpha  occ. eigenvalues --   -0.41020  -0.40663  -0.40481  -0.40298  -0.40220
 Alpha  occ. eigenvalues --   -0.40139  -0.39975  -0.39730  -0.39594  -0.39550
 Alpha  occ. eigenvalues --   -0.39395  -0.38966  -0.38680  -0.38565  -0.37766
 Alpha  occ. eigenvalues --   -0.37672  -0.37563  -0.37395  -0.37330  -0.36948
 Alpha  occ. eigenvalues --   -0.36521  -0.36127  -0.35893  -0.35816  -0.35690
 Alpha  occ. eigenvalues --   -0.35392  -0.34757  -0.33800  -0.33377  -0.33294
 Alpha  occ. eigenvalues --   -0.33150  -0.32665  -0.31711  -0.30891  -0.30572
 Alpha  occ. eigenvalues --   -0.29895  -0.29845  -0.28281  -0.26285  -0.23453
 Alpha  occ. eigenvalues --   -0.20840
 Alpha virt. eigenvalues --   -0.07027  -0.03323   0.00262   0.04035   0.04423
 Alpha virt. eigenvalues --    0.05652   0.06082   0.06345   0.06581   0.07050
 Alpha virt. eigenvalues --    0.08310   0.10377   0.10801   0.11812   0.12025

 Mulliken charges:
               1
     1  Mg   0.815076
     2  C    0.080876
     3  C   -0.214466
     4  C   -0.133403
     5  C   -0.157690
     6  N   -0.637201
     7  C    0.318966
     8  C   -0.151999
     9  C   -0.172521
    10  C    0.347782
    11  C   -0.279304
    12  C   -0.171219
    13  C   -0.259049
    14  C    0.624308
    15  O   -0.508970
    16  O   -0.455819
    17  N   -0.722521
    18  C    0.323395
    19  C    0.041122
    20  C   -0.007801
    21  C    0.294997
    22  C   -0.366596
    23  C   -0.143268
    24  C   -0.223628
    25  N   -0.691437
    26  C    0.311532
    27  C    0.023723
    28  C   -0.013429
    29  C    0.276558
    30  C   -0.379012
    31  C   -0.233913
    32  C   -0.308348
    33  N   -0.731896
    34  C    0.322288
    35  C    0.027722
    36  C    0.081942
    37  C    0.245183
    38  C   -0.382662
    39  C    0.350847
    40  O   -0.487386
    41  C   -0.343657
    42  C    0.614887
    43  O   -0.493266
    44  O   -0.412045
    45  C   -0.081124
    46  C    0.008248
    47  C   -0.128286
    48  C    0.093395
    49  C   -0.348739
    50  C   -0.217032
    51  C   -0.185402
    52  C   -0.201944
    53  C   -0.072258
    54  C   -0.321235
    55  C   -0.191161
    56  C   -0.175485
    57  C   -0.172267
    58  C   -0.067622
    59  C   -0.308724
    60  C   -0.151712
    61  C   -0.196613
    62  C   -0.175110
    63  C   -0.057882
    64  C   -0.308401
    65  C   -0.305724
    66  H    0.057470
    67  H    0.076124
    68  H    0.092123
    69  H    0.142186
    70  H    0.100943
    71  H    0.101147
    72  H    0.086510
    73  H    0.137522
    74  H    0.113730
    75  H    0.134581
    76  H    0.145836
    77  H    0.088835
    78  H    0.131125
    79  H    0.133218
    80  H    0.106347
    81  H    0.087944
    82  H    0.090929
    83  H    0.096176
    84  H    0.134240
    85  H    0.075321
    86  H    0.129505
    87  H    0.103445
    88  H    0.117817
    89  H    0.121869
    90  H    0.100134
    91  H    0.118314
    92  H    0.117255
    93  H    0.128028
    94  H    0.150671
    95  H    0.165834
    96  H    0.123349
    97  H    0.138858
    98  H    0.093206
    99  H    0.130458
   100  H    0.106832
   101  H    0.088128
   102  H    0.117445
   103  H    0.105277
   104  H    0.132665
   105  H    0.097816
   106  H    0.111023
   107  H    0.117648
   108  H    0.095558
   109  H    0.091673
   110  H    0.098345
   111  H    0.076919
   112  H    0.114890
   113  H    0.105041
   114  H    0.106477
   115  H    0.093852
   116  H    0.074388
   117  H    0.107595
   118  H    0.079010
   119  H    0.097457
   120  H    0.101380
   121  H    0.085760
   122  H    0.088332
   123  H    0.089120
   124  H    0.110841
   125  H    0.079186
   126  H    0.060338
   127  H    0.105113
   128  H    0.104136
   129  H    0.094863
   130  H    0.075301
   131  H    0.093112
   132  H    0.088294
   133  H    0.092756
   134  H    0.102852
   135  H    0.109779
   136  H    0.092072
   137  H    0.084057
 Sum of Mulliken charges =   0.00000

 Dipole moment (field-independent basis, Debye):
    X=              1.1794    Y=              3.0382    Z=              0.1507  Tot=              3.2625
 Quadrupole moment (field-independent basis, Debye-Ang):
   XX=           -340.6373   YY=           -398.9413   ZZ=           -397.8056
   XY=            -11.0826   XZ=              4.6203   YZ=             -2.2831

 Normal termination of Gaussian 09 at Sat Jun 29 16:51:19 2019.
