 Gaussian 09, Revision D.01,
 Gaussian 09:  ES64L-G09RevD.01 24-Apr-2013

 -------------------------------------
 # td=(NStates=1) CAM-B3LYP/6-31G(d,p)
 -------------------------------------

 --
 TD
 --
 Symbolic Z-matrix:
 Charge =  0 Multiplicity = 1

                         Standard orientation:
 ---------------------------------------------------------------------
 Center     Atomic      Atomic             Coordinates (Angstroms)
 Number     Number       Type             X           Y           Z
 ---------------------------------------------------------------------
      1         12           0       -7.131508    0.661459    0.136185
      2          6           0       -4.788517   -1.927559    0.543396
      3          6           0       -4.764386    2.868450    1.157999
      4          6           0       -9.415609    3.102786   -0.416391
      5          6           0       -9.552491   -1.744455   -0.836441
      6          7           0       -5.123238    0.505985    0.827878
      7          6           0       -4.237566   -0.676764    0.865376
      8          6           0       -2.983070   -0.352061    1.289531
      9          6           0       -2.984598    1.048572    1.782210
     10          6           0       -4.363487    1.517586    1.237928
     11          6           0       -3.091204    1.212342    3.296990
     12          6           0       -1.962356   -0.605747    0.130104
     13          6           0       -0.522435   -0.465370    0.570711
     14          6           0        0.403385   -0.581348   -0.628377
     15          8           0        0.105104   -0.872126   -1.743076
     16          8           0        1.720957   -0.391302   -0.196027
     17          7           0       -7.071987    2.625599    0.499649
     18          6           0       -6.026768    3.427257    0.874633
     19          6           0       -6.371728    4.817969    0.820973
     20          6           0       -7.756195    4.847326    0.438631
     21          6           0       -8.124379    3.517874    0.168984
     22          6           0       -5.504388    5.983339    1.318382
     23          6           0       -8.590891    5.970417    0.315040
     24          6           0       -8.186726    7.214253   -0.056005
     25          7           0       -9.089442    0.683926   -0.481648
     26          6           0       -9.858682    1.779330   -0.633297
     27          6           0      -11.148925    1.439206   -1.099666
     28          6           0      -11.181263    0.015455   -1.209611
     29          6           0       -9.865626   -0.371690   -0.875231
     30          6           0      -12.249787    2.293981   -1.552234
     31          6           0      -12.277226   -0.870423   -1.639994
     32          6           0      -12.102577   -1.220651   -3.209963
     33          7           0       -7.201822   -1.432893   -0.156085
     34          6           0       -8.296418   -2.198817   -0.582107
     35          6           0       -7.763368   -3.536723   -0.641280
     36          6           0       -6.480066   -3.441011   -0.191211
     37          6           0       -6.117451   -2.136793    0.073842
     38          6           0       -8.572952   -4.804748   -1.066175
     39          6           0       -5.298612   -4.291152    0.166567
     40          8           0       -5.186436   -5.515761    0.109078
     41          6           0       -4.149063   -3.300317    0.584760
     42          6           0       -3.602271   -3.713683    1.913387
     43          8           0       -3.796002   -3.116058    2.948035
     44          8           0       -2.806697   -4.775207    1.825225
     45          6           0       -2.239906   -5.366684    3.126426
     46          6           0        2.700047   -0.549128   -1.147767
     47          6           0        4.077275   -0.333270   -0.489247
     48          6           0        5.141502    0.349907   -1.038177
     49          6           0        5.119048    1.068983   -2.332148
     50          6           0        6.422859    0.419980   -0.331723
     51          6           0        7.623181   -0.210142   -1.104772
     52          6           0        8.913503   -0.191054   -0.225120
     53          6           0       10.241850   -0.625597   -0.957941
     54          6           0       10.151341   -2.100617   -1.408911
     55          6           0       11.442966   -0.439807    0.027948
     56          6           0       12.809947   -0.537272   -0.666524
     57          6           0       13.990761   -0.108053    0.248356
     58          6           0       15.253066   -0.179080   -0.524577
     59          6           0       15.736250   -1.618977   -0.910051
     60          6           0       16.369611    0.397710    0.442820
     61          6           0       17.828856    0.568128   -0.233227
     62          6           0       18.767432    1.259504    0.857882
     63          6           0       20.187217    1.454602    0.224292
     64          6           0       20.274351    2.194807   -1.127531
     65          6           0       21.068314    1.915113    1.336852
     66          1           0       -4.132297    3.446022    1.583748
     67          1           0      -10.064343    3.895250   -0.701005
     68          1           0      -10.206353   -2.391765   -1.353990
     69          1           0       -2.661930   -1.052356    2.138229
     70          1           0       -2.139849    1.539628    1.457204
     71          1           0       -1.925983    0.981211    3.689651
     72          1           0       -3.318326    2.338349    3.530147
     73          1           0       -3.772834    0.629097    3.787319
     74          1           0       -2.066829   -1.614003   -0.504925
     75          1           0       -2.194673    0.171807   -0.743503
     76          1           0       -0.277834    0.620998    0.964667
     77          1           0       -0.289125   -1.197259    1.353083
     78          1           0       -4.603423    6.511498    0.593370
     79          1           0       -6.009191    7.071184    1.471068
     80          1           0       -4.891398    5.802767    2.293641
     81          1           0       -9.663837    5.992882    0.633227
     82          1           0       -8.950210    8.016457    0.023725
     83          1           0       -7.236107    7.598019   -0.331207
     84          1           0      -12.106297    2.803122   -2.539601
     85          1           0      -13.198224    1.545943   -1.566004
     86          1           0      -12.436296    2.971542   -0.616501
     87          1           0      -12.550448   -1.799966   -1.135246
     88          1           0      -13.347105   -0.283322   -1.651638
     89          1           0      -13.094054   -1.735412   -3.397342
     90          1           0      -11.904947   -0.282582   -3.755613
     91          1           0      -11.252424   -1.726845   -3.401411
     92          1           0       -8.912112   -4.751252   -2.153992
     93          1           0       -7.969073   -5.563225   -0.983105
     94          1           0       -9.456871   -4.958533   -0.345112
     95          1           0       -3.504355   -3.654453   -0.267423
     96          1           0       -1.705047   -4.507860    3.572850
     97          1           0       -3.049884   -5.791881    3.650374
     98          1           0       -1.344236   -6.069184    2.714103
     99          1           0        2.672401   -1.664034   -1.527736
    100          1           0        2.543814    0.239171   -1.968186
    101          1           0        4.176195   -0.752557    0.619815
    102          1           0        3.998212    1.139436   -2.539781
    103          1           0        5.218443    2.128303   -2.087545
    104          1           0        5.692743    0.404484   -3.096977
    105          1           0        6.655079    1.456954   -0.163997
    106          1           0        6.339261   -0.150130    0.643861
    107          1           0        7.145323   -1.288257   -1.317181
    108          1           0        7.822632    0.579734   -1.982946
    109          1           0        9.020995    0.757356    0.143685
    110          1           0        8.825961   -0.773809    0.681066
    111          1           0       10.474882   -0.205174   -1.908551
    112          1           0        9.445518   -2.227905   -2.088649
    113          1           0       11.210971   -2.526723   -1.868459
    114          1           0        9.747680   -2.811287   -0.622504
    115          1           0       11.359094    0.623460    0.540808
    116          1           0       11.323396   -1.276790    0.829270
    117          1           0       12.819684   -1.601909   -0.831957
    118          1           0       12.848987   -0.049497   -1.596729
    119          1           0       13.788853    0.745866    0.567516
    120          1           0       14.042609   -0.760761    1.045615
    121          1           0       15.233096    0.421822   -1.454322
    122          1           0       15.781361   -2.192607    0.042022
    123          1           0       14.795220   -2.039085   -1.282048
    124          1           0       16.718765   -1.699803   -1.496590
    125          1           0       16.053952    1.401802    0.781267
    126          1           0       16.305488   -0.104831    1.288129
    127          1           0       18.213197   -0.351234   -0.466301
    128          1           0       17.792551    1.360934   -0.933793
    129          1           0       18.191734    2.264668    1.261736
    130          1           0       18.727519    0.673384    1.859372
    131          1           0       20.411827    0.376427    0.035315
    132          1           0       20.258664    3.206564   -0.849482
    133          1           0       21.344150    2.063793   -1.752863
    134          1           0       19.402280    1.770298   -1.743258
    135          1           0       20.998872    1.153676    2.248590
    136          1           0       22.131579    1.830747    1.149288
    137          1           0       20.840385    2.954126    1.755094
 ---------------------------------------------------------------------

 SCF Done:  E(RCAM-B3LYP) =  -2932.69085460     A.U. after   17 cycles

 Excitation energies and oscillator strengths:

 Excited State   1:      Singlet-A      1.9809 eV  625.90 nm  f=0.2303  <S**2>=0.000
     240 -> 242       -0.10215
     240 -> 243        0.23063
     241 -> 242        0.65149
 This state for optimization and/or second-order correction.
 Total Energy, E(TD-HF/TD-KS) =  -2932.61805852
 Copying the excited state density for this state as the 1-particle RhoCI density.

 The electronic state is 1-A.
 Alpha  occ. eigenvalues --  -46.83870 -19.25851 -19.25704 -19.22595 -19.20341
 Alpha  occ. eigenvalues --  -19.20024 -14.41548 -14.38947 -14.38799 -14.38541
 Alpha  occ. eigenvalues --  -10.40007 -10.38770 -10.35257 -10.33391 -10.32666
 Alpha  occ. eigenvalues --  -10.30876 -10.30656 -10.29625 -10.29598 -10.29316
 Alpha  occ. eigenvalues --  -10.29119 -10.28939 -10.28748 -10.28395 -10.28384
 Alpha  occ. eigenvalues --  -10.28348 -10.28061 -10.27911 -10.27871 -10.27861
 Alpha  occ. eigenvalues --  -10.27836 -10.27768 -10.27620 -10.27375 -10.27353
 Alpha  occ. eigenvalues --  -10.27226 -10.27174 -10.27146 -10.27132 -10.26972
 Alpha  occ. eigenvalues --  -10.26894 -10.26776 -10.26618 -10.26575 -10.26245
 Alpha  occ. eigenvalues --  -10.26214 -10.26120 -10.26089 -10.25962 -10.25843
 Alpha  occ. eigenvalues --  -10.25651 -10.25544 -10.25336 -10.25283 -10.25129
 Alpha  occ. eigenvalues --  -10.25041 -10.24995 -10.24717 -10.24635 -10.24427
 Alpha  occ. eigenvalues --  -10.24361 -10.23984 -10.23609 -10.23431 -10.22353
 Alpha  occ. eigenvalues --   -3.12844  -1.87564  -1.87099  -1.86994  -1.18881
 Alpha  occ. eigenvalues --   -1.17236  -1.11413  -1.10135  -1.08004  -1.04616
 Alpha  occ. eigenvalues --   -1.03642  -1.03357  -1.01932  -0.92726  -0.91332
 Alpha  occ. eigenvalues --   -0.91115  -0.90592  -0.89134  -0.88826  -0.88802
 Alpha  occ. eigenvalues --   -0.88087  -0.87718  -0.87219  -0.86615  -0.86122
 Alpha  occ. eigenvalues --   -0.84380  -0.84040  -0.83460  -0.82508  -0.81836
 Alpha  occ. eigenvalues --   -0.81394  -0.80995  -0.80423  -0.79535  -0.78136
 Alpha  occ. eigenvalues --   -0.77706  -0.76766  -0.76178  -0.75843  -0.75511
 Alpha  occ. eigenvalues --   -0.75438  -0.74552  -0.73636  -0.73011  -0.72415
 Alpha  occ. eigenvalues --   -0.71132  -0.70139  -0.69847  -0.68504  -0.67875
 Alpha  occ. eigenvalues --   -0.67158  -0.66578  -0.65808  -0.64567  -0.64131
 Alpha  occ. eigenvalues --   -0.64024  -0.63927  -0.62721  -0.62390  -0.61872
 Alpha  occ. eigenvalues --   -0.61456  -0.61271  -0.60649  -0.59515  -0.58907
 Alpha  occ. eigenvalues --   -0.58274  -0.58190  -0.57900  -0.57149  -0.56960
 Alpha  occ. eigenvalues --   -0.56628  -0.55791  -0.55592  -0.55590  -0.55353
 Alpha  occ. eigenvalues --   -0.54672  -0.54343  -0.53699  -0.53586  -0.53131
 Alpha  occ. eigenvalues --   -0.52696  -0.52269  -0.51984  -0.51800  -0.51594
 Alpha  occ. eigenvalues --   -0.51356  -0.51135  -0.50923  -0.50758  -0.50440
 Alpha  occ. eigenvalues --   -0.50358  -0.50160  -0.50052  -0.49899  -0.49733
 Alpha  occ. eigenvalues --   -0.49399  -0.48829  -0.48557  -0.48370  -0.48223
 Alpha  occ. eigenvalues --   -0.48065  -0.47623  -0.47194  -0.47069  -0.46731
 Alpha  occ. eigenvalues --   -0.46541  -0.46460  -0.46299  -0.46128  -0.45910
 Alpha  occ. eigenvalues --   -0.45582  -0.45408  -0.45257  -0.45193  -0.44996
 Alpha  occ. eigenvalues --   -0.44866  -0.44682  -0.44345  -0.44201  -0.44006
 Alpha  occ. eigenvalues --   -0.43794  -0.43533  -0.43405  -0.43313  -0.42788
 Alpha  occ. eigenvalues --   -0.42595  -0.42507  -0.42362  -0.42174  -0.42107
 Alpha  occ. eigenvalues --   -0.41907  -0.41841  -0.41495  -0.41412  -0.41360
 Alpha  occ. eigenvalues --   -0.41209  -0.40991  -0.40846  -0.40757  -0.40437
 Alpha  occ. eigenvalues --   -0.39958  -0.39581  -0.39500  -0.39400  -0.38940
 Alpha  occ. eigenvalues --   -0.38724  -0.38545  -0.38447  -0.38360  -0.38192
 Alpha  occ. eigenvalues --   -0.37871  -0.37735  -0.37482  -0.37060  -0.36575
 Alpha  occ. eigenvalues --   -0.36554  -0.36353  -0.36270  -0.35966  -0.35803
 Alpha  occ. eigenvalues --   -0.35345  -0.34869  -0.34724  -0.34515  -0.33265
 Alpha  occ. eigenvalues --   -0.32797  -0.31839  -0.31717  -0.30682  -0.29494
 Alpha  occ. eigenvalues --   -0.29091  -0.28792  -0.27389  -0.26822  -0.23182
 Alpha  occ. eigenvalues --   -0.21098
 Alpha virt. eigenvalues --   -0.06782  -0.03364   0.01756   0.04267   0.05466
 Alpha virt. eigenvalues --    0.05849   0.06364   0.06541   0.07059   0.07285
 Alpha virt. eigenvalues --    0.08288   0.10541   0.11046   0.11840   0.11946

 Mulliken charges:
               1
     1  Mg   0.813050
     2  C    0.079728
     3  C   -0.164701
     4  C   -0.174762
     5  C   -0.135327
     6  N   -0.623923
     7  C    0.327361
     8  C   -0.185197
     9  C   -0.115374
    10  C    0.322397
    11  C   -0.288215
    12  C   -0.187947
    13  C   -0.259079
    14  C    0.610451
    15  O   -0.439333
    16  O   -0.482867
    17  N   -0.721428
    18  C    0.308195
    19  C    0.050113
    20  C    0.042483
    21  C    0.279059
    22  C   -0.377679
    23  C   -0.128784
    24  C   -0.226778
    25  N   -0.702764
    26  C    0.334679
    27  C    0.000065
    28  C    0.067783
    29  C    0.269926
    30  C   -0.367798
    31  C   -0.278981
    32  C   -0.308008
    33  N   -0.774534
    34  C    0.286834
    35  C   -0.040776
    36  C    0.004652
    37  C    0.351919
    38  C   -0.351384
    39  C    0.347450
    40  O   -0.465643
    41  C   -0.334261
    42  C    0.637730
    43  O   -0.490675
    44  O   -0.477456
    45  C   -0.082954
    46  C    0.030619
    47  C   -0.145316
    48  C    0.104597
    49  C   -0.356002
    50  C   -0.215859
    51  C   -0.184613
    52  C   -0.165759
    53  C   -0.062825
    54  C   -0.310001
    55  C   -0.173185
    56  C   -0.200010
    57  C   -0.145458
    58  C   -0.075052
    59  C   -0.314014
    60  C   -0.181224
    61  C   -0.187397
    62  C   -0.178451
    63  C   -0.044748
    64  C   -0.299472
    65  C   -0.306442
    66  H    0.041571
    67  H    0.096167
    68  H    0.103487
    69  H    0.136477
    70  H    0.107835
    71  H    0.069987
    72  H    0.104099
    73  H    0.146674
    74  H    0.123196
    75  H    0.108142
    76  H    0.126825
    77  H    0.146919
    78  H    0.083291
    79  H    0.109941
    80  H    0.114303
    81  H    0.106730
    82  H    0.090616
    83  H    0.109657
    84  H    0.128614
    85  H    0.094541
    86  H    0.106280
    87  H    0.118042
    88  H    0.083035
    89  H    0.102687
    90  H    0.111447
    91  H    0.122107
    92  H    0.113660
    93  H    0.152332
    94  H    0.116163
    95  H    0.172591
    96  H    0.143429
    97  H    0.160942
    98  H    0.125976
    99  H    0.107317
   100  H    0.108177
   101  H    0.083538
   102  H    0.090956
   103  H    0.127959
   104  H    0.136089
   105  H    0.097850
   106  H    0.087159
   107  H    0.089892
   108  H    0.088116
   109  H    0.101490
   110  H    0.096020
   111  H    0.091772
   112  H    0.117873
   113  H    0.075650
   114  H    0.084401
   115  H    0.062088
   116  H    0.081097
   117  H    0.104702
   118  H    0.096893
   119  H    0.099965
   120  H    0.094361
   121  H    0.076189
   122  H    0.091079
   123  H    0.098033
   124  H    0.106636
   125  H    0.071783
   126  H    0.094079
   127  H    0.104187
   128  H    0.113942
   129  H    0.055883
   130  H    0.086472
   131  H    0.088571
   132  H    0.117218
   133  H    0.079044
   134  H    0.104237
   135  H    0.082040
   136  H    0.098098
   137  H    0.094744
 Sum of Mulliken charges =   0.00000

 Dipole moment (field-independent basis, Debye):
    X=              1.5389    Y=              2.8212    Z=              0.6779  Tot=              3.2844
 Quadrupole moment (field-independent basis, Debye-Ang):
   XX=           -368.6952   YY=           -390.4622   ZZ=           -397.0466
   XY=            -13.5783   XZ=             12.3468   YZ=             -5.3399

 Normal termination of Gaussian 09 at Sun Jun 30 20:26:29 2019.
