 Gaussian 09, Revision D.01,
 Gaussian 09:  ES64L-G09RevD.01 24-Apr-2013

 -------------------------------------
 # td=(NStates=1) CAM-B3LYP/6-31G(d,p)
 -------------------------------------

 --
 TD
 --
 Symbolic Z-matrix:
 Charge =  0 Multiplicity = 1

                         Standard orientation:
 ---------------------------------------------------------------------
 Center     Atomic      Atomic             Coordinates (Angstroms)
 Number     Number       Type             X           Y           Z
 ---------------------------------------------------------------------
      1         12           0       -7.149920    0.633333    0.157855
      2          6           0       -4.847063   -1.957538    0.640589
      3          6           0       -4.817374    2.921295    1.170438
      4          6           0       -9.337907    2.946076   -0.382453
      5          6           0       -9.457101   -1.757620   -0.924397
      6          7           0       -5.109838    0.491829    0.821961
      7          6           0       -4.284086   -0.640867    0.886062
      8          6           0       -3.021610   -0.311102    1.274454
      9          6           0       -3.024136    1.025735    1.751797
     10          6           0       -4.413214    1.578693    1.239316
     11          6           0       -3.059379    1.185776    3.426356
     12          6           0       -1.899037   -0.502900    0.070701
     13          6           0       -0.546015   -0.419996    0.544103
     14          6           0        0.483374   -0.641779   -0.611264
     15          8           0        0.195163   -0.973121   -1.768618
     16          8           0        1.725477   -0.358405   -0.164072
     17          7           0       -7.207840    2.578963    0.408486
     18          6           0       -6.127502    3.341565    0.749594
     19          6           0       -6.531014    4.669175    0.964442
     20          6           0       -7.790568    4.843261    0.577002
     21          6           0       -8.208581    3.391445    0.048342
     22          6           0       -5.652705    5.754222    1.503235
     23          6           0       -8.616716    5.954223    0.251336
     24          6           0       -8.196778    7.275358    0.127880
     25          7           0       -9.111630    0.573365   -0.580938
     26          6           0       -9.827967    1.688352   -0.692229
     27          6           0      -11.181407    1.442768   -1.175039
     28          6           0      -11.232816    0.119670   -1.390080
     29          6           0       -9.939333   -0.396097   -0.870812
     30          6           0      -12.261322    2.429186   -1.420281
     31          6           0      -12.280837   -0.709143   -1.934486
     32          6           0      -12.014760   -1.087921   -3.359758
     33          7           0       -7.172265   -1.432896   -0.116157
     34          6           0       -8.165136   -2.143895   -0.651443
     35          6           0       -7.798121   -3.501827   -0.673805
     36          6           0       -6.423583   -3.534009   -0.274442
     37          6           0       -6.165316   -2.153798    0.141279
     38          6           0       -8.624353   -4.807062   -0.924529
     39          6           0       -5.346150   -4.359540    0.164991
     40          8           0       -5.155599   -5.567694    0.103099
     41          6           0       -4.155253   -3.299509    0.638584
     42          6           0       -3.584073   -3.732295    1.966905
     43          8           0       -3.874526   -3.239065    3.038861
     44          8           0       -2.786381   -4.831353    1.879191
     45          6           0       -2.173939   -5.247466    3.083608
     46          6           0        2.741263   -0.534666   -1.142760
     47          6           0        4.081597   -0.328215   -0.409198
     48          6           0        5.140425    0.417336   -0.910645
     49          6           0        5.227060    1.294357   -2.129465
     50          6           0        6.474076    0.408108   -0.141795
     51          6           0        7.587292   -0.253570   -0.990114
     52          6           0        8.911035   -0.205228   -0.247329
     53          6           0       10.093090   -0.470263   -1.027786
     54          6           0       10.203589   -1.946347   -1.591007
     55          6           0       11.445973   -0.269708   -0.262113
     56          6           0       12.764318   -0.470576   -0.937998
     57          6           0       13.968308   -0.005361    0.034687
     58          6           0       15.378442   -0.191052   -0.501596
     59          6           0       15.753375   -1.698967   -0.793006
     60          6           0       16.394167    0.474345    0.413136
     61          6           0       17.796026    0.568122   -0.207227
     62          6           0       18.795971    1.114005    0.872688
     63          6           0       20.220549    1.279958    0.304605
     64          6           0       20.315829    2.117358   -1.012407
     65          6           0       21.168253    1.824512    1.428296
     66          1           0       -4.304963    3.738791    1.497958
     67          1           0      -10.132811    3.736495   -0.433896
     68          1           0      -10.111865   -2.504986   -1.193847
     69          1           0       -2.736369   -1.012262    2.163684
     70          1           0       -2.291171    1.805337    1.419774
     71          1           0       -2.001445    1.122919    3.742759
     72          1           0       -3.382687    2.113206    3.793416
     73          1           0       -3.817974    0.434137    3.756765
     74          1           0       -1.925038   -1.622777   -0.496503
     75          1           0       -2.067339    0.244838   -0.741687
     76          1           0       -0.186150    0.491034    0.992878
     77          1           0       -0.178008   -1.358729    1.266374
     78          1           0       -5.152771    6.274752    0.672525
     79          1           0       -6.160429    6.505476    1.840252
     80          1           0       -5.019841    5.246199    2.249951
     81          1           0       -9.715289    5.874147    0.115916
     82          1           0       -8.970152    8.060590   -0.024460
     83          1           0       -7.095163    7.396312    0.295255
     84          1           0      -11.964473    2.966370   -2.372261
     85          1           0      -13.298679    2.006335   -1.719877
     86          1           0      -12.310270    3.052810   -0.358685
     87          1           0      -12.519760   -1.671716   -1.603039
     88          1           0      -13.356092   -0.283476   -1.945207
     89          1           0      -12.863494   -1.644571   -3.779166
     90          1           0      -12.120638   -0.035908   -3.888141
     91          1           0      -10.993221   -1.425064   -3.612664
     92          1           0       -8.555797   -5.085798   -1.984747
     93          1           0       -8.049455   -5.764262   -0.426289
     94          1           0       -9.859587   -4.865841   -0.653156
     95          1           0       -3.413240   -3.530092   -0.056873
     96          1           0       -1.380367   -4.559475    3.560775
     97          1           0       -2.729842   -5.558055    3.779552
     98          1           0       -1.623929   -6.223949    2.835017
     99          1           0        2.822649   -1.564590   -1.522473
    100          1           0        2.606537    0.148020   -1.981613
    101          1           0        4.201323   -0.911633    0.725364
    102          1           0        4.071330    1.343796   -2.625527
    103          1           0        5.441992    2.351668   -1.952567
    104          1           0        5.994088    0.906420   -2.825701
    105          1           0        6.791336    1.468295    0.120685
    106          1           0        6.301702    0.079573    0.714010
    107          1           0        7.394343   -1.115140   -1.191841
    108          1           0        7.837445    0.352112   -1.833846
    109          1           0        8.969349    0.758012    0.269661
    110          1           0        8.931268   -0.859157    0.750498
    111          1           0        9.893951    0.241977   -1.845514
    112          1           0        9.303376   -2.346572   -2.131181
    113          1           0       11.068932   -2.058108   -2.122493
    114          1           0       10.211769   -2.563270   -0.728403
    115          1           0       11.264801    0.868384    0.131398
    116          1           0       11.244370   -0.802040    0.795687
    117          1           0       12.881560   -1.699801   -1.286074
    118          1           0       12.779097   -0.011999   -1.917786
    119          1           0       13.462624    1.077118    0.349456
    120          1           0       13.782126   -0.659123    0.935632
    121          1           0       15.321361    0.262915   -1.547350
    122          1           0       15.941086   -2.074694    0.048653
    123          1           0       15.013699   -2.420310   -1.350729
    124          1           0       16.761523   -1.522359   -1.483741
    125          1           0       15.996092    1.511301    0.632952
    126          1           0       16.332069    0.024259    1.339601
    127          1           0       18.193652   -0.437993   -0.393201
    128          1           0       17.725871    1.323786   -0.920863
    129          1           0       18.349882    2.149947    1.307890
    130          1           0       18.733253    0.457278    1.820657
    131          1           0       20.617127    0.410524    0.011030
    132          1           0       19.998561    3.207922   -1.077181
    133          1           0       21.416907    2.136123   -1.296635
    134          1           0       19.765451    1.677470   -1.783117
    135          1           0       21.235234    1.151589    2.281501
    136          1           0       22.177145    1.954927    1.061698
    137          1           0       20.997241    3.019351    1.383941
 ---------------------------------------------------------------------

 SCF Done:  E(RCAM-B3LYP) =  -2932.57720029     A.U. after   18 cycles

 Excitation energies and oscillator strengths:

 Excited State   1:      Singlet-A      2.0958 eV  591.58 nm  f=0.2397  <S**2>=0.000
     240 -> 242        0.10515
     240 -> 243       -0.25236
     241 -> 242        0.64049
 This state for optimization and/or second-order correction.
 Total Energy, E(TD-HF/TD-KS) =  -2932.50018111
 Copying the excited state density for this state as the 1-particle RhoCI density.

 The electronic state is 1-A.
 Alpha  occ. eigenvalues --  -46.84928 -19.27282 -19.25713 -19.21325 -19.19797
 Alpha  occ. eigenvalues --  -19.19535 -14.41594 -14.39643 -14.39533 -14.38896
 Alpha  occ. eigenvalues --  -10.39738 -10.38277 -10.34603 -10.32266 -10.31522
 Alpha  occ. eigenvalues --  -10.30802 -10.30326 -10.29889 -10.28854 -10.28780
 Alpha  occ. eigenvalues --  -10.28772 -10.28731 -10.28617 -10.28531 -10.28457
 Alpha  occ. eigenvalues --  -10.28448 -10.28422 -10.28353 -10.28244 -10.28135
 Alpha  occ. eigenvalues --  -10.28000 -10.27957 -10.27656 -10.27603 -10.27549
 Alpha  occ. eigenvalues --  -10.27549 -10.27399 -10.27276 -10.27182 -10.27145
 Alpha  occ. eigenvalues --  -10.27095 -10.26922 -10.26497 -10.26495 -10.26470
 Alpha  occ. eigenvalues --  -10.26302 -10.25766 -10.25734 -10.25702 -10.25624
 Alpha  occ. eigenvalues --  -10.25535 -10.25518 -10.25482 -10.25468 -10.25432
 Alpha  occ. eigenvalues --  -10.25204 -10.25143 -10.24948 -10.24894 -10.24765
 Alpha  occ. eigenvalues --  -10.24650 -10.24589 -10.24570 -10.23717 -10.23404
 Alpha  occ. eigenvalues --   -3.13969  -1.88682  -1.88202  -1.88147  -1.18720
 Alpha  occ. eigenvalues --   -1.17371  -1.09583  -1.08915  -1.08142  -1.06663
 Alpha  occ. eigenvalues --   -1.05647  -1.04791  -1.04018  -0.91803  -0.91766
 Alpha  occ. eigenvalues --   -0.90868  -0.90630  -0.90201  -0.89921  -0.89267
 Alpha  occ. eigenvalues --   -0.89104  -0.87836  -0.87640  -0.86654  -0.86466
 Alpha  occ. eigenvalues --   -0.85002  -0.84614  -0.83837  -0.83771  -0.83015
 Alpha  occ. eigenvalues --   -0.81485  -0.81197  -0.80466  -0.79750  -0.78594
 Alpha  occ. eigenvalues --   -0.77534  -0.77090  -0.76451  -0.76174  -0.75495
 Alpha  occ. eigenvalues --   -0.75288  -0.75082  -0.74437  -0.73181  -0.72683
 Alpha  occ. eigenvalues --   -0.72004  -0.71232  -0.69356  -0.68828  -0.68496
 Alpha  occ. eigenvalues --   -0.67712  -0.67553  -0.66043  -0.65246  -0.64886
 Alpha  occ. eigenvalues --   -0.64426  -0.63422  -0.63353  -0.62751  -0.62684
 Alpha  occ. eigenvalues --   -0.62165  -0.61280  -0.60554  -0.60084  -0.59137
 Alpha  occ. eigenvalues --   -0.58860  -0.58355  -0.57516  -0.57034  -0.56795
 Alpha  occ. eigenvalues --   -0.56404  -0.56177  -0.56003  -0.54980  -0.54913
 Alpha  occ. eigenvalues --   -0.54589  -0.54004  -0.53621  -0.53392  -0.53080
 Alpha  occ. eigenvalues --   -0.52769  -0.52626  -0.52547  -0.51972  -0.51885
 Alpha  occ. eigenvalues --   -0.51787  -0.51352  -0.51098  -0.51028  -0.50592
 Alpha  occ. eigenvalues --   -0.50539  -0.50286  -0.50036  -0.49880  -0.49746
 Alpha  occ. eigenvalues --   -0.49355  -0.49050  -0.48593  -0.48504  -0.48443
 Alpha  occ. eigenvalues --   -0.48301  -0.48068  -0.47800  -0.47644  -0.47431
 Alpha  occ. eigenvalues --   -0.47311  -0.47012  -0.46532  -0.46383  -0.46063
 Alpha  occ. eigenvalues --   -0.45841  -0.45812  -0.45451  -0.45274  -0.45003
 Alpha  occ. eigenvalues --   -0.44654  -0.44606  -0.44367  -0.44281  -0.44147
 Alpha  occ. eigenvalues --   -0.44064  -0.43924  -0.43442  -0.43045  -0.42973
 Alpha  occ. eigenvalues --   -0.42869  -0.42711  -0.42536  -0.42358  -0.42297
 Alpha  occ. eigenvalues --   -0.42198  -0.42114  -0.41827  -0.41563  -0.41152
 Alpha  occ. eigenvalues --   -0.41067  -0.40965  -0.40745  -0.40544  -0.40401
 Alpha  occ. eigenvalues --   -0.40293  -0.39877  -0.39825  -0.39750  -0.39569
 Alpha  occ. eigenvalues --   -0.39378  -0.38767  -0.38043  -0.37982  -0.37524
 Alpha  occ. eigenvalues --   -0.37110  -0.37026  -0.36919  -0.36718  -0.36579
 Alpha  occ. eigenvalues --   -0.36349  -0.36307  -0.36043  -0.36009  -0.35519
 Alpha  occ. eigenvalues --   -0.35469  -0.34921  -0.34825  -0.33670  -0.33362
 Alpha  occ. eigenvalues --   -0.33216  -0.32829  -0.32548  -0.30133  -0.29345
 Alpha  occ. eigenvalues --   -0.29283  -0.29010  -0.28763  -0.27962  -0.23127
 Alpha  occ. eigenvalues --   -0.20968
 Alpha virt. eigenvalues --   -0.05926  -0.03140   0.01230   0.03947   0.05443
 Alpha virt. eigenvalues --    0.05848   0.06045   0.06261   0.06572   0.07991
 Alpha virt. eigenvalues --    0.08114   0.10284   0.11067   0.11287   0.11634

 Mulliken charges:
               1
     1  Mg   0.826976
     2  C    0.097835
     3  C   -0.201973
     4  C   -0.221259
     5  C   -0.146127
     6  N   -0.642234
     7  C    0.348689
     8  C   -0.192177
     9  C   -0.153399
    10  C    0.335300
    11  C   -0.323027
    12  C   -0.166364
    13  C   -0.238329
    14  C    0.598265
    15  O   -0.485246
    16  O   -0.460609
    17  N   -0.718794
    18  C    0.349570
    19  C   -0.027407
    20  C    0.050595
    21  C    0.298326
    22  C   -0.353495
    23  C   -0.090658
    24  C   -0.241958
    25  N   -0.652905
    26  C    0.313708
    27  C    0.035761
    28  C    0.067592
    29  C    0.239729
    30  C   -0.363345
    31  C   -0.271184
    32  C   -0.307851
    33  N   -0.718025
    34  C    0.289934
    35  C    0.030178
    36  C   -0.031548
    37  C    0.299429
    38  C   -0.373615
    39  C    0.357839
    40  O   -0.469183
    41  C   -0.336742
    42  C    0.618105
    43  O   -0.481259
    44  O   -0.449094
    45  C   -0.071512
    46  C    0.017747
    47  C   -0.155562
    48  C    0.101897
    49  C   -0.349061
    50  C   -0.201257
    51  C   -0.142050
    52  C   -0.184848
    53  C   -0.056753
    54  C   -0.314052
    55  C   -0.158957
    56  C   -0.172407
    57  C   -0.164945
    58  C   -0.069729
    59  C   -0.295587
    60  C   -0.180697
    61  C   -0.175788
    62  C   -0.167693
    63  C   -0.043153
    64  C   -0.334179
    65  C   -0.317055
    66  H    0.065040
    67  H    0.073010
    68  H    0.089711
    69  H    0.139926
    70  H    0.105990
    71  H    0.112210
    72  H    0.118885
    73  H    0.134028
    74  H    0.109699
    75  H    0.125899
    76  H    0.136929
    77  H    0.115826
    78  H    0.125668
    79  H    0.129471
    80  H    0.115733
    81  H    0.097227
    82  H    0.114102
    83  H    0.090041
    84  H    0.127316
    85  H    0.112724
    86  H    0.104369
    87  H    0.118912
    88  H    0.093013
    89  H    0.103114
    90  H    0.078069
    91  H    0.119331
    92  H    0.138602
    93  H    0.137860
    94  H    0.095351
    95  H    0.156775
    96  H    0.100883
    97  H    0.141116
    98  H    0.105027
    99  H    0.136130
   100  H    0.125900
   101  H    0.082559
   102  H    0.071329
   103  H    0.129274
   104  H    0.129512
   105  H    0.082795
   106  H    0.098049
   107  H    0.108713
   108  H    0.095682
   109  H    0.087453
   110  H    0.053894
   111  H    0.074754
   112  H    0.084897
   113  H    0.113025
   114  H    0.105573
   115  H    0.059648
   116  H    0.078931
   117  H    0.054766
   118  H    0.106186
   119  H    0.074469
   120  H    0.088477
   121  H    0.076491
   122  H    0.118575
   123  H    0.095444
   124  H    0.081994
   125  H    0.089660
   126  H    0.098347
   127  H    0.104876
   128  H    0.114303
   129  H    0.065205
   130  H    0.076701
   131  H    0.102893
   132  H    0.093153
   133  H    0.092872
   134  H    0.115035
   135  H    0.110462
   136  H    0.097150
   137  H    0.088578
 Sum of Mulliken charges =   0.00000

 Dipole moment (field-independent basis, Debye):
    X=              1.8941    Y=              5.8139    Z=              0.3016  Tot=              6.1221
 Quadrupole moment (field-independent basis, Debye-Ang):
   XX=           -325.4572   YY=           -396.9880   ZZ=           -400.5634
   XY=            -31.9862   XZ=              7.3186   YZ=             -0.8320

 Normal termination of Gaussian 09 at Sat Jun 29 12:05:04 2019.
