 Gaussian 09, Revision D.01,
 Gaussian 09:  ES64L-G09RevD.01 24-Apr-2013

 -------------------------------------
 # td=(NStates=1) CAM-B3LYP/6-31G(d,p)
 -------------------------------------

 --
 TD
 --
 Symbolic Z-matrix:
 Charge =  0 Multiplicity = 1

                         Standard orientation:
 ---------------------------------------------------------------------
 Center     Atomic      Atomic             Coordinates (Angstroms)
 Number     Number       Type             X           Y           Z
 ---------------------------------------------------------------------
      1         12           0       -7.239971    0.549248    0.148427
      2          6           0       -4.822340   -1.971300    0.502010
      3          6           0       -4.862526    2.883106    1.186172
      4          6           0       -9.422060    3.091249   -0.343640
      5          6           0       -9.541337   -1.780907   -0.838559
      6          7           0       -5.168304    0.463373    0.793247
      7          6           0       -4.306272   -0.676491    0.800882
      8          6           0       -2.897293   -0.326033    1.140881
      9          6           0       -3.029257    1.157311    1.667789
     10          6           0       -4.383927    1.513316    1.153543
     11          6           0       -2.658702    1.423229    3.056317
     12          6           0       -1.909739   -0.585396    0.102726
     13          6           0       -0.518921   -0.258352    0.530825
     14          6           0        0.517529   -0.612045   -0.479853
     15          8           0        0.224436   -1.086782   -1.526060
     16          8           0        1.711113   -0.303919   -0.148362
     17          7           0       -7.120200    2.584616    0.329845
     18          6           0       -6.044741    3.407520    0.767698
     19          6           0       -6.455056    4.802364    0.768631
     20          6           0       -7.757215    4.825637    0.319830
     21          6           0       -8.216210    3.483677    0.027198
     22          6           0       -5.583364    5.855161    1.211689
     23          6           0       -8.583614    6.103450    0.299192
     24          6           0       -8.211371    7.290469    0.126138
     25          7           0       -9.129027    0.653036   -0.473810
     26          6           0       -9.931983    1.791991   -0.632835
     27          6           0      -11.228957    1.457941   -1.082984
     28          6           0      -11.252167    0.133908   -1.198497
     29          6           0       -9.963593   -0.453635   -0.782520
     30          6           0      -12.392057    2.461346   -1.364391
     31          6           0      -12.366117   -0.631507   -1.747083
     32          6           0      -12.181024   -1.098013   -3.219892
     33          7           0       -7.217441   -1.459240   -0.074546
     34          6           0       -8.254936   -2.196631   -0.508993
     35          6           0       -7.740826   -3.635169   -0.651150
     36          6           0       -6.422494   -3.674594   -0.240249
     37          6           0       -6.166330   -2.237501    0.064136
     38          6           0       -8.505702   -4.942597   -0.723959
     39          6           0       -5.301195   -4.411587   -0.004392
     40          8           0       -5.028171   -5.621755   -0.105948
     41          6           0       -4.124895   -3.341955    0.505228
     42          6           0       -3.570189   -3.604470    1.899165
     43          8           0       -3.867416   -3.183763    2.949937
     44          8           0       -2.737412   -4.643290    1.808593
     45          6           0       -2.238830   -5.227261    3.006553
     46          6           0        2.761206   -0.753319   -1.141180
     47          6           0        4.082551   -0.546447   -0.448967
     48          6           0        5.178867    0.107065   -0.939350
     49          6           0        5.110370    1.017394   -2.178495
     50          6           0        6.408196    0.300222   -0.080865
     51          6           0        7.642061   -0.164452   -0.908469
     52          6           0        8.935529   -0.169451   -0.048084
     53          6           0       10.155994   -0.558496   -0.870617
     54          6           0       10.099545   -2.025984   -1.397103
     55          6           0       11.385424   -0.326810    0.068046
     56          6           0       12.870011   -0.583450   -0.602349
     57          6           0       13.964707   -0.110182    0.212442
     58          6           0       15.276165   -0.157283   -0.522462
     59          6           0       15.606985   -1.705712   -0.906975
     60          6           0       16.389193    0.390319    0.395887
     61          6           0       17.761190    0.662352   -0.372016
     62          6           0       18.775423    1.337147    0.589945
     63          6           0       20.247921    1.484854    0.138347
     64          6           0       20.415849    2.291431   -1.067961
     65          6           0       21.165870    1.851559    1.330970
     66          1           0       -4.250244    3.630344    1.547706
     67          1           0      -10.141132    3.746638   -0.384264
     68          1           0      -10.206966   -2.659664   -1.264994
     69          1           0       -2.457090   -0.929997    2.308833
     70          1           0       -2.109635    1.477342    1.041290
     71          1           0       -1.584059    0.737564    3.272757
     72          1           0       -2.375043    2.648003    3.102365
     73          1           0       -3.433884    1.024526    3.775553
     74          1           0       -1.962896   -1.624563   -0.410814
     75          1           0       -2.063938    0.215333   -0.930791
     76          1           0       -0.509798    0.750882    0.737585
     77          1           0       -0.188099   -0.908348    1.431884
     78          1           0       -4.610603    6.263812    0.518201
     79          1           0       -5.971728    6.803721    1.810785
     80          1           0       -4.940934    5.714124    2.169200
     81          1           0       -9.764173    5.946519    0.461121
     82          1           0       -8.854616    8.202406   -0.128501
     83          1           0       -7.200215    7.623664   -0.008766
     84          1           0      -12.097859    3.181480   -2.318016
     85          1           0      -13.388474    1.920756   -1.552508
     86          1           0      -12.538440    3.236498   -0.464570
     87          1           0      -12.412668   -1.643184   -1.107299
     88          1           0      -13.218837   -0.114548   -1.415348
     89          1           0      -13.196438   -1.626390   -3.678146
     90          1           0      -12.080661   -0.194431   -3.819305
     91          1           0      -11.468030   -1.790079   -3.495521
     92          1           0       -9.299941   -5.088803   -1.582918
     93          1           0       -7.741100   -5.690381   -0.482543
     94          1           0       -9.336438   -5.043429    0.110541
     95          1           0       -3.602202   -3.454615   -0.343186
     96          1           0       -1.723274   -4.265409    3.541425
     97          1           0       -2.898700   -5.690981    3.623544
     98          1           0       -1.337316   -5.787795    2.806131
     99          1           0        2.825386   -1.956511   -1.372024
    100          1           0        2.758559   -0.185015   -2.177530
    101          1           0        4.215888   -0.968133    0.490696
    102          1           0        4.015209    1.197992   -2.600027
    103          1           0        5.653094    2.032561   -2.133731
    104          1           0        5.474869    0.540510   -3.163903
    105          1           0        6.492225    1.241854    0.554131
    106          1           0        6.338641   -0.241612    0.735641
    107          1           0        7.414270   -1.299841   -1.257079
    108          1           0        7.917727    0.466491   -1.767538
    109          1           0        9.164817    0.837866    0.416970
    110          1           0        8.888247   -0.726465    0.957268
    111          1           0       10.209312    0.185494   -1.826155
    112          1           0        9.226263   -2.090697   -1.978767
    113          1           0       10.878532   -2.157281   -1.859754
    114          1           0        9.968733   -2.707513   -0.535879
    115          1           0       11.402868    0.790445    0.235161
    116          1           0       11.179544   -0.783713    1.095208
    117          1           0       12.841796   -1.932957   -0.744560
    118          1           0       12.830498   -0.299802   -1.545194
    119          1           0       13.760597    0.950896    0.493491
    120          1           0       14.039393   -0.758889    1.069015
    121          1           0       15.363819    0.435895   -1.273418
    122          1           0       15.570849   -2.223495    0.040252
    123          1           0       14.691516   -2.185195   -1.527005
    124          1           0       16.479547   -1.817802   -1.371416
    125          1           0       16.052398    1.416548    0.798362
    126          1           0       16.689262   -0.375263    1.291299
    127          1           0       17.977536   -0.117031   -0.656826
    128          1           0       17.466056    1.266367   -1.364737
    129          1           0       18.177619    2.184130    0.735876
    130          1           0       18.804930    0.696577    1.654070
    131          1           0       20.463753    0.388630    0.039239
    132          1           0       19.865204    3.314672   -1.111883
    133          1           0       21.309831    2.363641   -1.435973
    134          1           0       19.932666    1.945439   -1.868078
    135          1           0       21.149975    1.279093    2.359665
    136          1           0       22.137327    2.022587    1.034992
    137          1           0       20.808667    2.949189    1.659052
 ---------------------------------------------------------------------

 SCF Done:  E(RCAM-B3LYP) =  -2932.44140447     A.U. after   18 cycles

 Excitation energies and oscillator strengths:

 Excited State   1:      Singlet-A      2.0523 eV  604.11 nm  f=0.2084  <S**2>=0.000
     240 -> 243        0.27142
     241 -> 242        0.64377
 This state for optimization and/or second-order correction.
 Total Energy, E(TD-HF/TD-KS) =  -2932.36598261
 Copying the excited state density for this state as the 1-particle RhoCI density.

 The electronic state is 1-A.
 Alpha  occ. eigenvalues --  -46.83986 -19.27510 -19.24489 -19.20228 -19.20193
 Alpha  occ. eigenvalues --  -19.19409 -14.42690 -14.40529 -14.39639 -14.38823
 Alpha  occ. eigenvalues --  -10.38257 -10.37885 -10.35158 -10.34905 -10.32136
 Alpha  occ. eigenvalues --  -10.31264 -10.30530 -10.29821 -10.29745 -10.29699
 Alpha  occ. eigenvalues --  -10.29603 -10.29558 -10.29525 -10.29488 -10.29266
 Alpha  occ. eigenvalues --  -10.29254 -10.29078 -10.29011 -10.28800 -10.28549
 Alpha  occ. eigenvalues --  -10.28195 -10.28180 -10.28157 -10.27883 -10.27769
 Alpha  occ. eigenvalues --  -10.27516 -10.27502 -10.27421 -10.27382 -10.27191
 Alpha  occ. eigenvalues --  -10.27092 -10.26954 -10.26675 -10.26391 -10.26382
 Alpha  occ. eigenvalues --  -10.26256 -10.26206 -10.26164 -10.26086 -10.26015
 Alpha  occ. eigenvalues --  -10.25779 -10.25724 -10.25605 -10.25539 -10.25503
 Alpha  occ. eigenvalues --  -10.25442 -10.25268 -10.25111 -10.24964 -10.24669
 Alpha  occ. eigenvalues --  -10.24549 -10.24433 -10.23715 -10.22762 -10.22233
 Alpha  occ. eigenvalues --   -3.13104  -1.87800  -1.87342  -1.87295  -1.20644
 Alpha  occ. eigenvalues --   -1.18914  -1.09736  -1.09493  -1.09301  -1.05333
 Alpha  occ. eigenvalues --   -1.03320  -1.01924  -1.00452  -0.92180  -0.91538
 Alpha  occ. eigenvalues --   -0.91065  -0.90735  -0.89484  -0.89363  -0.88959
 Alpha  occ. eigenvalues --   -0.88595  -0.88552  -0.87827  -0.87132  -0.86406
 Alpha  occ. eigenvalues --   -0.85075  -0.84435  -0.83883  -0.83520  -0.82513
 Alpha  occ. eigenvalues --   -0.81209  -0.81121  -0.80554  -0.79756  -0.78195
 Alpha  occ. eigenvalues --   -0.77640  -0.77272  -0.76841  -0.76638  -0.75791
 Alpha  occ. eigenvalues --   -0.75280  -0.74530  -0.74293  -0.73016  -0.72139
 Alpha  occ. eigenvalues --   -0.71847  -0.70647  -0.70349  -0.69422  -0.69302
 Alpha  occ. eigenvalues --   -0.67128  -0.66184  -0.65314  -0.64695  -0.64348
 Alpha  occ. eigenvalues --   -0.64140  -0.63982  -0.63318  -0.62391  -0.61862
 Alpha  occ. eigenvalues --   -0.61797  -0.61288  -0.60716  -0.60135  -0.59676
 Alpha  occ. eigenvalues --   -0.58983  -0.58713  -0.58020  -0.57563  -0.57290
 Alpha  occ. eigenvalues --   -0.56102  -0.55658  -0.55229  -0.54987  -0.54859
 Alpha  occ. eigenvalues --   -0.54335  -0.54044  -0.53822  -0.53534  -0.53439
 Alpha  occ. eigenvalues --   -0.52764  -0.52202  -0.51995  -0.51906  -0.51782
 Alpha  occ. eigenvalues --   -0.51540  -0.51069  -0.50926  -0.50889  -0.50575
 Alpha  occ. eigenvalues --   -0.50422  -0.50261  -0.50090  -0.49621  -0.49512
 Alpha  occ. eigenvalues --   -0.49161  -0.48973  -0.48592  -0.48367  -0.48204
 Alpha  occ. eigenvalues --   -0.47908  -0.47713  -0.47603  -0.47434  -0.46991
 Alpha  occ. eigenvalues --   -0.46846  -0.46683  -0.46551  -0.45617  -0.45581
 Alpha  occ. eigenvalues --   -0.45445  -0.45383  -0.45237  -0.45027  -0.44702
 Alpha  occ. eigenvalues --   -0.44566  -0.44474  -0.44104  -0.44041  -0.43730
 Alpha  occ. eigenvalues --   -0.43708  -0.43573  -0.43303  -0.43134  -0.43051
 Alpha  occ. eigenvalues --   -0.43007  -0.42583  -0.42397  -0.42266  -0.42045
 Alpha  occ. eigenvalues --   -0.42001  -0.41926  -0.41547  -0.41261  -0.41163
 Alpha  occ. eigenvalues --   -0.40834  -0.40706  -0.40576  -0.40338  -0.40266
 Alpha  occ. eigenvalues --   -0.40198  -0.39715  -0.39183  -0.39015  -0.39003
 Alpha  occ. eigenvalues --   -0.38729  -0.38268  -0.38160  -0.37855  -0.37596
 Alpha  occ. eigenvalues --   -0.37495  -0.37452  -0.36949  -0.36890  -0.36581
 Alpha  occ. eigenvalues --   -0.36539  -0.36349  -0.36009  -0.35640  -0.35201
 Alpha  occ. eigenvalues --   -0.34680  -0.34437  -0.34302  -0.33821  -0.33534
 Alpha  occ. eigenvalues --   -0.33231  -0.32982  -0.32767  -0.30497  -0.30330
 Alpha  occ. eigenvalues --   -0.29781  -0.29403  -0.28930  -0.27732  -0.23259
 Alpha  occ. eigenvalues --   -0.21167
 Alpha virt. eigenvalues --   -0.06284  -0.03565   0.00106   0.04161   0.04957
 Alpha virt. eigenvalues --    0.05473   0.06625   0.06935   0.07182   0.08085
 Alpha virt. eigenvalues --    0.08468   0.09256   0.10296   0.11152   0.11295

 Mulliken charges:
               1
     1  Mg   0.825141
     2  C    0.025642
     3  C   -0.205264
     4  C   -0.156168
     5  C   -0.160572
     6  N   -0.607255
     7  C    0.305073
     8  C   -0.135652
     9  C   -0.120443
    10  C    0.357206
    11  C   -0.272167
    12  C   -0.162944
    13  C   -0.256954
    14  C    0.601626
    15  O   -0.473366
    16  O   -0.449838
    17  N   -0.731914
    18  C    0.320923
    19  C    0.110238
    20  C   -0.012951
    21  C    0.339265
    22  C   -0.423188
    23  C   -0.041370
    24  C   -0.254727
    25  N   -0.716563
    26  C    0.267944
    27  C    0.079146
    28  C    0.003119
    29  C    0.285060
    30  C   -0.357649
    31  C   -0.242508
    32  C   -0.299029
    33  N   -0.708735
    34  C    0.288570
    35  C   -0.015669
    36  C    0.140022
    37  C    0.250490
    38  C   -0.384457
    39  C    0.272776
    40  O   -0.478019
    41  C   -0.299948
    42  C    0.623446
    43  O   -0.449788
    44  O   -0.448786
    45  C   -0.071260
    46  C    0.009988
    47  C   -0.138440
    48  C    0.131133
    49  C   -0.368572
    50  C   -0.223303
    51  C   -0.175277
    52  C   -0.175329
    53  C   -0.068289
    54  C   -0.278564
    55  C   -0.187254
    56  C   -0.153098
    57  C   -0.152627
    58  C   -0.052935
    59  C   -0.315070
    60  C   -0.186835
    61  C   -0.149638
    62  C   -0.163187
    63  C   -0.044140
    64  C   -0.309007
    65  C   -0.305893
    66  H    0.061004
    67  H    0.054325
    68  H    0.110390
    69  H    0.069157
    70  H    0.100021
    71  H    0.078935
    72  H    0.093281
    73  H    0.131908
    74  H    0.135064
    75  H    0.073226
    76  H    0.140815
    77  H    0.120775
    78  H    0.103269
    79  H    0.116951
    80  H    0.111858
    81  H    0.081533
    82  H    0.100821
    83  H    0.109932
    84  H    0.107028
    85  H    0.115199
    86  H    0.109293
    87  H    0.078957
    88  H    0.109176
    89  H    0.072128
    90  H    0.115957
    91  H    0.127509
    92  H    0.109053
    93  H    0.158254
    94  H    0.116891
    95  H    0.167671
    96  H    0.087140
    97  H    0.141191
    98  H    0.124411
    99  H    0.129161
   100  H    0.126595
   101  H    0.094161
   102  H    0.093769
   103  H    0.119058
   104  H    0.111294
   105  H    0.100466
   106  H    0.109879
   107  H    0.089724
   108  H    0.106066
   109  H    0.083240
   110  H    0.078526
   111  H    0.056585
   112  H    0.099511
   113  H    0.109397
   114  H    0.093373
   115  H    0.080032
   116  H    0.086413
   117  H    0.028947
   118  H    0.107524
   119  H    0.088779
   120  H    0.104951
   121  H    0.087713
   122  H    0.105677
   123  H    0.084916
   124  H    0.110859
   125  H    0.075751
   126  H    0.065805
   127  H    0.090881
   128  H    0.058777
   129  H    0.098187
   130  H    0.058663
   131  H    0.088601
   132  H    0.086569
   133  H    0.109601
   134  H    0.118125
   135  H    0.094823
   136  H    0.110203
   137  H    0.072107
 Sum of Mulliken charges =   0.00000

 Dipole moment (field-independent basis, Debye):
    X=              2.0866    Y=              4.9904    Z=              0.0673  Tot=              5.4095
 Quadrupole moment (field-independent basis, Debye-Ang):
   XX=           -339.7595   YY=           -397.4797   ZZ=           -397.6408
   XY=            -20.7092   XZ=             -0.9788   YZ=             -4.2737

 Normal termination of Gaussian 09 at Thu Jun 27 10:27:49 2019.
