 Gaussian 09, Revision D.01,
 Gaussian 09:  ES64L-G09RevD.01 24-Apr-2013

 -------------------------------------
 # td=(NStates=1) CAM-B3LYP/6-31G(d,p)
 -------------------------------------

 --
 TD
 --
 Symbolic Z-matrix:
 Charge =  0 Multiplicity = 1

                         Standard orientation:
 ---------------------------------------------------------------------
 Center     Atomic      Atomic             Coordinates (Angstroms)
 Number     Number       Type             X           Y           Z
 ---------------------------------------------------------------------
      1         12           0       -7.140447    0.627430    0.107514
      2          6           0       -4.935331   -2.001038    0.566920
      3          6           0       -4.788710    2.784276    1.060726
      4          6           0       -9.471841    3.009888   -0.322117
      5          6           0       -9.491357   -1.727484   -0.772669
      6          7           0       -5.076208    0.417121    0.701850
      7          6           0       -4.368156   -0.664532    0.848501
      8          6           0       -2.913714   -0.484067    1.269073
      9          6           0       -2.949965    0.953283    1.699505
     10          6           0       -4.366186    1.468586    1.077148
     11          6           0       -2.802476    1.214296    3.249072
     12          6           0       -1.933643   -0.670840    0.106395
     13          6           0       -0.549794   -0.286582    0.417667
     14          6           0        0.470671   -0.625065   -0.568225
     15          8           0        0.224773   -1.153782   -1.588296
     16          8           0        1.750862   -0.206472   -0.247831
     17          7           0       -7.062446    2.614461    0.307167
     18          6           0       -6.124473    3.406099    0.759045
     19          6           0       -6.507427    4.766546    0.915641
     20          6           0       -7.833600    4.801681    0.492194
     21          6           0       -8.245274    3.527242    0.185007
     22          6           0       -5.617191    5.780673    1.419444
     23          6           0       -8.648034    5.965792    0.353474
     24          6           0       -8.207153    7.164916    0.074830
     25          7           0       -9.112728    0.638435   -0.466988
     26          6           0       -9.911870    1.747228   -0.605560
     27          6           0      -11.270668    1.438675   -1.115203
     28          6           0      -11.226161    0.103404   -1.216113
     29          6           0       -9.957808   -0.369757   -0.746667
     30          6           0      -12.355754    2.401743   -1.346333
     31          6           0      -12.385768   -0.800131   -1.690949
     32          6           0      -12.274857   -0.919004   -3.209264
     33          7           0       -7.226024   -1.404983   -0.288105
     34          6           0       -8.271649   -2.250209   -0.662711
     35          6           0       -7.820905   -3.632432   -0.504806
     36          6           0       -6.480574   -3.512652   -0.206476
     37          6           0       -6.142915   -2.187340   -0.036441
     38          6           0       -8.568756   -4.884135   -0.817057
     39          6           0       -5.286193   -4.325601    0.059266
     40          8           0       -5.107460   -5.587619    0.089133
     41          6           0       -4.118254   -3.276868    0.503533
     42          6           0       -3.511421   -3.702712    1.817056
     43          8           0       -3.696309   -3.126171    2.874002
     44          8           0       -2.618381   -4.697599    1.669561
     45          6           0       -1.889504   -5.156585    2.839194
     46          6           0        2.821747   -0.598691   -1.162956
     47          6           0        4.106483   -0.393010   -0.525176
     48          6           0        5.067564    0.405375   -0.917074
     49          6           0        5.057362    1.103151   -2.223811
     50          6           0        6.361371    0.502299   -0.151113
     51          6           0        7.630979   -0.053032   -0.925885
     52          6           0        8.891916   -0.109151   -0.047579
     53          6           0       10.178054   -0.509941   -0.775569
     54          6           0       10.123726   -1.969759   -1.193643
     55          6           0       11.393872   -0.254988    0.176467
     56          6           0       12.787728   -0.459239   -0.684661
     57          6           0       13.934277   -0.107495    0.265705
     58          6           0       15.377136   -0.224542   -0.372693
     59          6           0       15.642809   -1.716353   -0.772802
     60          6           0       16.424463    0.393304    0.426401
     61          6           0       17.817990    0.579732   -0.201631
     62          6           0       18.822749    1.350362    0.628515
     63          6           0       20.346288    1.250872    0.116230
     64          6           0       20.257805    2.129167   -1.237155
     65          6           0       21.148294    1.909025    1.112128
     66          1           0       -4.196785    3.580793    1.621702
     67          1           0      -10.229192    3.801776   -0.415344
     68          1           0      -10.135185   -2.484817   -0.819259
     69          1           0       -2.790022   -1.208825    2.230154
     70          1           0       -2.148809    1.562754    1.251361
     71          1           0       -1.737766    0.900423    3.594419
     72          1           0       -2.952837    2.444051    3.343598
     73          1           0       -3.757375    0.734519    3.659677
     74          1           0       -1.848375   -1.781496   -0.095425
     75          1           0       -2.268267    0.020825   -0.765482
     76          1           0       -0.230357    0.755763    0.541932
     77          1           0       -0.261028   -0.818107    1.296497
     78          1           0       -4.890659    5.932261    0.691169
     79          1           0       -6.195018    6.661530    1.754668
     80          1           0       -4.919091    5.342334    2.241779
     81          1           0       -9.803659    5.742642    0.510867
     82          1           0       -8.948619    7.924770   -0.198811
     83          1           0       -7.135521    7.478667   -0.297421
     84          1           0      -11.917554    3.087001   -2.109346
     85          1           0      -13.429135    1.839147   -1.567218
     86          1           0      -12.599427    3.029631   -0.526495
     87          1           0      -12.441565   -1.748466   -1.150559
     88          1           0      -13.422545   -0.348433   -1.419499
     89          1           0      -13.109080   -1.591497   -3.636090
     90          1           0      -12.464899   -0.096516   -4.000066
     91          1           0      -11.339830   -1.467449   -3.446963
     92          1           0       -9.015819   -4.987894   -1.882201
     93          1           0       -7.977075   -5.746037   -0.641344
     94          1           0       -9.547633   -5.070615   -0.172881
     95          1           0       -3.379963   -3.239058   -0.328986
     96          1           0       -1.453234   -4.271941    3.515038
     97          1           0       -2.558127   -5.611965    3.585676
     98          1           0       -1.091381   -6.098290    2.592283
     99          1           0        2.789027   -1.648826   -1.391136
    100          1           0        2.798048   -0.194302   -2.277006
    101          1           0        4.303975   -0.815824    0.269952
    102          1           0        4.029178    1.257553   -2.427951
    103          1           0        5.495677    2.020000   -2.281958
    104          1           0        5.487260    0.757739   -3.126747
    105          1           0        6.472947    1.641551   -0.117390
    106          1           0        6.151873    0.022458    0.885606
    107          1           0        7.288963   -1.064173   -1.380430
    108          1           0        7.741014    0.434323   -1.899879
    109          1           0        9.044228    0.938357    0.472595
    110          1           0        8.648274   -0.698811    0.823307
    111          1           0       10.238010    0.029771   -1.743182
    112          1           0        9.363621   -2.261486   -1.946175
    113          1           0       11.015600   -2.397754   -1.780427
    114          1           0       10.048234   -2.522990   -0.378306
    115          1           0       11.340029    0.832665    0.619741
    116          1           0       11.432516   -1.098338    1.081940
    117          1           0       12.590744   -1.714224   -1.079508
    118          1           0       12.663795    0.109834   -1.590660
    119          1           0       13.784434    0.959690    0.470012
    120          1           0       14.040705   -0.882289    1.026646
    121          1           0       15.240363    0.426754   -1.234181
    122          1           0       15.584702   -2.352194    0.221795
    123          1           0       14.829589   -2.046741   -1.406195
    124          1           0       16.556449   -2.107474   -1.281894
    125          1           0       16.229789    1.450610    0.738858
    126          1           0       16.509231   -0.219176    1.441959
    127          1           0       18.337438   -0.395327   -0.472641
    128          1           0       17.671662    1.220668   -1.194772
    129          1           0       18.636305    2.438706    0.811310
    130          1           0       18.732073    0.889865    1.690922
    131          1           0       20.483026    0.222401   -0.194829
    132          1           0       19.826072    3.167911   -1.173772
    133          1           0       21.374804    2.169799   -1.504547
    134          1           0       19.601947    1.901066   -2.125713
    135          1           0       21.070296    1.271767    2.141178
    136          1           0       22.142274    2.111105    0.872398
    137          1           0       20.585596    2.960366    1.482669
 ---------------------------------------------------------------------

 SCF Done:  E(RCAM-B3LYP) =  -2932.69108042     A.U. after   15 cycles

 Excitation energies and oscillator strengths:

 Excited State   1:      Singlet-A      2.0742 eV  597.74 nm  f=0.2135  <S**2>=0.000
     240 -> 242       -0.14184
     240 -> 243       -0.25292
     241 -> 242        0.63107
 This state for optimization and/or second-order correction.
 Total Energy, E(TD-HF/TD-KS) =  -2932.61485493
 Copying the excited state density for this state as the 1-particle RhoCI density.

 The electronic state is 1-A.
 Alpha  occ. eigenvalues --  -46.84732 -19.27111 -19.25595 -19.21220 -19.21155
 Alpha  occ. eigenvalues --  -19.20625 -14.42030 -14.39681 -14.38934 -14.38515
 Alpha  occ. eigenvalues --  -10.39831 -10.38359 -10.36456 -10.34038 -10.31761
 Alpha  occ. eigenvalues --  -10.31705 -10.30527 -10.29618 -10.29282 -10.29223
 Alpha  occ. eigenvalues --  -10.28981 -10.28779 -10.28471 -10.28288 -10.28279
 Alpha  occ. eigenvalues --  -10.28169 -10.28151 -10.28013 -10.27841 -10.27620
 Alpha  occ. eigenvalues --  -10.27545 -10.27504 -10.27495 -10.27495 -10.27382
 Alpha  occ. eigenvalues --  -10.27319 -10.26979 -10.26848 -10.26619 -10.26585
 Alpha  occ. eigenvalues --  -10.26554 -10.26471 -10.26428 -10.26424 -10.26295
 Alpha  occ. eigenvalues --  -10.26293 -10.26261 -10.26158 -10.26093 -10.26068
 Alpha  occ. eigenvalues --  -10.25922 -10.25773 -10.25639 -10.25587 -10.25478
 Alpha  occ. eigenvalues --  -10.25472 -10.25453 -10.25412 -10.25388 -10.25306
 Alpha  occ. eigenvalues --  -10.25289 -10.25213 -10.23891 -10.23490 -10.22984
 Alpha  occ. eigenvalues --   -3.13708  -1.88416  -1.87977  -1.87856  -1.18320
 Alpha  occ. eigenvalues --   -1.17963  -1.09549  -1.09234  -1.08415  -1.06572
 Alpha  occ. eigenvalues --   -1.04374  -1.03479  -1.02257  -0.93010  -0.92106
 Alpha  occ. eigenvalues --   -0.91463  -0.90288  -0.89869  -0.89405  -0.88908
 Alpha  occ. eigenvalues --   -0.88328  -0.88288  -0.87526  -0.86464  -0.86441
 Alpha  occ. eigenvalues --   -0.84571  -0.84315  -0.84161  -0.83157  -0.82873
 Alpha  occ. eigenvalues --   -0.81459  -0.81230  -0.80305  -0.79520  -0.78478
 Alpha  occ. eigenvalues --   -0.78130  -0.77490  -0.76996  -0.75886  -0.75042
 Alpha  occ. eigenvalues --   -0.74894  -0.74520  -0.74186  -0.73038  -0.72244
 Alpha  occ. eigenvalues --   -0.71038  -0.70719  -0.69308  -0.68510  -0.68299
 Alpha  occ. eigenvalues --   -0.66923  -0.66107  -0.65157  -0.64417  -0.64165
 Alpha  occ. eigenvalues --   -0.64116  -0.63175  -0.62905  -0.62638  -0.62196
 Alpha  occ. eigenvalues --   -0.61571  -0.61261  -0.60458  -0.60114  -0.59544
 Alpha  occ. eigenvalues --   -0.58831  -0.58260  -0.57973  -0.57558  -0.57039
 Alpha  occ. eigenvalues --   -0.56181  -0.55779  -0.55100  -0.54944  -0.54625
 Alpha  occ. eigenvalues --   -0.54397  -0.54087  -0.54015  -0.53336  -0.52834
 Alpha  occ. eigenvalues --   -0.52525  -0.52492  -0.52102  -0.52059  -0.51549
 Alpha  occ. eigenvalues --   -0.51294  -0.50853  -0.50716  -0.50510  -0.50227
 Alpha  occ. eigenvalues --   -0.50155  -0.50047  -0.50018  -0.49621  -0.49243
 Alpha  occ. eigenvalues --   -0.49068  -0.48751  -0.48646  -0.48348  -0.48092
 Alpha  occ. eigenvalues --   -0.47792  -0.47584  -0.47376  -0.47264  -0.47051
 Alpha  occ. eigenvalues --   -0.46791  -0.46421  -0.46187  -0.46181  -0.45874
 Alpha  occ. eigenvalues --   -0.45609  -0.45471  -0.45374  -0.44912  -0.44755
 Alpha  occ. eigenvalues --   -0.44531  -0.44504  -0.44406  -0.44358  -0.44073
 Alpha  occ. eigenvalues --   -0.44011  -0.43852  -0.43678  -0.43497  -0.43323
 Alpha  occ. eigenvalues --   -0.43126  -0.42930  -0.42563  -0.42324  -0.42213
 Alpha  occ. eigenvalues --   -0.41935  -0.41825  -0.41662  -0.41334  -0.41190
 Alpha  occ. eigenvalues --   -0.41129  -0.41065  -0.40509  -0.40204  -0.39973
 Alpha  occ. eigenvalues --   -0.39579  -0.39555  -0.39337  -0.39233  -0.39190
 Alpha  occ. eigenvalues --   -0.38909  -0.38708  -0.38494  -0.37961  -0.37742
 Alpha  occ. eigenvalues --   -0.37604  -0.37561  -0.37051  -0.36903  -0.36894
 Alpha  occ. eigenvalues --   -0.36384  -0.36362  -0.35851  -0.35693  -0.35474
 Alpha  occ. eigenvalues --   -0.35427  -0.35318  -0.34175  -0.34097  -0.33933
 Alpha  occ. eigenvalues --   -0.33369  -0.32559  -0.32553  -0.30706  -0.30364
 Alpha  occ. eigenvalues --   -0.29825  -0.29659  -0.28964  -0.26824  -0.22772
 Alpha  occ. eigenvalues --   -0.21286
 Alpha virt. eigenvalues --   -0.06372  -0.02807   0.00809   0.04472   0.05303
 Alpha virt. eigenvalues --    0.05808   0.06641   0.06738   0.07035   0.07863
 Alpha virt. eigenvalues --    0.08654   0.10282   0.10971   0.11263   0.11300

 Mulliken charges:
               1
     1  Mg   0.823142
     2  C    0.015949
     3  C   -0.217210
     4  C   -0.189886
     5  C   -0.177290
     6  N   -0.588712
     7  C    0.317624
     8  C   -0.172332
     9  C   -0.139746
    10  C    0.314942
    11  C   -0.284288
    12  C   -0.160448
    13  C   -0.260888
    14  C    0.598900
    15  O   -0.445752
    16  O   -0.510505
    17  N   -0.694099
    18  C    0.309777
    19  C    0.028072
    20  C    0.055018
    21  C    0.212179
    22  C   -0.386146
    23  C   -0.075330
    24  C   -0.261663
    25  N   -0.666441
    26  C    0.279721
    27  C    0.090355
    28  C   -0.005166
    29  C    0.306600
    30  C   -0.373627
    31  C   -0.231390
    32  C   -0.307803
    33  N   -0.730947
    34  C    0.268654
    35  C    0.046724
    36  C    0.032551
    37  C    0.330774
    38  C   -0.392512
    39  C    0.351165
    40  O   -0.480673
    41  C   -0.327567
    42  C    0.649692
    43  O   -0.474454
    44  O   -0.444563
    45  C   -0.088908
    46  C    0.014103
    47  C   -0.072450
    48  C    0.115078
    49  C   -0.380839
    50  C   -0.223487
    51  C   -0.180806
    52  C   -0.159372
    53  C   -0.058924
    54  C   -0.309781
    55  C   -0.168335
    56  C   -0.173116
    57  C   -0.161166
    58  C   -0.064746
    59  C   -0.316268
    60  C   -0.149669
    61  C   -0.163312
    62  C   -0.167605
    63  C   -0.046441
    64  C   -0.317571
    65  C   -0.278818
    66  H    0.059789
    67  H    0.074419
    68  H    0.064355
    69  H    0.141135
    70  H    0.103481
    71  H    0.111389
    72  H    0.082264
    73  H    0.122578
    74  H    0.119402
    75  H    0.118300
    76  H    0.140531
    77  H    0.139193
    78  H    0.136499
    79  H    0.122834
    80  H    0.103052
    81  H    0.090076
    82  H    0.098677
    83  H    0.107650
    84  H    0.130081
    85  H    0.101464
    86  H    0.134993
    87  H    0.114519
    88  H    0.089023
    89  H    0.082572
    90  H    0.111111
    91  H    0.115035
    92  H    0.127097
    93  H    0.158417
    94  H    0.109296
    95  H    0.171170
    96  H    0.119859
    97  H    0.139276
    98  H    0.116558
    99  H    0.126002
   100  H    0.106015
   101  H    0.053991
   102  H    0.113580
   103  H    0.111755
   104  H    0.122943
   105  H    0.095721
   106  H    0.085219
   107  H    0.087727
   108  H    0.096259
   109  H    0.075563
   110  H    0.100890
   111  H    0.086572
   112  H    0.098148
   113  H    0.088170
   114  H    0.116268
   115  H    0.080824
   116  H    0.073404
   117  H    0.056051
   118  H    0.102004
   119  H    0.101315
   120  H    0.101716
   121  H    0.078636
   122  H    0.076869
   123  H    0.112986
   124  H    0.104551
   125  H    0.084343
   126  H    0.060695
   127  H    0.086258
   128  H    0.069160
   129  H    0.086443
   130  H    0.064912
   131  H    0.102882
   132  H    0.094817
   133  H    0.083795
   134  H    0.103870
   135  H    0.085720
   136  H    0.108416
   137  H    0.079444
 Sum of Mulliken charges =   0.00000

 Dipole moment (field-independent basis, Debye):
    X=              0.6590    Y=              2.8917    Z=             -0.1015  Tot=              2.9676
 Quadrupole moment (field-independent basis, Debye-Ang):
   XX=           -344.9922   YY=           -396.6566   ZZ=           -398.6708
   XY=            -14.0425   XZ=              5.5839   YZ=             -7.0513

 Normal termination of Gaussian 09 at Thu Jun 27 23:18:01 2019.
