 Gaussian 09, Revision D.01,
 Gaussian 09:  ES64L-G09RevD.01 24-Apr-2013

 -------------------------------------
 # td=(NStates=1) CAM-B3LYP/6-31G(d,p)
 -------------------------------------

 --
 TD
 --
 Symbolic Z-matrix:
 Charge =  0 Multiplicity = 1

                         Standard orientation:
 ---------------------------------------------------------------------
 Center     Atomic      Atomic             Coordinates (Angstroms)
 Number     Number       Type             X           Y           Z
 ---------------------------------------------------------------------
      1         12           0       -7.160466    0.628759    0.058958
      2          6           0       -4.856019   -1.888606    0.423678
      3          6           0       -4.752430    2.791523    1.175903
      4          6           0       -9.371776    3.052108   -0.347419
      5          6           0       -9.633564   -1.712471   -0.845761
      6          7           0       -5.062122    0.542264    0.592696
      7          6           0       -4.351254   -0.678334    0.651385
      8          6           0       -2.869483   -0.418347    1.100095
      9          6           0       -3.008544    1.093329    1.549778
     10          6           0       -4.390690    1.516811    1.133628
     11          6           0       -2.858665    1.290127    3.038053
     12          6           0       -1.878362   -0.760524    0.070229
     13          6           0       -0.452954   -0.531065    0.571491
     14          6           0        0.582427   -0.738059   -0.585682
     15          8           0        0.273882   -1.152101   -1.645086
     16          8           0        1.834288   -0.309454   -0.150939
     17          7           0       -7.091315    2.651694    0.314565
     18          6           0       -6.063316    3.343139    0.873284
     19          6           0       -6.365903    4.674680    0.847106
     20          6           0       -7.708452    4.884620    0.425435
     21          6           0       -8.134700    3.469023    0.055908
     22          6           0       -5.542779    5.901033    1.235720
     23          6           0       -8.640579    5.975221    0.278335
     24          6           0       -8.333510    7.231365   -0.096068
     25          7           0       -9.122169    0.619207   -0.476900
     26          6           0       -9.883280    1.830351   -0.586046
     27          6           0      -11.204943    1.439670   -1.115572
     28          6           0      -11.229657    0.103127   -1.155952
     29          6           0      -10.044607   -0.350795   -0.853954
     30          6           0      -12.377991    2.398347   -1.374852
     31          6           0      -12.405260   -0.865794   -1.541422
     32          6           0      -12.318815   -1.295592   -2.970323
     33          7           0       -7.292596   -1.355607   -0.160984
     34          6           0       -8.316438   -2.293951   -0.385706
     35          6           0       -7.841471   -3.573444   -0.459023
     36          6           0       -6.456343   -3.434194   -0.137638
     37          6           0       -6.199924   -2.105363    0.023620
     38          6           0       -8.672424   -4.840822   -0.719394
     39          6           0       -5.267878   -4.309578    0.123078
     40          8           0       -5.083618   -5.444633    0.006887
     41          6           0       -4.134473   -3.207101    0.490808
     42          6           0       -3.451607   -3.628628    1.732635
     43          8           0       -3.577086   -3.056907    2.816783
     44          8           0       -2.674990   -4.665507    1.623756
     45          6           0       -2.102804   -5.160894    2.785949
     46          6           0        2.824496   -0.646351   -1.130612
     47          6           0        4.137388   -0.495999   -0.462383
     48          6           0        5.225095    0.357986   -0.857484
     49          6           0        5.171548    1.187799   -2.123884
     50          6           0        6.416941    0.368024    0.014115
     51          6           0        7.590759   -0.216148   -0.738757
     52          6           0        8.925085   -0.233500    0.030707
     53          6           0       10.219557   -0.653439   -0.653790
     54          6           0       10.074643   -2.156757   -1.055144
     55          6           0       11.490402   -0.325486    0.157808
     56          6           0       12.721371   -0.499624   -0.655378
     57          6           0       13.874605   -0.092474    0.163001
     58          6           0       15.269756   -0.078659   -0.545217
     59          6           0       15.556909   -1.525529   -1.170108
     60          6           0       16.274193    0.497786    0.393009
     61          6           0       17.713357    0.612283   -0.123632
     62          6           0       18.752978    1.326007    0.640851
     63          6           0       20.243103    1.281602    0.081570
     64          6           0       20.312752    2.155933   -1.156081
     65          6           0       21.159180    1.907302    1.193547
     66          1           0       -3.995411    3.600747    1.611381
     67          1           0      -10.061884    3.871819   -0.582727
     68          1           0      -10.358871   -2.279915   -1.028552
     69          1           0       -2.706870   -0.813428    2.284096
     70          1           0       -2.163398    1.683851    0.980322
     71          1           0       -1.899615    0.702367    3.639258
     72          1           0       -3.193947    2.193817    3.465477
     73          1           0       -3.602753    0.801450    3.401955
     74          1           0       -2.034196   -1.802159   -0.276798
     75          1           0       -2.035227   -0.202884   -0.955393
     76          1           0       -0.193353    0.482369    0.972569
     77          1           0       -0.274993   -1.152326    1.383744
     78          1           0       -4.933410    6.348526    0.453297
     79          1           0       -6.160372    6.721603    1.712082
     80          1           0       -4.697669    5.688192    1.960228
     81          1           0       -9.673170    5.771242    0.561178
     82          1           0       -9.117752    7.814956   -0.069884
     83          1           0       -7.196310    7.560852   -0.101595
     84          1           0      -12.331286    2.779820   -2.420883
     85          1           0      -13.390838    1.844615   -1.362834
     86          1           0      -12.337177    3.456305   -0.748614
     87          1           0      -12.603494   -1.673937   -0.946692
     88          1           0      -13.279326   -0.161415   -1.551211
     89          1           0      -13.266856   -1.727545   -3.140635
     90          1           0      -12.071762   -0.436579   -3.652767
     91          1           0      -11.508102   -2.004289   -3.053464
     92          1           0       -9.209405   -4.865820   -1.824362
     93          1           0       -7.875408   -5.532260   -0.766918
     94          1           0       -9.271972   -5.222790    0.110489
     95          1           0       -3.343689   -3.223730   -0.313884
     96          1           0       -1.612987   -4.431396    3.335569
     97          1           0       -2.900522   -5.350031    3.387505
     98          1           0       -1.415408   -5.962881    2.440063
     99          1           0        2.537454   -1.758586   -1.185501
    100          1           0        2.743389   -0.061165   -2.028593
    101          1           0        4.273765   -1.057954    0.445294
    102          1           0        4.195358    1.339507   -2.413660
    103          1           0        5.555605    2.013701   -1.855025
    104          1           0        5.668687    0.742212   -3.148334
    105          1           0        6.701714    1.378426    0.287361
    106          1           0        6.259662   -0.131325    0.980180
    107          1           0        7.288512   -1.146176   -1.215403
    108          1           0        7.973175    0.345098   -1.585934
    109          1           0        9.237794    0.753818    0.386818
    110          1           0        8.699341   -0.824943    0.962641
    111          1           0       10.208419   -0.180514   -1.568729
    112          1           0        9.101751   -2.202478   -1.497321
    113          1           0       10.925424   -2.460301   -1.752494
    114          1           0       10.144059   -2.650658   -0.062917
    115          1           0       11.379305    0.662468    0.538376
    116          1           0       11.389955   -0.929261    1.039562
    117          1           0       12.685005   -1.582495   -1.241605
    118          1           0       12.583949    0.277360   -1.571048
    119          1           0       13.539029    0.849291    0.530791
    120          1           0       13.872151   -0.617381    1.191479
    121          1           0       15.186966    0.627893   -1.427164
    122          1           0       15.665212   -2.408300   -0.366769
    123          1           0       14.638322   -1.692288   -1.726190
    124          1           0       16.518723   -1.567714   -1.701333
    125          1           0       15.807333    1.533007    0.776634
    126          1           0       16.433504   -0.240500    1.258490
    127          1           0       18.233115   -0.430179   -0.186074
    128          1           0       17.660045    0.839126   -1.168939
    129          1           0       18.667452    2.460304    0.775043
    130          1           0       18.741449    0.933067    1.570978
    131          1           0       20.582687    0.059807   -0.091823
    132          1           0       19.699789    3.264311   -0.998258
    133          1           0       21.264312    2.338193   -1.500718
    134          1           0       19.832970    1.629571   -1.895299
    135          1           0       21.251176    1.121848    1.980405
    136          1           0       22.199588    1.893219    0.794853
    137          1           0       20.600612    2.851661    1.483208
 ---------------------------------------------------------------------

 SCF Done:  E(RCAM-B3LYP) =  -2932.67206504     A.U. after   18 cycles

 Excitation energies and oscillator strengths:

 Excited State   1:      Singlet-A      2.0485 eV  605.26 nm  f=0.2502  <S**2>=0.000
     240 -> 243       -0.23261
     241 -> 242        0.65957
 This state for optimization and/or second-order correction.
 Total Energy, E(TD-HF/TD-KS) =  -2932.59678545
 Copying the excited state density for this state as the 1-particle RhoCI density.

 The electronic state is 1-A.
 Alpha  occ. eigenvalues --  -46.83674 -19.26011 -19.25507 -19.22016 -19.21260
 Alpha  occ. eigenvalues --  -19.18955 -14.40965 -14.39131 -14.38880 -14.38558
 Alpha  occ. eigenvalues --  -10.39028 -10.38142 -10.35231 -10.31350 -10.30018
 Alpha  occ. eigenvalues --  -10.29584 -10.29497 -10.29477 -10.29464 -10.29385
 Alpha  occ. eigenvalues --  -10.28838 -10.28525 -10.28295 -10.27880 -10.27739
 Alpha  occ. eigenvalues --  -10.27713 -10.27670 -10.27667 -10.27648 -10.27551
 Alpha  occ. eigenvalues --  -10.27481 -10.27312 -10.27247 -10.27204 -10.27166
 Alpha  occ. eigenvalues --  -10.26972 -10.26858 -10.26699 -10.26684 -10.26642
 Alpha  occ. eigenvalues --  -10.26623 -10.26516 -10.26370 -10.26179 -10.26132
 Alpha  occ. eigenvalues --  -10.26118 -10.26089 -10.26037 -10.25909 -10.25560
 Alpha  occ. eigenvalues --  -10.25323 -10.25262 -10.25211 -10.25136 -10.25118
 Alpha  occ. eigenvalues --  -10.24968 -10.24881 -10.24854 -10.24746 -10.24627
 Alpha  occ. eigenvalues --  -10.24419 -10.24368 -10.24361 -10.24350 -10.24261
 Alpha  occ. eigenvalues --   -3.12752  -1.87461  -1.87035  -1.86888  -1.20184
 Alpha  occ. eigenvalues --   -1.18165  -1.14940  -1.10925  -1.07536  -1.04643
 Alpha  occ. eigenvalues --   -1.03852  -1.03321  -1.02356  -0.92556  -0.91759
 Alpha  occ. eigenvalues --   -0.90759  -0.90169  -0.89667  -0.89518  -0.88963
 Alpha  occ. eigenvalues --   -0.88271  -0.88092  -0.87475  -0.86427  -0.85870
 Alpha  occ. eigenvalues --   -0.85432  -0.84608  -0.83991  -0.83755  -0.83330
 Alpha  occ. eigenvalues --   -0.82089  -0.81680  -0.80796  -0.80523  -0.78108
 Alpha  occ. eigenvalues --   -0.77812  -0.77269  -0.76637  -0.76537  -0.75730
 Alpha  occ. eigenvalues --   -0.75420  -0.74971  -0.74840  -0.73783  -0.72408
 Alpha  occ. eigenvalues --   -0.71274  -0.70446  -0.69378  -0.68790  -0.68143
 Alpha  occ. eigenvalues --   -0.67418  -0.66822  -0.65416  -0.64827  -0.64320
 Alpha  occ. eigenvalues --   -0.63702  -0.63360  -0.62851  -0.62418  -0.61876
 Alpha  occ. eigenvalues --   -0.61207  -0.60767  -0.60553  -0.59959  -0.59344
 Alpha  occ. eigenvalues --   -0.58776  -0.58384  -0.57826  -0.57689  -0.57184
 Alpha  occ. eigenvalues --   -0.56789  -0.56472  -0.55799  -0.55293  -0.54943
 Alpha  occ. eigenvalues --   -0.54537  -0.54233  -0.53849  -0.53772  -0.53231
 Alpha  occ. eigenvalues --   -0.53172  -0.52709  -0.52373  -0.52063  -0.51709
 Alpha  occ. eigenvalues --   -0.51436  -0.51315  -0.51161  -0.50841  -0.50494
 Alpha  occ. eigenvalues --   -0.50367  -0.50254  -0.49930  -0.49682  -0.49320
 Alpha  occ. eigenvalues --   -0.49155  -0.49114  -0.48906  -0.48656  -0.48499
 Alpha  occ. eigenvalues --   -0.48127  -0.48077  -0.47850  -0.47253  -0.47123
 Alpha  occ. eigenvalues --   -0.46947  -0.46789  -0.46533  -0.46135  -0.46075
 Alpha  occ. eigenvalues --   -0.45758  -0.45627  -0.45444  -0.45302  -0.44728
 Alpha  occ. eigenvalues --   -0.44609  -0.44536  -0.44451  -0.44375  -0.44216
 Alpha  occ. eigenvalues --   -0.44139  -0.44024  -0.43810  -0.43632  -0.43455
 Alpha  occ. eigenvalues --   -0.43385  -0.43051  -0.42954  -0.42540  -0.42459
 Alpha  occ. eigenvalues --   -0.42111  -0.41950  -0.41854  -0.41803  -0.41534
 Alpha  occ. eigenvalues --   -0.41483  -0.41317  -0.41152  -0.41058  -0.40872
 Alpha  occ. eigenvalues --   -0.40718  -0.40265  -0.40141  -0.39750  -0.38898
 Alpha  occ. eigenvalues --   -0.38780  -0.38128  -0.38086  -0.37755  -0.37458
 Alpha  occ. eigenvalues --   -0.37414  -0.36979  -0.36938  -0.36680  -0.36347
 Alpha  occ. eigenvalues --   -0.36115  -0.35842  -0.35719  -0.35399  -0.35339
 Alpha  occ. eigenvalues --   -0.35259  -0.34852  -0.34537  -0.34361  -0.33889
 Alpha  occ. eigenvalues --   -0.33139  -0.32849  -0.32167  -0.31204  -0.29599
 Alpha  occ. eigenvalues --   -0.29360  -0.28269  -0.28143  -0.27526  -0.22906
 Alpha  occ. eigenvalues --   -0.22256
 Alpha virt. eigenvalues --   -0.07569  -0.02869   0.02786   0.04224   0.04271
 Alpha virt. eigenvalues --    0.06194   0.06534   0.07107   0.07272   0.08086
 Alpha virt. eigenvalues --    0.09032   0.10469   0.11544   0.11706   0.11872

 Mulliken charges:
               1
     1  Mg   0.799932
     2  C    0.124784
     3  C   -0.204392
     4  C   -0.187718
     5  C   -0.109335
     6  N   -0.645472
     7  C    0.232953
     8  C   -0.135620
     9  C   -0.149585
    10  C    0.391010
    11  C   -0.319583
    12  C   -0.176276
    13  C   -0.269849
    14  C    0.603991
    15  O   -0.436706
    16  O   -0.493102
    17  N   -0.725482
    18  C    0.326262
    19  C    0.005742
    20  C    0.033541
    21  C    0.308319
    22  C   -0.389263
    23  C   -0.118005
    24  C   -0.211320
    25  N   -0.695551
    26  C    0.296187
    27  C    0.015422
    28  C    0.048952
    29  C    0.296749
    30  C   -0.382044
    31  C   -0.228363
    32  C   -0.299336
    33  N   -0.735765
    34  C    0.222956
    35  C    0.017473
    36  C   -0.063110
    37  C    0.356010
    38  C   -0.373589
    39  C    0.378912
    40  O   -0.402948
    41  C   -0.365524
    42  C    0.617138
    43  O   -0.511987
    44  O   -0.418278
    45  C   -0.077319
    46  C    0.020843
    47  C   -0.125814
    48  C    0.084777
    49  C   -0.336186
    50  C   -0.224757
    51  C   -0.185665
    52  C   -0.182854
    53  C   -0.086586
    54  C   -0.297609
    55  C   -0.174834
    56  C   -0.163033
    57  C   -0.166727
    58  C   -0.059912
    59  C   -0.308298
    60  C   -0.149885
    61  C   -0.188650
    62  C   -0.144073
    63  C   -0.078164
    64  C   -0.276299
    65  C   -0.292849
    66  H    0.086674
    67  H    0.083132
    68  H    0.053637
    69  H    0.125571
    70  H    0.090345
    71  H    0.080588
    72  H    0.109752
    73  H    0.141314
    74  H    0.115236
    75  H    0.112567
    76  H    0.133426
    77  H    0.140596
    78  H    0.128015
    79  H    0.120409
    80  H    0.100924
    81  H    0.107390
    82  H    0.099298
    83  H    0.105295
    84  H    0.127071
    85  H    0.116386
    86  H    0.100812
    87  H    0.121766
    88  H    0.091370
    89  H    0.111282
    90  H    0.108021
    91  H    0.108210
    92  H    0.100577
    93  H    0.150012
    94  H    0.132827
    95  H    0.161409
    96  H    0.127587
    97  H    0.133897
    98  H    0.121667
    99  H    0.113445
   100  H    0.118189
   101  H    0.087014
   102  H    0.118797
   103  H    0.126199
   104  H    0.101006
   105  H    0.102223
   106  H    0.107734
   107  H    0.105761
   108  H    0.098648
   109  H    0.083346
   110  H    0.073174
   111  H    0.085376
   112  H    0.104573
   113  H    0.089134
   114  H    0.097487
   115  H    0.094026
   116  H    0.097117
   117  H    0.078177
   118  H    0.071798
   119  H    0.098194
   120  H    0.083439
   121  H    0.081870
   122  H    0.080017
   123  H    0.112922
   124  H    0.107385
   125  H    0.074398
   126  H    0.083154
   127  H    0.077111
   128  H    0.090256
   129  H    0.068561
   130  H    0.096527
   131  H    0.045282
   132  H    0.064067
   133  H    0.107603
   134  H    0.114655
   135  H    0.097560
   136  H    0.099667
   137  H    0.102812
 Sum of Mulliken charges =   0.00000

 Dipole moment (field-independent basis, Debye):
    X=             -0.1604    Y=              4.2489    Z=              0.1236  Tot=              4.2537
 Quadrupole moment (field-independent basis, Debye-Ang):
   XX=           -329.1570   YY=           -390.7153   ZZ=           -398.5073
   XY=            -19.6859   XZ=              7.4333   YZ=             -3.7627

 Normal termination of Gaussian 09 at Thu Jun 27 04:03:51 2019.
