 Gaussian 09, Revision D.01,
 Gaussian 09:  ES64L-G09RevD.01 24-Apr-2013

 -------------------------------------
 # td=(NStates=1) CAM-B3LYP/6-31G(d,p)
 -------------------------------------

 --
 TD
 --
 Symbolic Z-matrix:
 Charge =  0 Multiplicity = 1

                         Standard orientation:
 ---------------------------------------------------------------------
 Center     Atomic      Atomic             Coordinates (Angstroms)
 Number     Number       Type             X           Y           Z
 ---------------------------------------------------------------------
      1         12           0       -7.177021    0.554134    0.230781
      2          6           0       -4.903270   -1.989197    0.501196
      3          6           0       -4.912744    2.809169    1.175378
      4          6           0       -9.424624    3.115761   -0.318906
      5          6           0       -9.658683   -1.688338   -0.855101
      6          7           0       -5.099489    0.387752    0.801823
      7          6           0       -4.332008   -0.705897    0.768738
      8          6           0       -2.916863   -0.381956    1.097372
      9          6           0       -2.988737    1.051715    1.623201
     10          6           0       -4.370552    1.455650    1.249083
     11          6           0       -2.731509    1.138970    3.087737
     12          6           0       -1.916348   -0.724096    0.080045
     13          6           0       -0.346008   -0.490957    0.535871
     14          6           0        0.607804   -0.560223   -0.557549
     15          8           0        0.332252   -0.930565   -1.721122
     16          8           0        1.920040   -0.484823   -0.053962
     17          7           0       -7.088002    2.603885    0.339244
     18          6           0       -6.123007    3.353227    0.759295
     19          6           0       -6.372681    4.730914    0.823275
     20          6           0       -7.736757    4.790847    0.296008
     21          6           0       -8.133769    3.436287    0.140535
     22          6           0       -5.531792    5.753687    1.362343
     23          6           0       -8.626313    5.988564    0.264732
     24          6           0       -8.233043    7.256456    0.075988
     25          7           0       -9.192836    0.609849   -0.370110
     26          6           0       -9.887300    1.813668   -0.613534
     27          6           0      -11.307526    1.528787   -1.147970
     28          6           0      -11.398955    0.186687   -1.254749
     29          6           0      -10.015083   -0.379920   -0.747637
     30          6           0      -12.309921    2.565019   -1.414863
     31          6           0      -12.443624   -0.728319   -1.657441
     32          6           0      -12.301611   -1.267365   -3.130530
     33          7           0       -7.323389   -1.337196   -0.160758
     34          6           0       -8.395746   -2.280545   -0.463793
     35          6           0       -7.906041   -3.610108   -0.568859
     36          6           0       -6.630883   -3.608866   -0.023170
     37          6           0       -6.198981   -2.110118    0.088489
     38          6           0       -8.723811   -4.868694   -0.886180
     39          6           0       -5.350233   -4.413603    0.205042
     40          8           0       -5.131664   -5.623393    0.118478
     41          6           0       -4.315200   -3.316788    0.549734
     42          6           0       -3.629365   -3.655544    1.897994
     43          8           0       -3.751239   -3.160646    2.911771
     44          8           0       -2.655324   -4.657575    1.626041
     45          6           0       -2.078224   -5.157207    2.785384
     46          6           0        2.893434   -0.670785   -1.113083
     47          6           0        4.208845   -0.410758   -0.512657
     48          6           0        5.166237    0.438327   -0.988982
     49          6           0        4.998134    1.340804   -2.102991
     50          6           0        6.452459    0.535477   -0.152131
     51          6           0        7.666871   -0.061853   -0.943419
     52          6           0        9.050676    0.009993   -0.211338
     53          6           0       10.255523   -0.467899   -0.843360
     54          6           0       10.274016   -1.880565   -1.344969
     55          6           0       11.502474   -0.241653   -0.081944
     56          6           0       12.828748   -0.380915   -0.871540
     57          6           0       13.986683   -0.150801    0.127668
     58          6           0       15.323364   -0.156135   -0.588409
     59          6           0       15.669402   -1.635781   -1.148967
     60          6           0       16.368554    0.240015    0.440163
     61          6           0       17.784285    0.628661   -0.068676
     62          6           0       18.813674    1.094677    0.851378
     63          6           0       20.170441    1.232429    0.313324
     64          6           0       20.389183    2.059266   -1.016253
     65          6           0       21.131147    1.819777    1.318089
     66          1           0       -4.223591    3.510970    1.562902
     67          1           0      -10.070657    3.991293   -0.438595
     68          1           0      -10.269116   -2.309991   -1.240189
     69          1           0       -2.807663   -1.054672    1.887180
     70          1           0       -2.204458    1.674204    1.054040
     71          1           0       -1.821644    0.714994    3.137754
     72          1           0       -2.750523    2.295556    3.308674
     73          1           0       -3.661149    0.650680    3.737338
     74          1           0       -2.047426   -1.640981   -0.306559
     75          1           0       -2.191359    0.069296   -0.759930
     76          1           0       -0.231344    0.581793    0.751684
     77          1           0        0.011089   -0.953023    1.470020
     78          1           0       -4.676129    6.232535    0.836635
     79          1           0       -6.278041    6.581659    1.614854
     80          1           0       -5.004143    5.335661    2.336014
     81          1           0       -9.690164    5.729699    0.453379
     82          1           0       -9.092753    8.060220   -0.194632
     83          1           0       -7.192529    7.572903    0.158053
     84          1           0      -12.016690    3.245446   -2.127511
     85          1           0      -13.079472    2.123510   -1.850509
     86          1           0      -12.502451    3.144169   -0.611583
     87          1           0      -12.332365   -1.502008   -0.840053
     88          1           0      -13.605005   -0.330312   -1.680855
     89          1           0      -12.998525   -2.136575   -3.659457
     90          1           0      -12.349617   -0.601896   -4.030751
     91          1           0      -11.252335   -1.683571   -3.162901
     92          1           0       -9.521204   -4.558041   -1.785663
     93          1           0       -8.038978   -5.564619   -1.341082
     94          1           0       -9.311005   -5.131885   -0.086678
     95          1           0       -3.481492   -3.594016   -0.220094
     96          1           0       -1.344171   -4.267341    3.176010
     97          1           0       -2.796207   -5.716826    3.417908
     98          1           0       -1.482295   -5.869771    2.439039
     99          1           0        2.777877   -1.686553   -1.482730
    100          1           0        2.624908   -0.019953   -1.907686
    101          1           0        4.580031   -0.845901    0.406535
    102          1           0        3.928287    1.575020   -2.407815
    103          1           0        5.466471    2.271620   -1.732378
    104          1           0        5.463971    1.134026   -2.907226
    105          1           0        6.715713    1.442794    0.207563
    106          1           0        6.224574   -0.116851    0.721068
    107          1           0        7.457377   -1.020795   -1.161054
    108          1           0        7.791697    0.646893   -1.795237
    109          1           0        9.183177    0.975287    0.073131
    110          1           0        8.878196   -0.619083    0.889290
    111          1           0       10.380950    0.055415   -1.729649
    112          1           0        9.383535   -1.956957   -2.064256
    113          1           0       11.163966   -2.314831   -1.873929
    114          1           0       10.001281   -2.570457   -0.413680
    115          1           0       11.237511    0.742527    0.597768
    116          1           0       11.323441   -1.060597    0.716463
    117          1           0       12.814193   -1.277949   -1.425033
    118          1           0       12.753159    0.526747   -1.650147
    119          1           0       13.794314    0.862208    0.609435
    120          1           0       14.051863   -0.973790    0.901793
    121          1           0       15.257880    0.571168   -1.489130
    122          1           0       15.600315   -2.347316   -0.358709
    123          1           0       14.950525   -1.911885   -1.892777
    124          1           0       16.640707   -1.768841   -1.597714
    125          1           0       15.953377    1.277166    0.760153
    126          1           0       16.259883   -0.376729    1.306530
    127          1           0       18.177277   -0.364280   -0.514997
    128          1           0       17.677689    1.214530   -0.857817
    129          1           0       18.498889    2.075470    1.358201
    130          1           0       18.722151    0.397893    1.612360
    131          1           0       20.516726    0.303211    0.038101
    132          1           0       19.969985    3.059100   -0.768784
    133          1           0       21.453204    2.173912   -1.166763
    134          1           0       19.895641    1.681175   -1.866390
    135          1           0       20.880015    1.114914    2.283983
    136          1           0       22.092639    1.757691    0.931734
    137          1           0       20.763315    2.851613    1.820572
 ---------------------------------------------------------------------

 SCF Done:  E(RCAM-B3LYP) =  -2932.65518938     A.U. after   16 cycles

 Excitation energies and oscillator strengths:

 Excited State   1:      Singlet-A      1.8732 eV  661.87 nm  f=0.2971  <S**2>=0.000
     240 -> 243        0.23812
     241 -> 242        0.66388
     240 <- 243        0.10492
 This state for optimization and/or second-order correction.
 Total Energy, E(TD-HF/TD-KS) =  -2932.58634877
 Copying the excited state density for this state as the 1-particle RhoCI density.

 The electronic state is 1-A.
 Alpha  occ. eigenvalues --  -46.84740 -19.25961 -19.24546 -19.23079 -19.21466
 Alpha  occ. eigenvalues --  -19.20963 -14.42422 -14.40334 -14.39796 -14.38916
 Alpha  occ. eigenvalues --  -10.39816 -10.39296 -10.36162 -10.31376 -10.31046
 Alpha  occ. eigenvalues --  -10.30904 -10.30187 -10.30172 -10.30008 -10.29793
 Alpha  occ. eigenvalues --  -10.29487 -10.29152 -10.28877 -10.28638 -10.28631
 Alpha  occ. eigenvalues --  -10.28569 -10.28155 -10.28080 -10.27972 -10.27755
 Alpha  occ. eigenvalues --  -10.27284 -10.27273 -10.27271 -10.27265 -10.27245
 Alpha  occ. eigenvalues --  -10.27131 -10.27087 -10.26957 -10.26918 -10.26878
 Alpha  occ. eigenvalues --  -10.26782 -10.26664 -10.26534 -10.26531 -10.26407
 Alpha  occ. eigenvalues --  -10.26293 -10.25878 -10.25873 -10.25860 -10.25793
 Alpha  occ. eigenvalues --  -10.25704 -10.25630 -10.25570 -10.25529 -10.25364
 Alpha  occ. eigenvalues --  -10.25282 -10.24956 -10.24582 -10.24527 -10.23982
 Alpha  occ. eigenvalues --  -10.23914 -10.23826 -10.23783 -10.23720 -10.23424
 Alpha  occ. eigenvalues --   -3.13819  -1.88511  -1.88091  -1.87980  -1.20406
 Alpha  occ. eigenvalues --   -1.16189  -1.11521  -1.10390  -1.07891  -1.06017
 Alpha  occ. eigenvalues --   -1.05290  -1.02356  -1.00727  -0.93043  -0.92338
 Alpha  occ. eigenvalues --   -0.91617  -0.91164  -0.90895  -0.89381  -0.89089
 Alpha  occ. eigenvalues --   -0.88953  -0.88712  -0.87842  -0.87151  -0.86763
 Alpha  occ. eigenvalues --   -0.85463  -0.84707  -0.83649  -0.83482  -0.83075
 Alpha  occ. eigenvalues --   -0.82215  -0.80922  -0.80698  -0.80403  -0.79065
 Alpha  occ. eigenvalues --   -0.77703  -0.77496  -0.77033  -0.75985  -0.75964
 Alpha  occ. eigenvalues --   -0.75471  -0.75080  -0.74381  -0.73639  -0.72794
 Alpha  occ. eigenvalues --   -0.72167  -0.71810  -0.69824  -0.69623  -0.67559
 Alpha  occ. eigenvalues --   -0.67139  -0.66914  -0.65792  -0.65201  -0.64866
 Alpha  occ. eigenvalues --   -0.64037  -0.63368  -0.63250  -0.62810  -0.61832
 Alpha  occ. eigenvalues --   -0.61413  -0.60796  -0.60437  -0.59647  -0.59444
 Alpha  occ. eigenvalues --   -0.59245  -0.58139  -0.58061  -0.57633  -0.57025
 Alpha  occ. eigenvalues --   -0.56472  -0.56029  -0.55767  -0.55563  -0.55390
 Alpha  occ. eigenvalues --   -0.55167  -0.54778  -0.54653  -0.54046  -0.53943
 Alpha  occ. eigenvalues --   -0.53346  -0.52472  -0.52336  -0.52101  -0.51930
 Alpha  occ. eigenvalues --   -0.51893  -0.51488  -0.50895  -0.50841  -0.50733
 Alpha  occ. eigenvalues --   -0.50634  -0.50569  -0.50470  -0.50121  -0.49993
 Alpha  occ. eigenvalues --   -0.49821  -0.49483  -0.49325  -0.49260  -0.49050
 Alpha  occ. eigenvalues --   -0.48843  -0.48586  -0.48484  -0.48301  -0.47777
 Alpha  occ. eigenvalues --   -0.47448  -0.47318  -0.47095  -0.46862  -0.46561
 Alpha  occ. eigenvalues --   -0.46405  -0.46058  -0.45787  -0.45717  -0.45457
 Alpha  occ. eigenvalues --   -0.45226  -0.45059  -0.44590  -0.44468  -0.44313
 Alpha  occ. eigenvalues --   -0.44237  -0.43842  -0.43761  -0.43617  -0.43280
 Alpha  occ. eigenvalues --   -0.43156  -0.42989  -0.42847  -0.42559  -0.42469
 Alpha  occ. eigenvalues --   -0.42331  -0.42189  -0.42072  -0.41842  -0.41795
 Alpha  occ. eigenvalues --   -0.41321  -0.41293  -0.40946  -0.40922  -0.40845
 Alpha  occ. eigenvalues --   -0.40326  -0.39864  -0.39668  -0.39403  -0.39379
 Alpha  occ. eigenvalues --   -0.39182  -0.38692  -0.38568  -0.38532  -0.38303
 Alpha  occ. eigenvalues --   -0.38172  -0.37610  -0.37256  -0.36928  -0.36560
 Alpha  occ. eigenvalues --   -0.36477  -0.36260  -0.35934  -0.35308  -0.35189
 Alpha  occ. eigenvalues --   -0.34977  -0.34817  -0.34600  -0.34534  -0.33961
 Alpha  occ. eigenvalues --   -0.33828  -0.33549  -0.32026  -0.31044  -0.30297
 Alpha  occ. eigenvalues --   -0.29650  -0.29428  -0.28939  -0.26861  -0.22905
 Alpha  occ. eigenvalues --   -0.20630
 Alpha virt. eigenvalues --   -0.06961  -0.02436   0.00810   0.03757   0.04621
 Alpha virt. eigenvalues --    0.05311   0.06152   0.06481   0.06855   0.07120
 Alpha virt. eigenvalues --    0.07427   0.10317   0.10760   0.11268   0.12046

 Mulliken charges:
               1
     1  Mg   0.827308
     2  C    0.120437
     3  C   -0.217885
     4  C   -0.172957
     5  C   -0.143906
     6  N   -0.618267
     7  C    0.305635
     8  C   -0.152958
     9  C   -0.163858
    10  C    0.310828
    11  C   -0.272267
    12  C   -0.153050
    13  C   -0.283696
    14  C    0.618711
    15  O   -0.483605
    16  O   -0.505500
    17  N   -0.711301
    18  C    0.360311
    19  C    0.067553
    20  C   -0.034665
    21  C    0.302574
    22  C   -0.393936
    23  C   -0.067314
    24  C   -0.258829
    25  N   -0.656479
    26  C    0.257236
    27  C    0.013853
    28  C    0.058221
    29  C    0.302760
    30  C   -0.354241
    31  C   -0.258577
    32  C   -0.309413
    33  N   -0.743086
    34  C    0.244291
    35  C    0.001512
    36  C   -0.034011
    37  C    0.270566
    38  C   -0.344722
    39  C    0.389296
    40  O   -0.458855
    41  C   -0.360241
    42  C    0.610186
    43  O   -0.394540
    44  O   -0.480074
    45  C   -0.064826
    46  C    0.025942
    47  C   -0.133979
    48  C    0.117020
    49  C   -0.361049
    50  C   -0.236588
    51  C   -0.174566
    52  C   -0.158113
    53  C   -0.042486
    54  C   -0.307269
    55  C   -0.156970
    56  C   -0.180717
    57  C   -0.154491
    58  C   -0.063155
    59  C   -0.328182
    60  C   -0.173433
    61  C   -0.171352
    62  C   -0.150968
    63  C   -0.055406
    64  C   -0.317081
    65  C   -0.287860
    66  H    0.057486
    67  H    0.087845
    68  H    0.055634
    69  H    0.129332
    70  H    0.106672
    71  H    0.119068
    72  H    0.096098
    73  H    0.110204
    74  H    0.132961
    75  H    0.101307
    76  H    0.137263
    77  H    0.153485
    78  H    0.125306
    79  H    0.111466
    80  H    0.103822
    81  H    0.099907
    82  H    0.094505
    83  H    0.110562
    84  H    0.128617
    85  H    0.118199
    86  H    0.129603
    87  H    0.119524
    88  H    0.089840
    89  H    0.081710
    90  H    0.114967
    91  H    0.103972
    92  H    0.082286
    93  H    0.151059
    94  H    0.150950
    95  H    0.170720
    96  H    0.087592
    97  H    0.120602
    98  H    0.129178
    99  H    0.130618
   100  H    0.123803
   101  H    0.085951
   102  H    0.107390
   103  H    0.106558
   104  H    0.137879
   105  H    0.105505
   106  H    0.092735
   107  H    0.113907
   108  H    0.088099
   109  H    0.099981
   110  H    0.034477
   111  H    0.086470
   112  H    0.089046
   113  H    0.106394
   114  H    0.078287
   115  H    0.057388
   116  H    0.072732
   117  H    0.110285
   118  H    0.077650
   119  H    0.097325
   120  H    0.092042
   121  H    0.073113
   122  H    0.101811
   123  H    0.100342
   124  H    0.107377
   125  H    0.067911
   126  H    0.090540
   127  H    0.065021
   128  H    0.100694
   129  H    0.068037
   130  H    0.099994
   131  H    0.097383
   132  H    0.094819
   133  H    0.098917
   134  H    0.105580
   135  H    0.068859
   136  H    0.107881
   137  H    0.087941
 Sum of Mulliken charges =   0.00000

 Dipole moment (field-independent basis, Debye):
    X=              1.0564    Y=              4.2938    Z=              0.2017  Tot=              4.4264
 Quadrupole moment (field-independent basis, Debye-Ang):
   XX=           -349.4300   YY=           -399.3344   ZZ=           -399.7577
   XY=            -22.3737   XZ=              0.5567   YZ=             -2.9246

 Normal termination of Gaussian 09 at Sat Jun 29 00:42:08 2019.
