 Gaussian 09, Revision D.01,
 Gaussian 09:  ES64L-G09RevD.01 24-Apr-2013

 -------------------------------------
 # td=(NStates=1) CAM-B3LYP/6-31G(d,p)
 -------------------------------------

 --
 TD
 --
 Symbolic Z-matrix:
 Charge =  0 Multiplicity = 1

                         Standard orientation:
 ---------------------------------------------------------------------
 Center     Atomic      Atomic             Coordinates (Angstroms)
 Number     Number       Type             X           Y           Z
 ---------------------------------------------------------------------
      1         12           0       -7.249813    0.594577    0.073932
      2          6           0       -4.904533   -1.899689    0.580800
      3          6           0       -4.735515    2.858970    1.126528
      4          6           0       -9.398118    3.146522   -0.337981
      5          6           0       -9.438182   -1.639969   -0.945501
      6          7           0       -5.158079    0.487305    0.641554
      7          6           0       -4.369733   -0.708236    0.747445
      8          6           0       -2.890629   -0.427302    1.130490
      9          6           0       -2.996103    1.043645    1.692723
     10          6           0       -4.377182    1.518592    1.151447
     11          6           0       -2.908927    1.162932    3.219335
     12          6           0       -1.903033   -0.597455    0.023186
     13          6           0       -0.434242   -0.322399    0.404703
     14          6           0        0.405748   -0.646458   -0.751855
     15          8           0        0.108945   -1.019947   -1.827350
     16          8           0        1.683361   -0.334047   -0.304529
     17          7           0       -7.149335    2.588277    0.499154
     18          6           0       -6.005414    3.407205    0.876762
     19          6           0       -6.382802    4.718889    0.867933
     20          6           0       -7.690351    4.844859    0.462317
     21          6           0       -8.107905    3.490907    0.120863
     22          6           0       -5.324692    5.823848    1.353875
     23          6           0       -8.543607    5.916975    0.350909
     24          6           0       -8.171317    7.191265    0.359972
     25          7           0       -9.088708    0.703488   -0.468684
     26          6           0       -9.829111    1.815798   -0.648865
     27          6           0      -11.251843    1.461790   -1.041756
     28          6           0      -11.246679    0.120318   -1.274778
     29          6           0       -9.969353   -0.394276   -0.891212
     30          6           0      -12.302347    2.582077   -1.308103
     31          6           0      -12.342859   -0.796563   -1.843097
     32          6           0      -12.258078   -0.856453   -3.459199
     33          7           0       -7.288633   -1.393478   -0.107462
     34          6           0       -8.243321   -2.270910   -0.532238
     35          6           0       -7.835677   -3.590063   -0.530075
     36          6           0       -6.502774   -3.616525    0.038460
     37          6           0       -6.196380   -2.217843    0.183247
     38          6           0       -8.562580   -4.889052   -0.925959
     39          6           0       -5.333440   -4.388879    0.210049
     40          8           0       -5.179937   -5.566893    0.127632
     41          6           0       -4.243539   -3.285277    0.613894
     42          6           0       -3.699505   -3.685410    1.974011
     43          8           0       -3.793706   -3.016782    2.956676
     44          8           0       -2.889719   -4.855023    1.885028
     45          6           0       -2.160136   -5.205758    3.083834
     46          6           0        2.729159   -0.544446   -1.324248
     47          6           0        4.090177   -0.484643   -0.589006
     48          6           0        5.104202    0.295078   -0.969028
     49          6           0        5.197829    1.021247   -2.241355
     50          6           0        6.427470    0.480873   -0.208663
     51          6           0        7.634014   -0.346595   -0.991131
     52          6           0        8.973943   -0.340453   -0.175008
     53          6           0       10.148432   -0.683206   -0.883398
     54          6           0       10.200135   -2.130093   -1.396249
     55          6           0       11.431372   -0.190687   -0.060328
     56          6           0       12.728453   -0.468944   -0.662873
     57          6           0       13.884677   -0.111963    0.182586
     58          6           0       15.311496   -0.312946   -0.391840
     59          6           0       15.561357   -1.770371   -0.690313
     60          6           0       16.396603    0.371800    0.517495
     61          6           0       17.792595    0.620100   -0.135345
     62          6           0       18.721587    1.432003    0.778059
     63          6           0       20.214467    1.459022    0.126380
     64          6           0       20.304378    2.228505   -1.055864
     65          6           0       21.195967    1.972459    1.243461
     66          1           0       -3.988225    3.555751    1.265634
     67          1           0      -10.028138    3.902067   -0.562569
     68          1           0      -10.228871   -2.323037   -1.308590
     69          1           0       -2.639933   -1.185099    1.858043
     70          1           0       -2.098941    1.610884    1.306974
     71          1           0       -1.689956    0.868304    3.494421
     72          1           0       -3.174889    2.240839    3.470269
     73          1           0       -3.447472    0.536068    3.908457
     74          1           0       -1.719232   -1.675769   -0.241253
     75          1           0       -2.277513   -0.180865   -0.907206
     76          1           0       -0.242739    0.913349    0.581614
     77          1           0       -0.080331   -1.053469    1.372885
     78          1           0       -4.862388    6.183019    0.577099
     79          1           0       -5.815689    6.764789    2.011029
     80          1           0       -4.610597    5.504548    2.121078
     81          1           0       -9.680064    5.756058    0.131343
     82          1           0       -8.780973    8.206868    0.276662
     83          1           0       -7.081774    7.462076    0.211771
     84          1           0      -11.795660    2.945617   -2.370827
     85          1           0      -13.255427    2.165776   -1.237344
     86          1           0      -11.925874    3.442001   -0.474091
     87          1           0      -12.357872   -1.866380   -1.432386
     88          1           0      -13.133007   -0.364231   -1.270164
     89          1           0      -13.067514   -1.462127   -3.999646
     90          1           0      -12.142334    0.392184   -3.880835
     91          1           0      -11.191264   -1.258199   -3.542588
     92          1           0       -9.215944   -4.757626   -1.838629
     93          1           0       -7.717723   -5.608807   -1.168621
     94          1           0       -9.215328   -5.258781    0.028502
     95          1           0       -3.332891   -3.517804    0.068486
     96          1           0       -1.515444   -4.343887    3.366334
     97          1           0       -3.052725   -5.428259    3.779829
     98          1           0       -1.686471   -6.023449    2.922637
     99          1           0        2.528948   -1.661973   -1.743795
    100          1           0        2.787808    0.304878   -2.078563
    101          1           0        4.232655   -0.994814    0.396505
    102          1           0        4.222510    1.323283   -2.574163
    103          1           0        5.643535    2.167484   -1.843987
    104          1           0        5.700391    0.730619   -3.107711
    105          1           0        6.911906    1.408035   -0.098721
    106          1           0        6.547076   -0.181577    0.781358
    107          1           0        7.448738   -1.347449   -1.250247
    108          1           0        7.747299    0.016743   -2.001272
    109          1           0        9.177526    0.511524    0.303340
    110          1           0        8.600453   -1.086178    0.600673
    111          1           0       10.239257   -0.167300   -1.711006
    112          1           0        9.140149   -2.279629   -1.909023
    113          1           0       11.109756   -2.328412   -2.105831
    114          1           0       10.353810   -2.825005   -0.439681
    115          1           0       11.386042    0.913348    0.410511
    116          1           0       11.337788   -0.910495    0.822312
    117          1           0       12.861879   -1.600543   -0.851427
    118          1           0       12.844689   -0.024452   -1.621301
    119          1           0       14.011993    0.962861    0.429525
    120          1           0       13.780824   -0.520625    1.198584
    121          1           0       15.458343    0.160117   -1.491764
    122          1           0       15.397269   -2.362103    0.218994
    123          1           0       14.747712   -2.417530   -1.386805
    124          1           0       16.423467   -2.047927   -1.266078
    125          1           0       15.984022    1.252544    0.777815
    126          1           0       16.401895   -0.254411    1.374862
    127          1           0       18.358722   -0.208487   -0.507246
    128          1           0       17.614593    1.173589   -1.123962
    129          1           0       18.202405    2.370008    1.027248
    130          1           0       19.014696    1.011246    1.806598
    131          1           0       20.560566    0.277964   -0.053900
    132          1           0       20.214362    3.353369   -1.001317
    133          1           0       21.314944    2.223821   -1.649439
    134          1           0       19.453467    2.033022   -1.794804
    135          1           0       21.300879    1.341560    2.037034
    136          1           0       22.266048    2.235201    0.795630
    137          1           0       20.719342    2.835854    1.640999
 ---------------------------------------------------------------------

 SCF Done:  E(RCAM-B3LYP) =  -2932.59788675     A.U. after   18 cycles

 Excitation energies and oscillator strengths:

 Excited State   1:      Singlet-A      2.0069 eV  617.78 nm  f=0.2948  <S**2>=0.000
     240 -> 242       -0.18992
     240 -> 243        0.17028
     241 -> 242        0.64630
 This state for optimization and/or second-order correction.
 Total Energy, E(TD-HF/TD-KS) =  -2932.52413386
 Copying the excited state density for this state as the 1-particle RhoCI density.

 The electronic state is 1-A.
 Alpha  occ. eigenvalues --  -46.82820 -19.25420 -19.24046 -19.22296 -19.20966
 Alpha  occ. eigenvalues --  -19.19205 -14.42128 -14.39746 -14.39143 -14.38535
 Alpha  occ. eigenvalues --  -10.39030 -10.38545 -10.33755 -10.33545 -10.31919
 Alpha  occ. eigenvalues --  -10.30649 -10.30342 -10.30334 -10.30235 -10.29786
 Alpha  occ. eigenvalues --  -10.29607 -10.29604 -10.29585 -10.28932 -10.28683
 Alpha  occ. eigenvalues --  -10.28035 -10.28000 -10.27978 -10.27907 -10.27898
 Alpha  occ. eigenvalues --  -10.27857 -10.27824 -10.27751 -10.27629 -10.27583
 Alpha  occ. eigenvalues --  -10.27573 -10.27548 -10.27392 -10.27366 -10.27322
 Alpha  occ. eigenvalues --  -10.27295 -10.27279 -10.27112 -10.27079 -10.26905
 Alpha  occ. eigenvalues --  -10.26826 -10.26687 -10.26463 -10.26460 -10.26328
 Alpha  occ. eigenvalues --  -10.26108 -10.26024 -10.26010 -10.25828 -10.25618
 Alpha  occ. eigenvalues --  -10.25160 -10.25118 -10.25000 -10.24769 -10.24448
 Alpha  occ. eigenvalues --  -10.24362 -10.24203 -10.24171 -10.24070 -10.23833
 Alpha  occ. eigenvalues --   -3.12188  -1.86861  -1.86477  -1.86358  -1.18174
 Alpha  occ. eigenvalues --   -1.15991  -1.11345  -1.10250  -1.08355  -1.03351
 Alpha  occ. eigenvalues --   -1.02685  -1.01909  -1.00978  -0.92482  -0.91868
 Alpha  occ. eigenvalues --   -0.90701  -0.90307  -0.89956  -0.89712  -0.89362
 Alpha  occ. eigenvalues --   -0.88583  -0.88113  -0.87181  -0.86024  -0.85567
 Alpha  occ. eigenvalues --   -0.85219  -0.84160  -0.82970  -0.82650  -0.82010
 Alpha  occ. eigenvalues --   -0.81394  -0.80998  -0.80595  -0.79682  -0.78173
 Alpha  occ. eigenvalues --   -0.77692  -0.77185  -0.76102  -0.75824  -0.75559
 Alpha  occ. eigenvalues --   -0.75251  -0.74717  -0.74296  -0.73349  -0.72628
 Alpha  occ. eigenvalues --   -0.70919  -0.70386  -0.69985  -0.68963  -0.68411
 Alpha  occ. eigenvalues --   -0.67196  -0.67021  -0.65625  -0.65003  -0.64306
 Alpha  occ. eigenvalues --   -0.63517  -0.63325  -0.62686  -0.61703  -0.61184
 Alpha  occ. eigenvalues --   -0.60893  -0.60122  -0.60002  -0.59455  -0.58946
 Alpha  occ. eigenvalues --   -0.58390  -0.58046  -0.57261  -0.56828  -0.56298
 Alpha  occ. eigenvalues --   -0.55611  -0.55135  -0.54892  -0.54691  -0.54458
 Alpha  occ. eigenvalues --   -0.54160  -0.54084  -0.53641  -0.53256  -0.52856
 Alpha  occ. eigenvalues --   -0.52593  -0.52432  -0.52121  -0.52054  -0.51697
 Alpha  occ. eigenvalues --   -0.51547  -0.51026  -0.50906  -0.50807  -0.50442
 Alpha  occ. eigenvalues --   -0.50373  -0.50171  -0.50068  -0.49774  -0.49459
 Alpha  occ. eigenvalues --   -0.49189  -0.49087  -0.48882  -0.48676  -0.48460
 Alpha  occ. eigenvalues --   -0.48246  -0.47970  -0.47860  -0.47672  -0.47592
 Alpha  occ. eigenvalues --   -0.47321  -0.46815  -0.46616  -0.46169  -0.45809
 Alpha  occ. eigenvalues --   -0.45398  -0.45233  -0.44713  -0.44576  -0.44505
 Alpha  occ. eigenvalues --   -0.43980  -0.43901  -0.43787  -0.43651  -0.43614
 Alpha  occ. eigenvalues --   -0.43503  -0.43366  -0.43253  -0.43152  -0.42915
 Alpha  occ. eigenvalues --   -0.42706  -0.42672  -0.42437  -0.42308  -0.41978
 Alpha  occ. eigenvalues --   -0.41803  -0.41681  -0.41495  -0.41316  -0.41132
 Alpha  occ. eigenvalues --   -0.41051  -0.40792  -0.40641  -0.40389  -0.40335
 Alpha  occ. eigenvalues --   -0.40061  -0.40037  -0.39818  -0.39512  -0.39192
 Alpha  occ. eigenvalues --   -0.38786  -0.38552  -0.38330  -0.37928  -0.37709
 Alpha  occ. eigenvalues --   -0.37683  -0.37515  -0.37171  -0.36948  -0.36727
 Alpha  occ. eigenvalues --   -0.36599  -0.36208  -0.35937  -0.35454  -0.35361
 Alpha  occ. eigenvalues --   -0.34907  -0.34852  -0.34400  -0.34302  -0.33924
 Alpha  occ. eigenvalues --   -0.33286  -0.33106  -0.32341  -0.31641  -0.29566
 Alpha  occ. eigenvalues --   -0.29268  -0.29231  -0.27934  -0.27573  -0.23336
 Alpha  occ. eigenvalues --   -0.21672
 Alpha virt. eigenvalues --   -0.07573  -0.02544   0.01473   0.03783   0.05489
 Alpha virt. eigenvalues --    0.05799   0.06293   0.06792   0.07224   0.07564
 Alpha virt. eigenvalues --    0.08720   0.09316   0.09845   0.11538   0.11631

 Mulliken charges:
               1
     1  Mg   0.824314
     2  C    0.145556
     3  C   -0.206733
     4  C   -0.163954
     5  C   -0.219298
     6  N   -0.610511
     7  C    0.244436
     8  C   -0.125916
     9  C   -0.139053
    10  C    0.340436
    11  C   -0.285786
    12  C   -0.176757
    13  C   -0.260434
    14  C    0.638886
    15  O   -0.443200
    16  O   -0.506011
    17  N   -0.711703
    18  C    0.312372
    19  C    0.003353
    20  C    0.064680
    21  C    0.304040
    22  C   -0.362864
    23  C   -0.084148
    24  C   -0.263829
    25  N   -0.707956
    26  C    0.325620
    27  C   -0.033459
    28  C    0.035525
    29  C    0.283891
    30  C   -0.330982
    31  C   -0.234917
    32  C   -0.281906
    33  N   -0.720606
    34  C    0.327652
    35  C   -0.002679
    36  C    0.018234
    37  C    0.220949
    38  C   -0.353430
    39  C    0.356653
    40  O   -0.450255
    41  C   -0.370622
    42  C    0.615460
    43  O   -0.445956
    44  O   -0.501580
    45  C   -0.054800
    46  C    0.020939
    47  C   -0.133578
    48  C    0.138263
    49  C   -0.354969
    50  C   -0.221812
    51  C   -0.222519
    52  C   -0.157175
    53  C   -0.047285
    54  C   -0.303617
    55  C   -0.188327
    56  C   -0.160176
    57  C   -0.177967
    58  C   -0.067045
    59  C   -0.298590
    60  C   -0.165664
    61  C   -0.186206
    62  C   -0.177119
    63  C   -0.040390
    64  C   -0.294673
    65  C   -0.314800
    66  H    0.081430
    67  H    0.065188
    68  H    0.074264
    69  H    0.120058
    70  H    0.102570
    71  H    0.067419
    72  H    0.101565
    73  H    0.143548
    74  H    0.113904
    75  H    0.126879
    76  H    0.116054
    77  H    0.126516
    78  H    0.144203
    79  H    0.095991
    80  H    0.121932
    81  H    0.099215
    82  H    0.105529
    83  H    0.103012
    84  H    0.125166
    85  H    0.133294
    86  H    0.102894
    87  H    0.106234
    88  H    0.110911
    89  H    0.117775
    90  H    0.071672
    91  H    0.122684
    92  H    0.107746
    93  H    0.144959
    94  H    0.113016
    95  H    0.164520
    96  H    0.113975
    97  H    0.120033
    98  H    0.130167
    99  H    0.119361
   100  H    0.113369
   101  H    0.092877
   102  H    0.110592
   103  H    0.067253
   104  H    0.143831
   105  H    0.121767
   106  H    0.081734
   107  H    0.106082
   108  H    0.086664
   109  H    0.096382
   110  H    0.083062
   111  H    0.103117
   112  H    0.092229
   113  H    0.098983
   114  H    0.084664
   115  H    0.075235
   116  H    0.081138
   117  H    0.090703
   118  H    0.095011
   119  H    0.079632
   120  H    0.088758
   121  H    0.056254
   122  H    0.097704
   123  H    0.059929
   124  H    0.107258
   125  H    0.099823
   126  H    0.099081
   127  H    0.104053
   128  H    0.087364
   129  H    0.093757
   130  H    0.084642
   131  H    0.064273
   132  H    0.097583
   133  H    0.087877
   134  H    0.091916
   135  H    0.111524
   136  H    0.081358
   137  H    0.108836
 Sum of Mulliken charges =   0.00000

 Dipole moment (field-independent basis, Debye):
    X=              0.9438    Y=              6.4231    Z=             -0.5284  Tot=              6.5135
 Quadrupole moment (field-independent basis, Debye-Ang):
   XX=           -339.2885   YY=           -394.9352   ZZ=           -398.2961
   XY=            -27.1729   XZ=             16.3603   YZ=             -3.6381

 Normal termination of Gaussian 09 at Sat Jun 29 21:40:51 2019.
