 Gaussian 09, Revision D.01,
 Gaussian 09:  ES64L-G09RevD.01 24-Apr-2013

 -------------------------------------
 # td=(NStates=1) CAM-B3LYP/6-31G(d,p)
 -------------------------------------

 --
 TD
 --
 Symbolic Z-matrix:
 Charge =  0 Multiplicity = 1

                         Standard orientation:
 ---------------------------------------------------------------------
 Center     Atomic      Atomic             Coordinates (Angstroms)
 Number     Number       Type             X           Y           Z
 ---------------------------------------------------------------------
      1         12           0       -7.185412    0.611987    0.201915
      2          6           0       -4.840571   -1.867933    0.454505
      3          6           0       -4.889543    2.782666    1.261984
      4          6           0       -9.451592    3.079618   -0.414053
      5          6           0       -9.578256   -1.725195   -0.626288
      6          7           0       -5.094123    0.487454    0.719155
      7          6           0       -4.357179   -0.627397    0.824525
      8          6           0       -2.899769   -0.286741    1.253222
      9          6           0       -3.051309    1.157557    1.662714
     10          6           0       -4.423058    1.512214    1.200404
     11          6           0       -2.908307    1.507094    3.182710
     12          6           0       -1.897228   -0.610138    0.096245
     13          6           0       -0.386524   -0.317903    0.503427
     14          6           0        0.563750   -0.582416   -0.627561
     15          8           0        0.221039   -0.845189   -1.708448
     16          8           0        1.805303   -0.582328   -0.172099
     17          7           0       -7.225050    2.545306    0.414753
     18          6           0       -6.101185    3.225506    0.792898
     19          6           0       -6.465909    4.707839    0.853589
     20          6           0       -7.770193    4.822178    0.304411
     21          6           0       -8.192192    3.414834    0.127904
     22          6           0       -5.665053    5.898183    1.200633
     23          6           0       -8.557642    5.992638    0.124939
     24          6           0       -8.208328    7.185205   -0.101600
     25          7           0       -9.184078    0.652008   -0.443322
     26          6           0       -9.895072    1.758183   -0.626978
     27          6           0      -11.190081    1.397858   -1.164049
     28          6           0      -11.302708    0.018871   -1.166599
     29          6           0      -10.008700   -0.425850   -0.797907
     30          6           0      -12.331215    2.468634   -1.538869
     31          6           0      -12.408004   -0.922394   -1.593369
     32          6           0      -12.413006   -1.264987   -3.105941
     33          7           0       -7.342521   -1.375177   -0.076415
     34          6           0       -8.326526   -2.263222   -0.349054
     35          6           0       -7.779550   -3.652036   -0.460343
     36          6           0       -6.449876   -3.509118   -0.103170
     37          6           0       -6.181787   -2.070135    0.091900
     38          6           0       -8.579944   -4.926892   -0.747176
     39          6           0       -5.257506   -4.346238    0.122357
     40          8           0       -5.148640   -5.560437    0.009971
     41          6           0       -4.164564   -3.117906    0.542711
     42          6           0       -3.515205   -3.545089    1.818444
     43          8           0       -3.599731   -3.030154    2.854461
     44          8           0       -2.688678   -4.617303    1.571361
     45          6           0       -2.014727   -5.103376    2.657671
     46          6           0        2.787605   -0.738038   -1.163039
     47          6           0        4.134625   -0.527272   -0.476027
     48          6           0        5.168666    0.235178   -0.844539
     49          6           0        5.133256    1.011669   -2.141353
     50          6           0        6.417282    0.267355   -0.140114
     51          6           0        7.592775   -0.215982   -0.837420
     52          6           0        8.883925   -0.213959    0.065656
     53          6           0       10.149155   -0.632385   -0.826068
     54          6           0       10.083287   -2.092298   -1.144719
     55          6           0       11.450307   -0.273878    0.060319
     56          6           0       12.687044   -0.473183   -0.632272
     57          6           0       13.973109    0.022553    0.104017
     58          6           0       15.444028   -0.277010   -0.538467
     59          6           0       15.793824   -1.719477   -0.748478
     60          6           0       16.437541    0.530880    0.331838
     61          6           0       17.779243    0.658260   -0.258246
     62          6           0       18.815979    1.304052    0.677341
     63          6           0       20.248319    1.315501    0.153400
     64          6           0       20.436289    2.111021   -1.171993
     65          6           0       21.224004    1.896658    1.309699
     66          1           0       -4.251866    3.685690    1.493787
     67          1           0      -10.235984    3.977571   -0.384691
     68          1           0      -10.297057   -2.513398   -0.719948
     69          1           0       -2.645703   -1.204242    1.960170
     70          1           0       -2.439823    1.849041    1.198462
     71          1           0       -1.821483    1.400950    3.534244
     72          1           0       -3.445392    2.423406    3.431620
     73          1           0       -3.394017    0.676235    3.843577
     74          1           0       -2.192314   -1.710581   -0.152476
     75          1           0       -2.005969    0.020958   -0.750183
     76          1           0       -0.265398    0.691892    0.879294
     77          1           0       -0.133848   -0.852434    1.370594
     78          1           0       -5.083356    6.505688    0.205947
     79          1           0       -6.201958    6.595357    1.879296
     80          1           0       -4.657317    5.739095    1.823155
     81          1           0       -9.643650    5.753803    0.189555
     82          1           0       -8.899474    7.950331   -0.314074
     83          1           0       -7.165170    7.425725   -0.123626
     84          1           0      -11.968633    2.960775   -2.533985
     85          1           0      -13.283838    1.862599   -1.732624
     86          1           0      -12.294005    3.328004   -0.937700
     87          1           0      -12.457786   -1.681793   -0.879451
     88          1           0      -13.498951   -0.312071   -1.446972
     89          1           0      -13.278793   -2.003115   -3.412114
     90          1           0      -12.563203   -0.375396   -3.725724
     91          1           0      -11.567044   -1.822526   -3.557603
     92          1           0       -9.038097   -4.582442   -1.497854
     93          1           0       -7.957918   -5.709395   -0.863840
     94          1           0       -9.431293   -5.098444    0.011728
     95          1           0       -3.534628   -3.423905   -0.157179
     96          1           0       -1.579831   -4.288861    3.139381
     97          1           0       -2.615723   -5.683378    3.319882
     98          1           0       -1.300762   -5.883796    2.350785
     99          1           0        2.620986   -1.719642   -1.672683
    100          1           0        2.693537   -0.092901   -2.191995
    101          1           0        4.107963   -1.005952    0.479462
    102          1           0        4.177295    0.963977   -2.636121
    103          1           0        5.572148    1.974011   -2.262419
    104          1           0        5.784226    0.501089   -2.904426
    105          1           0        6.673658    1.438867   -0.014081
    106          1           0        6.386328   -0.292393    0.869119
    107          1           0        7.432426   -1.448165   -1.101562
    108          1           0        7.845017    0.248782   -1.792443
    109          1           0        8.895997    1.022393    0.367010
    110          1           0        8.807497   -0.926314    0.860908
    111          1           0       10.213047    0.064625   -1.802813
    112          1           0        9.216768   -2.213339   -1.760376
    113          1           0       11.081325   -2.304347   -1.949582
    114          1           0       10.163772   -2.728965   -0.128805
    115          1           0       11.156415    0.811780    0.330111
    116          1           0       11.360749   -0.817225    0.948045
    117          1           0       12.771729   -1.621017   -0.890622
    118          1           0       12.594871    0.061484   -1.719111
    119          1           0       13.840753    1.191274    0.018121
    120          1           0       13.887917   -0.322651    1.055126
    121          1           0       15.336553    0.240838   -1.630297
    122          1           0       15.802735   -2.263879    0.341767
    123          1           0       15.034102   -2.244300   -1.224076
    124          1           0       16.689144   -1.960669   -1.506678
    125          1           0       16.014825    1.740100    0.474054
    126          1           0       16.425173    0.147059    1.288603
    127          1           0       17.971642   -0.328478   -0.660855
    128          1           0       17.671935    1.243328   -1.129708
    129          1           0       18.497663    2.286201    1.049443
    130          1           0       19.047158    0.857532    1.641924
    131          1           0       20.537175    0.182825   -0.028744
    132          1           0       19.813918    3.284974   -1.198915
    133          1           0       21.624571    2.311093   -1.394613
    134          1           0       20.022704    1.581496   -1.978046
    135          1           0       21.241294    1.420189    2.226784
    136          1           0       22.187036    1.918109    1.033815
    137          1           0       20.929022    2.946640    1.386494
 ---------------------------------------------------------------------

 SCF Done:  E(RCAM-B3LYP) =  -2932.66394685     A.U. after   18 cycles

 Excitation energies and oscillator strengths:

 Excited State   1:      Singlet-A      2.0832 eV  595.15 nm  f=0.2370  <S**2>=0.000
     240 -> 243        0.24976
     241 -> 242        0.65153
 This state for optimization and/or second-order correction.
 Total Energy, E(TD-HF/TD-KS) =  -2932.58738947
 Copying the excited state density for this state as the 1-particle RhoCI density.

 The electronic state is 1-A.
 Alpha  occ. eigenvalues --  -46.84360 -19.26958 -19.25124 -19.21802 -19.21495
 Alpha  occ. eigenvalues --  -19.21170 -14.41960 -14.40011 -14.39636 -14.38519
 Alpha  occ. eigenvalues --  -10.38847 -10.38694 -10.36335 -10.32901 -10.30947
 Alpha  occ. eigenvalues --  -10.30619 -10.30586 -10.29763 -10.29311 -10.29294
 Alpha  occ. eigenvalues --  -10.29240 -10.28795 -10.28697 -10.28301 -10.28257
 Alpha  occ. eigenvalues --  -10.28019 -10.27922 -10.27831 -10.27708 -10.27579
 Alpha  occ. eigenvalues --  -10.27523 -10.27455 -10.27428 -10.27305 -10.27261
 Alpha  occ. eigenvalues --  -10.27251 -10.27247 -10.27223 -10.27140 -10.27131
 Alpha  occ. eigenvalues --  -10.27082 -10.27041 -10.27005 -10.26829 -10.26761
 Alpha  occ. eigenvalues --  -10.26746 -10.26553 -10.26370 -10.26302 -10.26276
 Alpha  occ. eigenvalues --  -10.26275 -10.26212 -10.25803 -10.25745 -10.25713
 Alpha  occ. eigenvalues --  -10.25561 -10.25512 -10.25328 -10.25263 -10.24691
 Alpha  occ. eigenvalues --  -10.24652 -10.24520 -10.24491 -10.23891 -10.22923
 Alpha  occ. eigenvalues --   -3.13537  -1.88229  -1.87786  -1.87722  -1.21031
 Alpha  occ. eigenvalues --   -1.19848  -1.12197  -1.11711  -1.11205  -1.06538
 Alpha  occ. eigenvalues --   -1.04323  -1.03720  -1.02452  -0.93772  -0.92361
 Alpha  occ. eigenvalues --   -0.90454  -0.90247  -0.89923  -0.89415  -0.89307
 Alpha  occ. eigenvalues --   -0.88230  -0.87299  -0.87247  -0.86705  -0.86484
 Alpha  occ. eigenvalues --   -0.85384  -0.84626  -0.83748  -0.83175  -0.82233
 Alpha  occ. eigenvalues --   -0.81623  -0.81452  -0.80964  -0.80358  -0.78694
 Alpha  occ. eigenvalues --   -0.77937  -0.76956  -0.76423  -0.76163  -0.75763
 Alpha  occ. eigenvalues --   -0.75055  -0.74944  -0.74279  -0.73493  -0.72506
 Alpha  occ. eigenvalues --   -0.71876  -0.70663  -0.69960  -0.69017  -0.68264
 Alpha  occ. eigenvalues --   -0.67696  -0.66513  -0.65757  -0.65260  -0.64631
 Alpha  occ. eigenvalues --   -0.64122  -0.63454  -0.62531  -0.62351  -0.61918
 Alpha  occ. eigenvalues --   -0.61035  -0.60720  -0.60374  -0.60048  -0.59609
 Alpha  occ. eigenvalues --   -0.59150  -0.58777  -0.58207  -0.57961  -0.57341
 Alpha  occ. eigenvalues --   -0.56845  -0.56114  -0.55800  -0.55061  -0.54765
 Alpha  occ. eigenvalues --   -0.54687  -0.54224  -0.54092  -0.53764  -0.53602
 Alpha  occ. eigenvalues --   -0.53245  -0.52822  -0.52522  -0.52310  -0.52085
 Alpha  occ. eigenvalues --   -0.51810  -0.51540  -0.51024  -0.50786  -0.50487
 Alpha  occ. eigenvalues --   -0.50348  -0.50054  -0.49958  -0.49631  -0.49386
 Alpha  occ. eigenvalues --   -0.49240  -0.49187  -0.48927  -0.48806  -0.48358
 Alpha  occ. eigenvalues --   -0.48080  -0.48021  -0.47794  -0.47378  -0.47177
 Alpha  occ. eigenvalues --   -0.46913  -0.46810  -0.46316  -0.46237  -0.46128
 Alpha  occ. eigenvalues --   -0.45975  -0.45867  -0.45510  -0.45354  -0.45304
 Alpha  occ. eigenvalues --   -0.45057  -0.44886  -0.44811  -0.44624  -0.44560
 Alpha  occ. eigenvalues --   -0.44248  -0.44116  -0.43780  -0.43676  -0.43559
 Alpha  occ. eigenvalues --   -0.43280  -0.43027  -0.42737  -0.42678  -0.42492
 Alpha  occ. eigenvalues --   -0.42305  -0.42254  -0.41918  -0.41822  -0.41638
 Alpha  occ. eigenvalues --   -0.41379  -0.41006  -0.40775  -0.40438  -0.40396
 Alpha  occ. eigenvalues --   -0.40078  -0.39929  -0.39687  -0.39396  -0.39140
 Alpha  occ. eigenvalues --   -0.38720  -0.38526  -0.38196  -0.37930  -0.37606
 Alpha  occ. eigenvalues --   -0.37592  -0.37326  -0.36922  -0.36543  -0.36356
 Alpha  occ. eigenvalues --   -0.36299  -0.36192  -0.36089  -0.35806  -0.35654
 Alpha  occ. eigenvalues --   -0.35548  -0.35171  -0.34607  -0.34557  -0.34424
 Alpha  occ. eigenvalues --   -0.33121  -0.32853  -0.32428  -0.31348  -0.29851
 Alpha  occ. eigenvalues --   -0.29762  -0.29613  -0.28141  -0.27638  -0.23242
 Alpha  occ. eigenvalues --   -0.20880
 Alpha virt. eigenvalues --   -0.05971  -0.02925   0.01140   0.04292   0.05928
 Alpha virt. eigenvalues --    0.05939   0.06509   0.06957   0.07776   0.08044
 Alpha virt. eigenvalues --    0.08522   0.10624   0.10739   0.11179   0.11388

 Mulliken charges:
               1
     1  Mg   0.820308
     2  C    0.085428
     3  C   -0.201711
     4  C   -0.177125
     5  C   -0.199810
     6  N   -0.641667
     7  C    0.318676
     8  C   -0.162758
     9  C   -0.137251
    10  C    0.370835
    11  C   -0.317620
    12  C   -0.159753
    13  C   -0.297471
    14  C    0.618803
    15  O   -0.443221
    16  O   -0.448657
    17  N   -0.736560
    18  C    0.317121
    19  C    0.014868
    20  C    0.024912
    21  C    0.308495
    22  C   -0.386844
    23  C   -0.045548
    24  C   -0.251889
    25  N   -0.683632
    26  C    0.340530
    27  C   -0.037720
    28  C    0.048551
    29  C    0.289464
    30  C   -0.356126
    31  C   -0.221254
    32  C   -0.302738
    33  N   -0.721177
    34  C    0.253523
    35  C   -0.014394
    36  C   -0.018162
    37  C    0.318359
    38  C   -0.328054
    39  C    0.356932
    40  O   -0.449271
    41  C   -0.378333
    42  C    0.623082
    43  O   -0.444347
    44  O   -0.457108
    45  C   -0.077981
    46  C   -0.000404
    47  C   -0.158096
    48  C    0.184188
    49  C   -0.386109
    50  C   -0.218602
    51  C   -0.158516
    52  C   -0.155419
    53  C   -0.071588
    54  C   -0.275294
    55  C   -0.148369
    56  C   -0.173132
    57  C   -0.166799
    58  C   -0.060611
    59  C   -0.302042
    60  C   -0.140816
    61  C   -0.175915
    62  C   -0.159906
    63  C   -0.060486
    64  C   -0.278841
    65  C   -0.327999
    66  H    0.088582
    67  H    0.086396
    68  H    0.076128
    69  H    0.124583
    70  H    0.121133
    71  H    0.103122
    72  H    0.122294
    73  H    0.114515
    74  H    0.103934
    75  H    0.121309
    76  H    0.132867
    77  H    0.135758
    78  H    0.090523
    79  H    0.138907
    80  H    0.091920
    81  H    0.080104
    82  H    0.104031
    83  H    0.102029
    84  H    0.107101
    85  H    0.111939
    86  H    0.123657
    87  H    0.119280
    88  H    0.071734
    89  H    0.086721
    90  H    0.118988
    91  H    0.112311
    92  H    0.137411
    93  H    0.147537
    94  H    0.116226
    95  H    0.174167
    96  H    0.117297
    97  H    0.117171
    98  H    0.114257
    99  H    0.126751
   100  H    0.098694
   101  H    0.093638
   102  H    0.111198
   103  H    0.121865
   104  H    0.114604
   105  H    0.076910
   106  H    0.095700
   107  H    0.053335
   108  H    0.101825
   109  H    0.059389
   110  H    0.102241
   111  H    0.068342
   112  H    0.118996
   113  H    0.067818
   114  H    0.091893
   115  H    0.079270
   116  H    0.090943
   117  H    0.076728
   118  H    0.061014
   119  H    0.087315
   120  H    0.097850
   121  H    0.060067
   122  H    0.077754
   123  H    0.121228
   124  H    0.096046
   125  H    0.040218
   126  H    0.099876
   127  H    0.092277
   128  H    0.105825
   129  H    0.089459
   130  H    0.090932
   131  H    0.073214
   132  H    0.051173
   133  H    0.079859
   134  H    0.119166
   135  H    0.105358
   136  H    0.107643
   137  H    0.102706
 Sum of Mulliken charges =   0.00000

 Dipole moment (field-independent basis, Debye):
    X=              1.7451    Y=              3.7835    Z=              0.5610  Tot=              4.2041
 Quadrupole moment (field-independent basis, Debye-Ang):
   XX=           -368.0313   YY=           -392.8989   ZZ=           -398.5594
   XY=            -26.8383   XZ=              6.7080   YZ=             -1.9405

 Normal termination of Gaussian 09 at Sat Jun 29 17:29:54 2019.
