 Gaussian 09, Revision D.01,
 Gaussian 09:  ES64L-G09RevD.01 24-Apr-2013

 -------------------------------------
 # td=(NStates=1) CAM-B3LYP/6-31G(d,p)
 -------------------------------------

 --
 TD
 --
 Symbolic Z-matrix:
 Charge =  0 Multiplicity = 1

                         Standard orientation:
 ---------------------------------------------------------------------
 Center     Atomic      Atomic             Coordinates (Angstroms)
 Number     Number       Type             X           Y           Z
 ---------------------------------------------------------------------
      1         12           0       -7.182459    0.595006    0.092260
      2          6           0       -4.751822   -1.973829    0.495863
      3          6           0       -4.791046    2.915080    1.178309
      4          6           0       -9.441971    3.092753   -0.299188
      5          6           0       -9.534016   -1.801485   -0.812043
      6          7           0       -5.151356    0.449899    0.724424
      7          6           0       -4.359667   -0.734060    0.763314
      8          6           0       -2.820872   -0.404206    1.086887
      9          6           0       -2.997313    1.016736    1.592790
     10          6           0       -4.332307    1.563045    1.089778
     11          6           0       -3.005492    1.092976    3.152450
     12          6           0       -1.910970   -0.659567   -0.035231
     13          6           0       -0.462023   -0.472555    0.433056
     14          6           0        0.525018   -0.602462   -0.779618
     15          8           0        0.234356   -0.888747   -1.884581
     16          8           0        1.851808   -0.285609   -0.307834
     17          7           0       -7.108746    2.686313    0.358195
     18          6           0       -6.053794    3.342454    0.838871
     19          6           0       -6.418147    4.743740    0.961577
     20          6           0       -7.663346    4.812524    0.510673
     21          6           0       -8.158164    3.525370    0.205989
     22          6           0       -5.615687    5.886032    1.560942
     23          6           0       -8.522408    6.015832    0.385790
     24          6           0       -8.139773    7.273949   -0.005129
     25          7           0       -9.095831    0.664133   -0.409329
     26          6           0       -9.924766    1.751584   -0.552271
     27          6           0      -11.223898    1.337348   -1.067059
     28          6           0      -11.188572    0.041575   -1.080446
     29          6           0       -9.908600   -0.413018   -0.723364
     30          6           0      -12.282519    2.401037   -1.437302
     31          6           0      -12.372181   -0.841983   -1.639772
     32          6           0      -12.300568   -0.931137   -3.175382
     33          7           0       -7.161907   -1.407073   -0.193818
     34          6           0       -8.258281   -2.215102   -0.529109
     35          6           0       -7.814681   -3.596898   -0.548082
     36          6           0       -6.450059   -3.605740   -0.216546
     37          6           0       -6.053763   -2.175227    0.051850
     38          6           0       -8.584523   -4.898708   -0.707962
     39          6           0       -5.314388   -4.442402    0.150552
     40          8           0       -5.046169   -5.598994    0.122352
     41          6           0       -4.101554   -3.332680    0.383846
     42          6           0       -3.514799   -3.662548    1.721858
     43          8           0       -3.857017   -3.142136    2.773788
     44          8           0       -2.566638   -4.704597    1.749182
     45          6           0       -2.404457   -5.240342    3.111888
     46          6           0        2.864045   -0.641999   -1.310641
     47          6           0        4.119029   -0.400317   -0.553138
     48          6           0        5.243755    0.367486   -1.022702
     49          6           0        5.110066    1.369587   -2.261939
     50          6           0        6.490162    0.494682   -0.136866
     51          6           0        7.670559   -0.004769   -0.986053
     52          6           0        8.938462   -0.068141   -0.092211
     53          6           0       10.234808   -0.541692   -0.780567
     54          6           0       10.022109   -2.064479   -1.057336
     55          6           0       11.458034   -0.232883   -0.079496
     56          6           0       12.750868   -0.666964   -0.663576
     57          6           0       13.900183   -0.106900    0.107349
     58          6           0       15.299349   -0.245309   -0.523969
     59          6           0       15.641902   -1.690753   -0.852119
     60          6           0       16.289316    0.409563    0.323504
     61          6           0       17.700465    0.448245   -0.164278
     62          6           0       18.752411    1.200223    0.752953
     63          6           0       20.127008    1.369992    0.241014
     64          6           0       20.185426    2.274533   -1.030005
     65          6           0       21.055009    1.819142    1.465911
     66          1           0       -4.058837    3.796778    1.192703
     67          1           0      -10.033189    4.022786   -0.314138
     68          1           0      -10.308957   -2.536608   -1.155067
     69          1           0       -2.638477   -0.855008    2.003434
     70          1           0       -2.191731    1.760872    1.083953
     71          1           0       -1.984044    0.699222    3.442249
     72          1           0       -3.110144    2.146775    3.654813
     73          1           0       -3.878977    0.513231    3.424386
     74          1           0       -2.083607   -1.584254   -0.569391
     75          1           0       -2.157832    0.274194   -0.787157
     76          1           0       -0.375549    0.694276    0.845947
     77          1           0       -0.177267   -1.247753    1.219727
     78          1           0       -4.994905    6.346944    0.819526
     79          1           0       -6.349978    6.649662    1.721505
     80          1           0       -5.215140    5.396770    2.361359
     81          1           0       -9.674794    5.937018    0.260178
     82          1           0       -8.722664    8.013332    0.081988
     83          1           0       -7.149749    7.519722   -0.222686
     84          1           0      -12.002765    3.243953   -2.124685
     85          1           0      -13.075363    1.932422   -1.841056
     86          1           0      -12.442075    3.019167   -0.496428
     87          1           0      -12.440502   -1.987783   -1.359968
     88          1           0      -13.307447   -0.376030   -1.365863
     89          1           0      -12.966666   -1.584494   -3.722138
     90          1           0      -12.357680   -0.107216   -3.710514
     91          1           0      -11.202546   -1.450307   -3.517750
     92          1           0       -9.229899   -5.013494   -1.516905
     93          1           0       -7.928506   -5.785040   -0.800167
     94          1           0       -9.163066   -5.084716    0.199412
     95          1           0       -3.366446   -3.664323   -0.412331
     96          1           0       -1.966479   -4.304340    3.611101
     97          1           0       -3.401798   -5.435079    3.690264
     98          1           0       -1.746881   -5.876120    2.831423
     99          1           0        2.769349   -1.781954   -1.668878
    100          1           0        2.874177   -0.069108   -2.066592
    101          1           0        4.411851   -1.150097    0.306350
    102          1           0        4.179556    1.469028   -2.533168
    103          1           0        5.291875    2.317171   -2.008591
    104          1           0        5.715502    1.272474   -3.019332
    105          1           0        6.728816    1.588969   -0.064445
    106          1           0        6.393943   -0.093313    0.725801
    107          1           0        7.607740   -1.016425   -1.320810
    108          1           0        7.955675    0.626224   -1.897371
    109          1           0        9.151612    0.990835    0.285216
    110          1           0        8.749405   -0.732190    0.883068
    111          1           0       10.454933   -0.084980   -1.788298
    112          1           0        9.129973   -2.363526   -1.570426
    113          1           0       11.032209   -2.424830   -1.627019
    114          1           0        9.958320   -2.691872   -0.149042
    115          1           0       11.625782    0.866330    0.191096
    116          1           0       11.463726   -0.717523    0.761460
    117          1           0       12.675578   -1.668888   -0.744871
    118          1           0       12.655133   -0.263764   -1.626281
    119          1           0       13.587181    0.923205    0.642659
    120          1           0       13.968881   -0.567030    1.069608
    121          1           0       15.140938    0.223770   -1.442162
    122          1           0       15.529820   -2.378271   -0.017166
    123          1           0       14.876379   -1.893511   -1.522200
    124          1           0       16.549106   -1.843566   -1.223140
    125          1           0       15.889882    1.282324    0.448123
    126          1           0       16.191310    0.004082    1.431482
    127          1           0       18.192385   -0.477706   -0.623729
    128          1           0       17.717131    1.196787   -1.150939
    129          1           0       18.437175    2.064885    0.984608
    130          1           0       18.925393    0.900426    1.872347
    131          1           0       20.617067    0.341438   -0.052139
    132          1           0       19.524389    3.137673   -0.732279
    133          1           0       21.271329    2.444379   -1.376240
    134          1           0       19.494581    1.656124   -1.843157
    135          1           0       21.010534    0.894069    2.220535
    136          1           0       22.016149    1.929085    1.071101
    137          1           0       20.613525    2.698389    1.898719
 ---------------------------------------------------------------------

 SCF Done:  E(RCAM-B3LYP) =  -2932.59167792     A.U. after   18 cycles

 Excitation energies and oscillator strengths:

 Excited State   1:      Singlet-A      2.0105 eV  616.68 nm  f=0.2471  <S**2>=0.000
     240 -> 243        0.23482
     241 -> 242        0.66264
 This state for optimization and/or second-order correction.
 Total Energy, E(TD-HF/TD-KS) =  -2932.51779276
 Copying the excited state density for this state as the 1-particle RhoCI density.

 The electronic state is 1-A.
 Alpha  occ. eigenvalues --  -46.83867 -19.24972 -19.24445 -19.22732 -19.21320
 Alpha  occ. eigenvalues --  -19.20306 -14.42263 -14.39999 -14.39994 -14.38811
 Alpha  occ. eigenvalues --  -10.39563 -10.38328 -10.35934 -10.32193 -10.30996
 Alpha  occ. eigenvalues --  -10.30667 -10.29938 -10.29921 -10.29793 -10.29616
 Alpha  occ. eigenvalues --  -10.29472 -10.29294 -10.29149 -10.29084 -10.28969
 Alpha  occ. eigenvalues --  -10.28873 -10.28866 -10.28741 -10.28658 -10.28259
 Alpha  occ. eigenvalues --  -10.28200 -10.28113 -10.27625 -10.27096 -10.27028
 Alpha  occ. eigenvalues --  -10.26799 -10.26676 -10.26645 -10.26583 -10.26579
 Alpha  occ. eigenvalues --  -10.26328 -10.26305 -10.26253 -10.26106 -10.26049
 Alpha  occ. eigenvalues --  -10.25971 -10.25937 -10.25894 -10.25832 -10.25816
 Alpha  occ. eigenvalues --  -10.25787 -10.25705 -10.25589 -10.25351 -10.25163
 Alpha  occ. eigenvalues --  -10.24860 -10.24855 -10.24566 -10.24417 -10.23730
 Alpha  occ. eigenvalues --  -10.23692 -10.22949 -10.22920 -10.22664 -10.22022
 Alpha  occ. eigenvalues --   -3.12971  -1.87680  -1.87215  -1.87145  -1.17143
 Alpha  occ. eigenvalues --   -1.15542  -1.13184  -1.09249  -1.07104  -1.05041
 Alpha  occ. eigenvalues --   -1.03744  -1.02664  -1.00912  -0.92566  -0.92552
 Alpha  occ. eigenvalues --   -0.90825  -0.90472  -0.89450  -0.89246  -0.88899
 Alpha  occ. eigenvalues --   -0.88602  -0.88112  -0.87109  -0.86995  -0.85944
 Alpha  occ. eigenvalues --   -0.85083  -0.83872  -0.83226  -0.83094  -0.82596
 Alpha  occ. eigenvalues --   -0.81666  -0.81072  -0.80709  -0.80427  -0.78825
 Alpha  occ. eigenvalues --   -0.78078  -0.77913  -0.76872  -0.76298  -0.75965
 Alpha  occ. eigenvalues --   -0.75475  -0.75167  -0.74910  -0.72930  -0.72183
 Alpha  occ. eigenvalues --   -0.71829  -0.70642  -0.70137  -0.69121  -0.68482
 Alpha  occ. eigenvalues --   -0.67583  -0.66887  -0.65581  -0.65328  -0.64530
 Alpha  occ. eigenvalues --   -0.64106  -0.63558  -0.62865  -0.62584  -0.61679
 Alpha  occ. eigenvalues --   -0.61085  -0.60423  -0.60029  -0.59772  -0.59255
 Alpha  occ. eigenvalues --   -0.58865  -0.58064  -0.57890  -0.57069  -0.56290
 Alpha  occ. eigenvalues --   -0.56225  -0.55849  -0.55384  -0.55036  -0.54643
 Alpha  occ. eigenvalues --   -0.54304  -0.53856  -0.53487  -0.52913  -0.52794
 Alpha  occ. eigenvalues --   -0.52721  -0.52608  -0.52357  -0.52025  -0.51707
 Alpha  occ. eigenvalues --   -0.51594  -0.51501  -0.51083  -0.50723  -0.50628
 Alpha  occ. eigenvalues --   -0.50433  -0.50263  -0.49937  -0.49827  -0.49803
 Alpha  occ. eigenvalues --   -0.49564  -0.49492  -0.49250  -0.49078  -0.48616
 Alpha  occ. eigenvalues --   -0.48503  -0.47917  -0.47725  -0.47660  -0.47215
 Alpha  occ. eigenvalues --   -0.46994  -0.46774  -0.46546  -0.46419  -0.46005
 Alpha  occ. eigenvalues --   -0.45988  -0.45908  -0.45746  -0.45551  -0.45127
 Alpha  occ. eigenvalues --   -0.45037  -0.44964  -0.44876  -0.44764  -0.44377
 Alpha  occ. eigenvalues --   -0.44242  -0.44203  -0.43965  -0.43846  -0.43298
 Alpha  occ. eigenvalues --   -0.43205  -0.42962  -0.42558  -0.42443  -0.42347
 Alpha  occ. eigenvalues --   -0.42323  -0.42192  -0.41772  -0.41754  -0.41673
 Alpha  occ. eigenvalues --   -0.41567  -0.41286  -0.41196  -0.40787  -0.40656
 Alpha  occ. eigenvalues --   -0.40539  -0.40224  -0.39922  -0.39897  -0.39416
 Alpha  occ. eigenvalues --   -0.39112  -0.38292  -0.38216  -0.38081  -0.37873
 Alpha  occ. eigenvalues --   -0.37815  -0.37134  -0.36962  -0.36712  -0.36363
 Alpha  occ. eigenvalues --   -0.36142  -0.35870  -0.35804  -0.35559  -0.35120
 Alpha  occ. eigenvalues --   -0.35033  -0.34577  -0.34222  -0.34164  -0.33807
 Alpha  occ. eigenvalues --   -0.33180  -0.32947  -0.32401  -0.31489  -0.30239
 Alpha  occ. eigenvalues --   -0.30064  -0.29317  -0.28175  -0.27724  -0.23884
 Alpha  occ. eigenvalues --   -0.21158
 Alpha virt. eigenvalues --   -0.06561  -0.03261   0.01267   0.03776   0.04938
 Alpha virt. eigenvalues --    0.05708   0.05977   0.06432   0.06580   0.06928
 Alpha virt. eigenvalues --    0.08628   0.10176   0.11274   0.11429   0.11806

 Mulliken charges:
               1
     1  Mg   0.823268
     2  C    0.168750
     3  C   -0.219605
     4  C   -0.160477
     5  C   -0.142796
     6  N   -0.627446
     7  C    0.252870
     8  C   -0.111188
     9  C   -0.171536
    10  C    0.324199
    11  C   -0.300946
    12  C   -0.151797
    13  C   -0.260810
    14  C    0.608145
    15  O   -0.421919
    16  O   -0.511621
    17  N   -0.715318
    18  C    0.349803
    19  C   -0.034448
    20  C    0.036002
    21  C    0.274982
    22  C   -0.349503
    23  C   -0.124503
    24  C   -0.220172
    25  N   -0.698382
    26  C    0.263767
    27  C    0.059408
    28  C   -0.002949
    29  C    0.281527
    30  C   -0.353018
    31  C   -0.236202
    32  C   -0.300509
    33  N   -0.756912
    34  C    0.296973
    35  C    0.012138
    36  C   -0.011864
    37  C    0.259940
    38  C   -0.388515
    39  C    0.373463
    40  O   -0.430167
    41  C   -0.368660
    42  C    0.637613
    43  O   -0.483987
    44  O   -0.509054
    45  C   -0.060450
    46  C    0.046255
    47  C   -0.145398
    48  C    0.079047
    49  C   -0.364222
    50  C   -0.203320
    51  C   -0.181061
    52  C   -0.171423
    53  C   -0.055248
    54  C   -0.321287
    55  C   -0.167470
    56  C   -0.178745
    57  C   -0.198365
    58  C   -0.071588
    59  C   -0.305075
    60  C   -0.136832
    61  C   -0.184834
    62  C   -0.147956
    63  C   -0.063486
    64  C   -0.292223
    65  C   -0.312215
    66  H    0.098769
    67  H    0.077062
    68  H    0.114343
    69  H    0.130754
    70  H    0.074879
    71  H    0.110018
    72  H    0.107110
    73  H    0.138641
    74  H    0.131363
    75  H    0.093248
    76  H    0.121260
    77  H    0.139343
    78  H    0.125918
    79  H    0.124374
    80  H    0.128445
    81  H    0.089153
    82  H    0.101051
    83  H    0.097282
    84  H    0.121437
    85  H    0.115869
    86  H    0.118730
    87  H    0.095603
    88  H    0.111425
    89  H    0.105068
    90  H    0.124050
    91  H    0.066215
    92  H    0.124815
    93  H    0.144197
    94  H    0.135009
    95  H    0.160480
    96  H    0.120118
    97  H    0.134193
    98  H    0.126647
    99  H    0.105419
   100  H    0.118086
   101  H    0.077244
   102  H    0.119799
   103  H    0.119785
   104  H    0.126466
   105  H    0.111105
   106  H    0.111023
   107  H    0.104306
   108  H    0.093757
   109  H    0.073826
   110  H    0.071690
   111  H    0.073490
   112  H    0.113170
   113  H    0.075701
   114  H    0.100097
   115  H    0.075500
   116  H    0.097798
   117  H    0.111280
   118  H    0.087342
   119  H    0.066933
   120  H    0.095759
   121  H    0.093501
   122  H    0.094183
   123  H    0.105021
   124  H    0.109278
   125  H    0.103921
   126  H    0.065525
   127  H    0.095352
   128  H    0.059918
   129  H    0.100522
   130  H    0.064089
   131  H    0.063130
   132  H    0.098679
   133  H    0.100730
   134  H    0.084139
   135  H    0.091529
   136  H    0.106765
   137  H    0.104624
 Sum of Mulliken charges =   0.00000

 Dipole moment (field-independent basis, Debye):
    X=             -0.4846    Y=              4.0169    Z=             -0.3276  Tot=              4.0592
 Quadrupole moment (field-independent basis, Debye-Ang):
   XX=           -342.2354   YY=           -389.3619   ZZ=           -398.6228
   XY=            -11.5281   XZ=             11.8205   YZ=             -2.2648

 Normal termination of Gaussian 09 at Thu Jun 27 20:14:51 2019.
