 Gaussian 09, Revision D.01,
 Gaussian 09:  ES64L-G09RevD.01 24-Apr-2013

 -------------------------------------
 # td=(NStates=1) CAM-B3LYP/6-31G(d,p)
 -------------------------------------

 --
 TD
 --
 Symbolic Z-matrix:
 Charge =  0 Multiplicity = 1

                         Standard orientation:
 ---------------------------------------------------------------------
 Center     Atomic      Atomic             Coordinates (Angstroms)
 Number     Number       Type             X           Y           Z
 ---------------------------------------------------------------------
      1         12           0       -7.139329    0.553562    0.043697
      2          6           0       -4.839646   -2.005509    0.459527
      3          6           0       -4.718768    2.750465    1.215798
      4          6           0       -9.442095    3.039339   -0.344591
      5          6           0       -9.572455   -1.796418   -0.738367
      6          7           0       -5.092962    0.362726    0.632570
      7          6           0       -4.267531   -0.702078    0.799931
      8          6           0       -2.816037   -0.365103    1.224128
      9          6           0       -3.045258    1.012262    1.753018
     10          6           0       -4.338037    1.423006    1.136066
     11          6           0       -3.071820    1.211434    3.213819
     12          6           0       -1.867940   -0.595184    0.057463
     13          6           0       -0.408744   -0.467987    0.472180
     14          6           0        0.541846   -0.558884   -0.691859
     15          8           0        0.180786   -0.899502   -1.834714
     16          8           0        1.844585   -0.357793   -0.241655
     17          7           0       -7.075969    2.593316    0.345977
     18          6           0       -6.042154    3.352324    0.817890
     19          6           0       -6.396596    4.737734    0.890439
     20          6           0       -7.705142    4.863840    0.426905
     21          6           0       -8.141258    3.430261    0.104413
     22          6           0       -5.432757    5.785892    1.449119
     23          6           0       -8.608669    6.004820    0.499761
     24          6           0       -8.261998    7.274492    0.231375
     25          7           0       -9.148533    0.551134   -0.507795
     26          6           0       -9.834137    1.740697   -0.651985
     27          6           0      -11.138335    1.414578   -1.124097
     28          6           0      -11.202457    0.107408   -1.300069
     29          6           0       -9.944670   -0.471673   -0.810364
     30          6           0      -12.242016    2.454163   -1.378315
     31          6           0      -12.369197   -0.784863   -1.793336
     32          6           0      -12.286534   -1.007763   -3.333432
     33          7           0       -7.176672   -1.431286   -0.090732
     34          6           0       -8.251462   -2.202206   -0.501255
     35          6           0       -7.854549   -3.621306   -0.501713
     36          6           0       -6.484070   -3.517584   -0.117018
     37          6           0       -6.183845   -2.247412    0.133299
     38          6           0       -8.637313   -4.866611   -0.804098
     39          6           0       -5.358589   -4.367510    0.241474
     40          8           0       -5.151101   -5.616612    0.157127
     41          6           0       -4.130012   -3.289526    0.539797
     42          6           0       -3.564415   -3.658256    1.849985
     43          8           0       -3.792706   -3.158933    2.946158
     44          8           0       -2.558986   -4.659556    1.716536
     45          6           0       -1.988473   -5.118478    3.008217
     46          6           0        2.777074   -0.560907   -1.218511
     47          6           0        4.108571   -0.349229   -0.565805
     48          6           0        5.111008    0.415041   -0.962182
     49          6           0        4.966787    1.326799   -2.155598
     50          6           0        6.429333    0.501840   -0.199689
     51          6           0        7.628241   -0.138946   -0.963230
     52          6           0        8.871153    0.132455   -0.143508
     53          6           0       10.153209   -0.365444   -0.828927
     54          6           0       10.029712   -1.827195   -1.380588
     55          6           0       11.410382   -0.247894   -0.020832
     56          6           0       12.751460   -0.549573   -0.751977
     57          6           0       13.925796   -0.110702    0.101869
     58          6           0       15.267304   -0.238475   -0.479121
     59          6           0       15.661330   -1.720319   -0.895140
     60          6           0       16.390073    0.306219    0.575427
     61          6           0       17.755230    0.411437   -0.117423
     62          6           0       18.775858    1.193160    0.756928
     63          6           0       20.141982    1.310529    0.172599
     64          6           0       20.166605    2.167873   -1.075819
     65          6           0       21.034616    1.741664    1.266040
     66          1           0       -3.887656    3.579104    1.384525
     67          1           0      -10.144732    3.756328   -0.821300
     68          1           0      -10.278722   -2.670722   -1.234099
     69          1           0       -2.622486   -1.074421    1.948584
     70          1           0       -2.343818    1.673554    1.267313
     71          1           0       -2.097541    1.062071    3.776101
     72          1           0       -3.624281    2.183747    3.547119
     73          1           0       -3.852569    0.421105    3.636338
     74          1           0       -1.814912   -1.714510   -0.432671
     75          1           0       -1.960086    0.097247   -0.729708
     76          1           0       -0.069635    0.567343    1.080804
     77          1           0       -0.211597   -1.201747    1.398846
     78          1           0       -4.954122    6.208676    0.619973
     79          1           0       -6.026628    6.562919    1.929418
     80          1           0       -4.765205    5.381575    2.178331
     81          1           0       -9.679688    5.906383    0.608802
     82          1           0       -9.020646    8.195054    0.485685
     83          1           0       -7.344933    7.724981    0.021110
     84          1           0      -12.060418    2.936837   -2.403303
     85          1           0      -13.258422    1.880368   -1.407866
     86          1           0      -12.169616    3.327807   -0.587064
     87          1           0      -12.420086   -1.861621   -1.308800
     88          1           0      -13.284931   -0.421619   -1.733940
     89          1           0      -12.998686   -1.731464   -3.554399
     90          1           0      -12.641973   -0.007846   -3.788317
     91          1           0      -11.165601   -1.401643   -3.732311
     92          1           0       -8.938043   -4.791532   -1.857078
     93          1           0       -8.104576   -5.536776   -0.728892
     94          1           0       -9.592820   -4.996507   -0.426210
     95          1           0       -3.425177   -3.492114   -0.272934
     96          1           0       -1.196861   -4.477544    3.398930
     97          1           0       -2.785011   -5.362513    3.628580
     98          1           0       -1.369638   -6.106107    2.721289
     99          1           0        2.696786   -1.668494   -1.675444
    100          1           0        2.705240    0.366600   -1.937259
    101          1           0        4.414404   -1.017639    0.164150
    102          1           0        3.914844    1.923081   -2.361246
    103          1           0        5.560749    2.211254   -2.021782
    104          1           0        5.212477    0.780122   -3.011073
    105          1           0        6.613611    1.360296   -0.178815
    106          1           0        6.500757    0.060539    0.749767
    107          1           0        7.438988   -1.326956   -1.075013
    108          1           0        7.732924    0.489604   -2.030943
    109          1           0        8.955962    1.220553   -0.063158
    110          1           0        8.770976   -0.323857    0.933687
    111          1           0       10.134726    0.409983   -1.656257
    112          1           0        9.262834   -1.974133   -2.252277
    113          1           0       11.099316   -2.155020   -1.709532
    114          1           0        9.887734   -2.504619   -0.582288
    115          1           0       11.338432    0.905858    0.304491
    116          1           0       11.336924   -0.930319    0.913102
    117          1           0       12.826922   -1.720787   -0.858130
    118          1           0       12.961297   -0.085851   -1.643621
    119          1           0       13.825614    0.966741    0.298944
    120          1           0       13.831565   -0.884191    1.049152
    121          1           0       15.412645    0.487626   -1.375448
    122          1           0       15.722082   -2.470400   -0.237852
    123          1           0       14.948546   -2.076708   -1.582783
    124          1           0       16.657492   -1.459145   -1.362833
    125          1           0       15.893774    1.394387    0.719906
    126          1           0       16.355652   -0.293717    1.464810
    127          1           0       18.166321   -0.613796   -0.062338
    128          1           0       17.769313    0.812678   -1.137831
    129          1           0       18.310833    2.133631    1.053084
    130          1           0       18.933795    0.668189    1.916662
    131          1           0       20.492491    0.293421   -0.063778
    132          1           0       19.990417    3.061043   -0.707835
    133          1           0       21.224868    2.180794   -1.662696
    134          1           0       19.461265    2.009728   -1.982494
    135          1           0       21.052399    1.058013    2.169792
    136          1           0       22.149552    1.627300    0.890562
    137          1           0       20.793314    2.692775    1.567930
 ---------------------------------------------------------------------

 SCF Done:  E(RCAM-B3LYP) =  -2932.61898701     A.U. after   16 cycles

 Excitation energies and oscillator strengths:

 Excited State   1:      Singlet-A      1.9122 eV  648.39 nm  f=0.2951  <S**2>=0.000
     240 -> 243       -0.23383
     241 -> 242        0.66236
 This state for optimization and/or second-order correction.
 Total Energy, E(TD-HF/TD-KS) =  -2932.54871558
 Copying the excited state density for this state as the 1-particle RhoCI density.

 The electronic state is 1-A.
 Alpha  occ. eigenvalues --  -46.84768 -19.26779 -19.24583 -19.22280 -19.20780
 Alpha  occ. eigenvalues --  -19.20595 -14.42432 -14.40360 -14.39355 -14.39045
 Alpha  occ. eigenvalues --  -10.40381 -10.38957 -10.35817 -10.32388 -10.31686
 Alpha  occ. eigenvalues --  -10.30916 -10.30653 -10.30476 -10.30389 -10.29793
 Alpha  occ. eigenvalues --  -10.29708 -10.29296 -10.28826 -10.28691 -10.28625
 Alpha  occ. eigenvalues --  -10.28336 -10.28029 -10.28026 -10.27980 -10.27913
 Alpha  occ. eigenvalues --  -10.27815 -10.27758 -10.27558 -10.27536 -10.27522
 Alpha  occ. eigenvalues --  -10.27314 -10.27206 -10.27116 -10.26857 -10.26846
 Alpha  occ. eigenvalues --  -10.26737 -10.26679 -10.26635 -10.26542 -10.26433
 Alpha  occ. eigenvalues --  -10.26135 -10.26094 -10.25954 -10.25940 -10.25888
 Alpha  occ. eigenvalues --  -10.25865 -10.25647 -10.25451 -10.25315 -10.25273
 Alpha  occ. eigenvalues --  -10.25270 -10.25251 -10.25178 -10.25132 -10.25107
 Alpha  occ. eigenvalues --  -10.24515 -10.23927 -10.23911 -10.23560 -10.23111
 Alpha  occ. eigenvalues --   -3.13776  -1.88488  -1.88011  -1.87954  -1.18452
 Alpha  occ. eigenvalues --   -1.14792  -1.09685  -1.08119  -1.06744  -1.05690
 Alpha  occ. eigenvalues --   -1.04342  -1.04077  -1.02711  -0.92957  -0.91766
 Alpha  occ. eigenvalues --   -0.91311  -0.90799  -0.90117  -0.88971  -0.88733
 Alpha  occ. eigenvalues --   -0.88663  -0.88434  -0.87921  -0.87824  -0.86160
 Alpha  occ. eigenvalues --   -0.85346  -0.84195  -0.83787  -0.83261  -0.82698
 Alpha  occ. eigenvalues --   -0.81778  -0.81242  -0.79901  -0.79557  -0.78874
 Alpha  occ. eigenvalues --   -0.77591  -0.76776  -0.76465  -0.76394  -0.75621
 Alpha  occ. eigenvalues --   -0.75436  -0.75132  -0.74269  -0.73697  -0.72903
 Alpha  occ. eigenvalues --   -0.71338  -0.70251  -0.69303  -0.68618  -0.68214
 Alpha  occ. eigenvalues --   -0.67143  -0.65970  -0.65658  -0.64753  -0.63998
 Alpha  occ. eigenvalues --   -0.63782  -0.63117  -0.62476  -0.61845  -0.61195
 Alpha  occ. eigenvalues --   -0.61167  -0.61115  -0.59864  -0.59811  -0.59479
 Alpha  occ. eigenvalues --   -0.59058  -0.58365  -0.57681  -0.57345  -0.56997
 Alpha  occ. eigenvalues --   -0.56569  -0.55927  -0.55619  -0.54773  -0.54743
 Alpha  occ. eigenvalues --   -0.54425  -0.54027  -0.53779  -0.53627  -0.53498
 Alpha  occ. eigenvalues --   -0.52654  -0.52467  -0.52108  -0.51836  -0.51700
 Alpha  occ. eigenvalues --   -0.51478  -0.51270  -0.51190  -0.50930  -0.50676
 Alpha  occ. eigenvalues --   -0.50581  -0.50386  -0.50147  -0.49953  -0.49606
 Alpha  occ. eigenvalues --   -0.49404  -0.49173  -0.48941  -0.48443  -0.48244
 Alpha  occ. eigenvalues --   -0.48190  -0.47893  -0.47599  -0.47465  -0.47144
 Alpha  occ. eigenvalues --   -0.47044  -0.46832  -0.46401  -0.46366  -0.46038
 Alpha  occ. eigenvalues --   -0.45929  -0.45872  -0.45604  -0.45537  -0.45277
 Alpha  occ. eigenvalues --   -0.45059  -0.44559  -0.44402  -0.44341  -0.44197
 Alpha  occ. eigenvalues --   -0.43858  -0.43663  -0.43577  -0.43411  -0.43086
 Alpha  occ. eigenvalues --   -0.42984  -0.42783  -0.42195  -0.42008  -0.41948
 Alpha  occ. eigenvalues --   -0.41796  -0.41673  -0.41546  -0.41297  -0.41057
 Alpha  occ. eigenvalues --   -0.40979  -0.40794  -0.40755  -0.40346  -0.40229
 Alpha  occ. eigenvalues --   -0.40079  -0.39953  -0.39861  -0.39542  -0.39495
 Alpha  occ. eigenvalues --   -0.39023  -0.38998  -0.38461  -0.38227  -0.38078
 Alpha  occ. eigenvalues --   -0.37972  -0.37491  -0.37407  -0.37023  -0.36790
 Alpha  occ. eigenvalues --   -0.36762  -0.36244  -0.36174  -0.35467  -0.35430
 Alpha  occ. eigenvalues --   -0.35303  -0.35000  -0.34751  -0.34400  -0.33793
 Alpha  occ. eigenvalues --   -0.33188  -0.32509  -0.32402  -0.30870  -0.29793
 Alpha  occ. eigenvalues --   -0.29686  -0.29585  -0.28971  -0.27693  -0.23043
 Alpha  occ. eigenvalues --   -0.21219
 Alpha virt. eigenvalues --   -0.07303  -0.03018   0.01227   0.03701   0.04056
 Alpha virt. eigenvalues --    0.05377   0.05668   0.06690   0.06742   0.06985
 Alpha virt. eigenvalues --    0.08053   0.09977   0.11094   0.11306   0.11419

 Mulliken charges:
               1
     1  Mg   0.828960
     2  C    0.020986
     3  C   -0.220737
     4  C   -0.164103
     5  C   -0.170463
     6  N   -0.598555
     7  C    0.286981
     8  C   -0.121893
     9  C   -0.122479
    10  C    0.327102
    11  C   -0.306233
    12  C   -0.161676
    13  C   -0.271031
    14  C    0.633141
    15  O   -0.474405
    16  O   -0.455576
    17  N   -0.689700
    18  C    0.299706
    19  C    0.001737
    20  C   -0.003342
    21  C    0.265317
    22  C   -0.364595
    23  C   -0.087564
    24  C   -0.237435
    25  N   -0.710002
    26  C    0.306002
    27  C    0.023830
    28  C    0.025678
    29  C    0.307185
    30  C   -0.369514
    31  C   -0.236834
    32  C   -0.297088
    33  N   -0.752822
    34  C    0.259331
    35  C    0.001207
    36  C   -0.011371
    37  C    0.373594
    38  C   -0.311130
    39  C    0.346618
    40  O   -0.480290
    41  C   -0.334385
    42  C    0.636220
    43  O   -0.484453
    44  O   -0.498476
    45  C   -0.069984
    46  C    0.025805
    47  C   -0.125201
    48  C    0.094416
    49  C   -0.376780
    50  C   -0.166355
    51  C   -0.180746
    52  C   -0.167174
    53  C   -0.040382
    54  C   -0.320725
    55  C   -0.156414
    56  C   -0.170257
    57  C   -0.140295
    58  C   -0.081410
    59  C   -0.318336
    60  C   -0.157721
    61  C   -0.181249
    62  C   -0.161171
    63  C   -0.049595
    64  C   -0.298476
    65  C   -0.302043
    66  H    0.089649
    67  H    0.107492
    68  H    0.097187
    69  H    0.128128
    70  H    0.109629
    71  H    0.109714
    72  H    0.114794
    73  H    0.111605
    74  H    0.122720
    75  H    0.128249
    76  H    0.104273
    77  H    0.131050
    78  H    0.135350
    79  H    0.122583
    80  H    0.120084
    81  H    0.106134
    82  H    0.075948
    83  H    0.107623
    84  H    0.121402
    85  H    0.109134
    86  H    0.111044
    87  H    0.088411
    88  H    0.111691
    89  H    0.114028
    90  H    0.098523
    91  H    0.085060
    92  H    0.120522
    93  H    0.125612
    94  H    0.133724
    95  H    0.170208
    96  H    0.121202
    97  H    0.146985
    98  H    0.104529
    99  H    0.113593
   100  H    0.097611
   101  H    0.076491
   102  H    0.097186
   103  H    0.108352
   104  H    0.143018
   105  H    0.095724
   106  H    0.104955
   107  H    0.091192
   108  H    0.065958
   109  H    0.092914
   110  H    0.071500
   111  H    0.076080
   112  H    0.098943
   113  H    0.088465
   114  H    0.107358
   115  H    0.066749
   116  H    0.083505
   117  H    0.083779
   118  H    0.100643
   119  H    0.084800
   120  H    0.058425
   121  H    0.069012
   122  H    0.109930
   123  H    0.100733
   124  H    0.098586
   125  H    0.061015
   126  H    0.103849
   127  H    0.105204
   128  H    0.098539
   129  H    0.088767
   130  H    0.043198
   131  H    0.085805
   132  H    0.117147
   133  H    0.078335
   134  H    0.096375
   135  H    0.101976
   136  H    0.077471
   137  H    0.109176
 Sum of Mulliken charges =   0.00000

 Dipole moment (field-independent basis, Debye):
    X=              1.3362    Y=              4.8767    Z=             -0.0987  Tot=              5.0574
 Quadrupole moment (field-independent basis, Debye-Ang):
   XX=           -333.3388   YY=           -397.2573   ZZ=           -401.8771
   XY=            -14.5012   XZ=             14.6114   YZ=             -2.0319

 Normal termination of Gaussian 09 at Sun Jun 30 02:14:19 2019.
