 Gaussian 09, Revision D.01,
 Gaussian 09:  ES64L-G09RevD.01 24-Apr-2013

 -------------------------------------
 # td=(NStates=1) CAM-B3LYP/6-31G(d,p)
 -------------------------------------

 --
 TD
 --
 Symbolic Z-matrix:
 Charge =  0 Multiplicity = 1

                         Standard orientation:
 ---------------------------------------------------------------------
 Center     Atomic      Atomic             Coordinates (Angstroms)
 Number     Number       Type             X           Y           Z
 ---------------------------------------------------------------------
      1         12           0       -7.210808    0.682641    0.128917
      2          6           0       -4.841865   -1.982051    0.438793
      3          6           0       -4.822940    2.796283    1.147841
      4          6           0       -9.527872    3.048179   -0.247224
      5          6           0       -9.547120   -1.778909   -0.802799
      6          7           0       -5.048449    0.391210    0.617605
      7          6           0       -4.274367   -0.720362    0.755483
      8          6           0       -2.920490   -0.363239    1.286521
      9          6           0       -2.971288    1.117443    1.704876
     10          6           0       -4.343108    1.504516    1.068456
     11          6           0       -2.877739    1.263322    3.229755
     12          6           0       -1.802509   -0.663418    0.219950
     13          6           0       -0.396973   -0.435389    0.712300
     14          6           0        0.644461   -0.627640   -0.477410
     15          8           0        0.288367   -0.971482   -1.567544
     16          8           0        1.887101   -0.425224   -0.115848
     17          7           0       -7.194423    2.684768    0.400760
     18          6           0       -6.164044    3.389089    0.913588
     19          6           0       -6.486911    4.857944    0.861251
     20          6           0       -7.841283    4.778123    0.465874
     21          6           0       -8.270898    3.453182    0.249768
     22          6           0       -5.642894    5.976330    1.239684
     23          6           0       -8.614167    5.886861    0.319605
     24          6           0       -8.325896    7.181680   -0.100108
     25          7           0       -9.158370    0.632825   -0.535168
     26          6           0      -10.018084    1.767568   -0.604818
     27          6           0      -11.317366    1.359870   -1.015466
     28          6           0      -11.347648    0.066522   -1.205543
     29          6           0      -10.030995   -0.428760   -0.876193
     30          6           0      -12.404592    2.483803   -1.298070
     31          6           0      -12.413102   -0.800740   -1.826750
     32          6           0      -12.215761   -1.237191   -3.265441
     33          7           0       -7.187704   -1.418723   -0.219313
     34          6           0       -8.272426   -2.197213   -0.559880
     35          6           0       -7.827654   -3.609137   -0.509190
     36          6           0       -6.460410   -3.592244   -0.111271
     37          6           0       -6.195367   -2.220863   -0.032963
     38          6           0       -8.727153   -4.826872   -0.751042
     39          6           0       -5.311589   -4.447848    0.196077
     40          8           0       -5.148655   -5.687844    0.141744
     41          6           0       -4.116753   -3.333287    0.452853
     42          6           0       -3.580720   -3.670860    1.766567
     43          8           0       -3.739453   -3.084360    2.833067
     44          8           0       -2.586223   -4.680762    1.620664
     45          6           0       -2.071592   -5.259907    2.902205
     46          6           0        2.871823   -0.619015   -1.178120
     47          6           0        4.135702   -0.386389   -0.499486
     48          6           0        5.173559    0.463763   -0.990500
     49          6           0        4.970885    1.222508   -2.300172
     50          6           0        6.446373    0.553357   -0.248184
     51          6           0        7.738834   -0.059412   -0.980365
     52          6           0        8.996498    0.018637   -0.092775
     53          6           0       10.257659   -0.478469   -0.900166
     54          6           0        9.907074   -1.889871   -1.472835
     55          6           0       11.419850   -0.295685   -0.041995
     56          6           0       12.835991   -0.504243   -0.777213
     57          6           0       13.955883   -0.176708    0.203454
     58          6           0       15.332429   -0.308626   -0.444618
     59          6           0       15.682075   -1.752272   -0.880396
     60          6           0       16.425625    0.388630    0.463119
     61          6           0       17.801652    0.465339   -0.125904
     62          6           0       18.793109    1.270227    0.808368
     63          6           0       20.259875    1.371250    0.183379
     64          6           0       20.407627    2.199099   -1.084976
     65          6           0       21.170870    1.837746    1.241935
     66          1           0       -4.075400    3.573016    1.559672
     67          1           0      -10.190006    3.985175   -0.546400
     68          1           0      -10.410814   -2.519056   -1.049753
     69          1           0       -2.680466   -1.087383    2.306966
     70          1           0       -2.323035    1.754606    1.111706
     71          1           0       -2.045166    1.052117    3.586330
     72          1           0       -3.022343    2.275323    3.428215
     73          1           0       -3.858812    0.572706    3.513184
     74          1           0       -1.911703   -1.692546    0.061744
     75          1           0       -1.912087   -0.154434   -0.671022
     76          1           0       -0.100352    0.456909    1.131813
     77          1           0       -0.150730   -1.200258    1.493910
     78          1           0       -4.775566    6.330604    0.449892
     79          1           0       -6.262743    6.729702    1.794050
     80          1           0       -5.078251    5.643320    2.062094
     81          1           0       -9.586214    5.669590    0.588654
     82          1           0       -8.880989    8.036582   -0.106856
     83          1           0       -7.387465    7.416107   -0.697790
     84          1           0      -12.176210    3.331225   -2.051503
     85          1           0      -13.294979    1.888022   -1.459504
     86          1           0      -12.393183    3.125068   -0.478575
     87          1           0      -12.585408   -1.745642   -1.319693
     88          1           0      -13.260199   -0.099676   -1.597287
     89          1           0      -12.988862   -1.841749   -3.578335
     90          1           0      -12.472584   -0.267193   -3.690215
     91          1           0      -11.221324   -1.669436   -3.416646
     92          1           0       -9.222795   -4.612267   -1.757176
     93          1           0       -8.285380   -5.829461   -0.642073
     94          1           0       -9.344935   -5.028160    0.133233
     95          1           0       -3.269177   -3.393330   -0.261263
     96          1           0       -1.446345   -4.323988    3.279927
     97          1           0       -2.964131   -5.482091    3.540083
     98          1           0       -1.148783   -6.099639    2.563367
     99          1           0        2.790485   -1.613885   -1.496747
    100          1           0        2.510382    0.187609   -1.708287
    101          1           0        4.270482   -0.880395    0.436021
    102          1           0        3.893340    0.868220   -2.612746
    103          1           0        5.147668    2.305164   -2.090982
    104          1           0        5.658400    0.914858   -3.151369
    105          1           0        6.643853    1.703043   -0.154763
    106          1           0        6.457249    0.145476    0.794206
    107          1           0        7.554707   -1.059028   -1.335309
    108          1           0        7.665749    0.358817   -2.023021
    109          1           0        9.066616    1.071934    0.217966
    110          1           0        8.862215   -0.670152    0.775535
    111          1           0       10.663270    0.243780   -1.604973
    112          1           0        9.052608   -1.995047   -2.093394
    113          1           0       10.832705   -2.379873   -1.984286
    114          1           0        9.777905   -2.501785   -0.526350
    115          1           0       11.417617    0.684768    0.367070
    116          1           0       11.347588   -0.908582    0.908214
    117          1           0       13.013531   -1.572948   -1.281845
    118          1           0       12.910104    0.373618   -1.580052
    119          1           0       13.705660    0.692455    0.763133
    120          1           0       13.944918   -0.747851    0.939776
    121          1           0       15.199691    0.359301   -1.336169
    122          1           0       15.903026   -2.367841    0.002244
    123          1           0       15.011625   -2.122489   -1.555243
    124          1           0       16.768863   -1.641741   -1.423228
    125          1           0       16.074471    1.260114    0.933849
    126          1           0       16.518803   -0.317961    1.353284
    127          1           0       18.178914   -0.455260   -0.306638
    128          1           0       17.946269    0.921972   -0.983931
    129          1           0       18.507247    2.361095    1.146026
    130          1           0       18.885158    0.956769    1.741962
    131          1           0       20.659155    0.340105    0.138515
    132          1           0       19.902004    3.096824   -1.159924
    133          1           0       21.426707    2.241967   -1.513784
    134          1           0       19.937730    1.439829   -1.959887
    135          1           0       21.157743    1.351423    2.295193
    136          1           0       22.098785    1.824008    0.888926
    137          1           0       20.940743    2.985167    1.430445
 ---------------------------------------------------------------------

 SCF Done:  E(RCAM-B3LYP) =  -2932.63362302     A.U. after   16 cycles

 Excitation energies and oscillator strengths:

 Excited State   1:      Singlet-A      1.9994 eV  620.10 nm  f=0.2380  <S**2>=0.000
     240 -> 243        0.25973
     241 -> 242        0.64797
 This state for optimization and/or second-order correction.
 Total Energy, E(TD-HF/TD-KS) =  -2932.56014570
 Copying the excited state density for this state as the 1-particle RhoCI density.

 The electronic state is 1-A.
 Alpha  occ. eigenvalues --  -46.85860 -19.25730 -19.24270 -19.21415 -19.20966
 Alpha  occ. eigenvalues --  -19.19902 -14.41424 -14.40000 -14.39705 -14.39513
 Alpha  occ. eigenvalues --  -10.38805 -10.38176 -10.36675 -10.33554 -10.30856
 Alpha  occ. eigenvalues --  -10.30771 -10.30722 -10.30497 -10.29789 -10.29682
 Alpha  occ. eigenvalues --  -10.29311 -10.29109 -10.29081 -10.28924 -10.28864
 Alpha  occ. eigenvalues --  -10.28551 -10.28550 -10.28403 -10.28082 -10.27519
 Alpha  occ. eigenvalues --  -10.27127 -10.27112 -10.27033 -10.26954 -10.26939
 Alpha  occ. eigenvalues --  -10.26816 -10.26700 -10.26689 -10.26600 -10.26555
 Alpha  occ. eigenvalues --  -10.26505 -10.26462 -10.26215 -10.26027 -10.25999
 Alpha  occ. eigenvalues --  -10.25962 -10.25881 -10.25822 -10.25784 -10.25782
 Alpha  occ. eigenvalues --  -10.25769 -10.25739 -10.25735 -10.25705 -10.25640
 Alpha  occ. eigenvalues --  -10.25280 -10.25048 -10.24994 -10.24766 -10.24620
 Alpha  occ. eigenvalues --  -10.24619 -10.24535 -10.23848 -10.22849 -10.22236
 Alpha  occ. eigenvalues --   -3.14601  -1.89324  -1.88825  -1.88772  -1.19216
 Alpha  occ. eigenvalues --   -1.14681  -1.09517  -1.09481  -1.06736  -1.05506
 Alpha  occ. eigenvalues --   -1.04809  -1.02698  -1.01666  -0.91876  -0.91138
 Alpha  occ. eigenvalues --   -0.90400  -0.89893  -0.89737  -0.89326  -0.89240
 Alpha  occ. eigenvalues --   -0.88535  -0.88113  -0.87177  -0.86899  -0.85983
 Alpha  occ. eigenvalues --   -0.85159  -0.84350  -0.83798  -0.83167  -0.82737
 Alpha  occ. eigenvalues --   -0.81720  -0.80412  -0.79564  -0.79343  -0.78266
 Alpha  occ. eigenvalues --   -0.77984  -0.77250  -0.76219  -0.75916  -0.75617
 Alpha  occ. eigenvalues --   -0.75558  -0.74872  -0.74277  -0.72973  -0.72370
 Alpha  occ. eigenvalues --   -0.71729  -0.70843  -0.70036  -0.69416  -0.69015
 Alpha  occ. eigenvalues --   -0.68262  -0.67651  -0.65595  -0.64854  -0.64366
 Alpha  occ. eigenvalues --   -0.64240  -0.63163  -0.63065  -0.63034  -0.62244
 Alpha  occ. eigenvalues --   -0.60975  -0.60787  -0.60361  -0.59589  -0.59151
 Alpha  occ. eigenvalues --   -0.58630  -0.58002  -0.57756  -0.57237  -0.56438
 Alpha  occ. eigenvalues --   -0.55941  -0.55365  -0.55210  -0.54872  -0.54216
 Alpha  occ. eigenvalues --   -0.54108  -0.53863  -0.53768  -0.53187  -0.53072
 Alpha  occ. eigenvalues --   -0.52523  -0.52469  -0.52297  -0.51915  -0.51873
 Alpha  occ. eigenvalues --   -0.51712  -0.51374  -0.51128  -0.50731  -0.50313
 Alpha  occ. eigenvalues --   -0.50195  -0.50110  -0.49986  -0.49790  -0.49655
 Alpha  occ. eigenvalues --   -0.49539  -0.49389  -0.48936  -0.48387  -0.48303
 Alpha  occ. eigenvalues --   -0.48134  -0.47785  -0.47748  -0.47355  -0.47101
 Alpha  occ. eigenvalues --   -0.46984  -0.46647  -0.46420  -0.46219  -0.46136
 Alpha  occ. eigenvalues --   -0.46006  -0.45810  -0.45722  -0.45371  -0.45173
 Alpha  occ. eigenvalues --   -0.45063  -0.44589  -0.44496  -0.44161  -0.44078
 Alpha  occ. eigenvalues --   -0.44013  -0.43770  -0.43715  -0.43332  -0.43001
 Alpha  occ. eigenvalues --   -0.42807  -0.42758  -0.42664  -0.42576  -0.42508
 Alpha  occ. eigenvalues --   -0.42137  -0.41917  -0.41902  -0.41427  -0.41277
 Alpha  occ. eigenvalues --   -0.40933  -0.40628  -0.40538  -0.40406  -0.40173
 Alpha  occ. eigenvalues --   -0.39689  -0.39619  -0.39421  -0.39235  -0.39133
 Alpha  occ. eigenvalues --   -0.39015  -0.38608  -0.38236  -0.38189  -0.37698
 Alpha  occ. eigenvalues --   -0.37694  -0.37486  -0.37099  -0.36997  -0.36318
 Alpha  occ. eigenvalues --   -0.36254  -0.36206  -0.36022  -0.35876  -0.35545
 Alpha  occ. eigenvalues --   -0.35134  -0.34873  -0.34152  -0.33801  -0.33182
 Alpha  occ. eigenvalues --   -0.32850  -0.32583  -0.32236  -0.30552  -0.30389
 Alpha  occ. eigenvalues --   -0.29834  -0.29277  -0.28316  -0.26171  -0.22550
 Alpha  occ. eigenvalues --   -0.21506
 Alpha virt. eigenvalues --   -0.06908  -0.03304   0.00920   0.03387   0.04874
 Alpha virt. eigenvalues --    0.05090   0.05587   0.06445   0.07114   0.07951
 Alpha virt. eigenvalues --    0.08643   0.10665   0.10913   0.11675   0.12091

 Mulliken charges:
               1
     1  Mg   0.841960
     2  C    0.017154
     3  C   -0.209627
     4  C   -0.198445
     5  C   -0.196336
     6  N   -0.627362
     7  C    0.352304
     8  C   -0.196578
     9  C   -0.134180
    10  C    0.303695
    11  C   -0.265386
    12  C   -0.155496
    13  C   -0.270510
    14  C    0.581590
    15  O   -0.476101
    16  O   -0.480602
    17  N   -0.715553
    18  C    0.259860
    19  C    0.062687
    20  C   -0.003749
    21  C    0.370348
    22  C   -0.385751
    23  C   -0.125339
    24  C   -0.255926
    25  N   -0.687704
    26  C    0.284637
    27  C    0.025235
    28  C    0.032066
    29  C    0.249742
    30  C   -0.352213
    31  C   -0.252559
    32  C   -0.298233
    33  N   -0.702455
    34  C    0.312730
    35  C   -0.024170
    36  C    0.043828
    37  C    0.311144
    38  C   -0.370616
    39  C    0.367569
    40  O   -0.463319
    41  C   -0.339730
    42  C    0.630494
    43  O   -0.472966
    44  O   -0.502769
    45  C   -0.064732
    46  C    0.018104
    47  C   -0.137627
    48  C    0.104572
    49  C   -0.350687
    50  C   -0.225808
    51  C   -0.187265
    52  C   -0.177534
    53  C   -0.037190
    54  C   -0.315662
    55  C   -0.187768
    56  C   -0.186044
    57  C   -0.155629
    58  C   -0.068317
    59  C   -0.305468
    60  C   -0.182946
    61  C   -0.161901
    62  C   -0.180217
    63  C   -0.059489
    64  C   -0.303956
    65  C   -0.295362
    66  H    0.072628
    67  H    0.093036
    68  H    0.097798
    69  H    0.115634
    70  H    0.108902
    71  H    0.120449
    72  H    0.104923
    73  H    0.106582
    74  H    0.116702
    75  H    0.128087
    76  H    0.127914
    77  H    0.123212
    78  H    0.110389
    79  H    0.128364
    80  H    0.124570
    81  H    0.085656
    82  H    0.109365
    83  H    0.094770
    84  H    0.117381
    85  H    0.109546
    86  H    0.131263
    87  H    0.104240
    88  H    0.092631
    89  H    0.116658
    90  H    0.114181
    91  H    0.117527
    92  H    0.121849
    93  H    0.144893
    94  H    0.133768
    95  H    0.178631
    96  H    0.116232
    97  H    0.148406
    98  H    0.112719
    99  H    0.145461
   100  H    0.144143
   101  H    0.100765
   102  H    0.097399
   103  H    0.120409
   104  H    0.118362
   105  H    0.079259
   106  H    0.097424
   107  H    0.102396
   108  H    0.086075
   109  H    0.095954
   110  H    0.098311
   111  H    0.086523
   112  H    0.120894
   113  H    0.089044
   114  H    0.095567
   115  H    0.103244
   116  H    0.067958
   117  H    0.083591
   118  H    0.075072
   119  H    0.082459
   120  H    0.099991
   121  H    0.074672
   122  H    0.107528
   123  H    0.116408
   124  H    0.078330
   125  H    0.097271
   126  H    0.072639
   127  H    0.101610
   128  H    0.105041
   129  H    0.061034
   130  H    0.098236
   131  H    0.088174
   132  H    0.123974
   133  H    0.107669
   134  H    0.065820
   135  H    0.087938
   136  H    0.106875
   137  H    0.065126
 Sum of Mulliken charges =   0.00000

 Dipole moment (field-independent basis, Debye):
    X=              1.7974    Y=              3.5299    Z=              0.7093  Tot=              4.0242
 Quadrupole moment (field-independent basis, Debye-Ang):
   XX=           -325.2768   YY=           -396.9136   ZZ=           -398.3767
   XY=            -14.7713   XZ=              7.5886   YZ=             -1.9561

 Normal termination of Gaussian 09 at Sun Jun 30 15:41:23 2019.
