 Gaussian 09, Revision D.01,
 Gaussian 09:  ES64L-G09RevD.01 24-Apr-2013

 -------------------------------------
 # td=(NStates=1) CAM-B3LYP/6-31G(d,p)
 -------------------------------------

 --
 TD
 --
 Symbolic Z-matrix:
 Charge =  0 Multiplicity = 1

                         Standard orientation:
 ---------------------------------------------------------------------
 Center     Atomic      Atomic             Coordinates (Angstroms)
 Number     Number       Type             X           Y           Z
 ---------------------------------------------------------------------
      1         12           0       -7.097023    0.684996   -0.010323
      2          6           0       -4.852644   -2.047659    0.454741
      3          6           0       -4.915672    2.698380    1.133742
      4          6           0       -9.508801    3.132562   -0.408813
      5          6           0       -9.532923   -1.687279   -0.847361
      6          7           0       -5.051555    0.364165    0.636304
      7          6           0       -4.342224   -0.842800    0.778525
      8          6           0       -2.980641   -0.476992    1.222411
      9          6           0       -3.094408    1.110884    1.683322
     10          6           0       -4.470436    1.367304    1.167503
     11          6           0       -2.925995    1.196134    3.219003
     12          6           0       -1.909767   -0.557671    0.119638
     13          6           0       -0.423993   -0.498031    0.545329
     14          6           0        0.537611   -0.535698   -0.582653
     15          8           0        0.232755   -1.077079   -1.649140
     16          8           0        1.827120   -0.275444   -0.109970
     17          7           0       -7.191042    2.631724    0.255922
     18          6           0       -6.188196    3.294686    0.827900
     19          6           0       -6.531839    4.709468    0.907292
     20          6           0       -7.750439    4.754365    0.442215
     21          6           0       -8.205823    3.481968    0.045840
     22          6           0       -5.737180    5.951276    1.467112
     23          6           0       -8.605105    5.967791    0.307817
     24          6           0       -8.250812    7.239302    0.110161
     25          7           0       -9.262087    0.767045   -0.434122
     26          6           0       -9.989182    1.793155   -0.649948
     27          6           0      -11.284116    1.500753   -1.132192
     28          6           0      -11.297609    0.193866   -1.234958
     29          6           0       -9.979206   -0.329487   -0.869594
     30          6           0      -12.474922    2.451178   -1.332631
     31          6           0      -12.402889   -0.618916   -1.741027
     32          6           0      -12.322097   -1.255054   -3.098303
     33          7           0       -7.179187   -1.403207   -0.152691
     34          6           0       -8.263749   -2.210754   -0.563528
     35          6           0       -7.792930   -3.589025   -0.549508
     36          6           0       -6.571745   -3.608095   -0.144937
     37          6           0       -6.157156   -2.244816   -0.039228
     38          6           0       -8.717866   -4.774644   -0.737948
     39          6           0       -5.322659   -4.493440    0.049367
     40          8           0       -5.276687   -5.694951    0.105652
     41          6           0       -4.188419   -3.374959    0.543540
     42          6           0       -3.516703   -3.701256    1.844590
     43          8           0       -3.809475   -3.194719    2.906861
     44          8           0       -2.617536   -4.686321    1.699397
     45          6           0       -2.133758   -5.168239    2.979622
     46          6           0        2.875513   -0.598605   -1.159489
     47          6           0        4.186544   -0.299998   -0.511325
     48          6           0        5.228814    0.439151   -0.985400
     49          6           0        5.122931    1.180373   -2.266000
     50          6           0        6.503296    0.571212   -0.219911
     51          6           0        7.646804   -0.151520   -1.037521
     52          6           0        8.961247   -0.087411   -0.256347
     53          6           0       10.255224   -0.641358   -0.949629
     54          6           0       10.202429   -2.117816   -1.337301
     55          6           0       11.368084   -0.178330   -0.119739
     56          6           0       12.814586   -0.236224   -0.696089
     57          6           0       13.979256   -0.127142    0.236763
     58          6           0       15.366227   -0.156658   -0.459940
     59          6           0       15.841541   -1.650515   -0.770820
     60          6           0       16.447681    0.652818    0.346608
     61          6           0       17.917986    0.560338   -0.178723
     62          6           0       18.969099    1.203066    0.706796
     63          6           0       20.317871    1.237600    0.296934
     64          6           0       20.353291    1.991056   -1.061932
     65          6           0       21.178693    1.810429    1.371676
     66          1           0       -4.222577    3.453888    1.747727
     67          1           0      -10.283211    3.892276   -0.119005
     68          1           0      -10.382013   -2.385022   -1.205549
     69          1           0       -2.566340   -1.118003    2.071742
     70          1           0       -2.462509    1.892628    1.289879
     71          1           0       -1.996392    0.602280    3.614620
     72          1           0       -2.735544    2.470275    3.356865
     73          1           0       -3.820860    0.846366    3.698297
     74          1           0       -1.885203   -1.523733   -0.420647
     75          1           0       -2.199914    0.189670   -0.545200
     76          1           0       -0.384774    0.628849    0.878512
     77          1           0       -0.185150   -1.232590    1.285208
     78          1           0       -4.897646    6.249798    0.887172
     79          1           0       -6.366941    6.777536    1.781378
     80          1           0       -5.111424    5.424285    2.287848
     81          1           0       -9.636858    5.722379    0.393068
     82          1           0       -8.918558    8.157634    0.126964
     83          1           0       -7.288067    7.677178   -0.003093
     84          1           0      -12.621103    2.892663   -2.486800
     85          1           0      -13.516459    1.875087   -1.020189
     86          1           0      -12.410272    3.328280   -0.696221
     87          1           0      -12.377516   -1.642684   -1.244915
     88          1           0      -13.269328   -0.313110   -1.321676
     89          1           0      -13.302270   -1.882584   -3.100851
     90          1           0      -11.976508   -0.577832   -3.849321
     91          1           0      -11.477942   -1.961004   -3.156559
     92          1           0       -9.081487   -4.953907   -1.595711
     93          1           0       -8.167197   -5.737847   -0.744897
     94          1           0       -9.604300   -4.940141   -0.013757
     95          1           0       -3.356653   -3.583111   -0.117452
     96          1           0       -1.727250   -4.435246    3.725854
     97          1           0       -2.925182   -5.777551    3.514644
     98          1           0       -1.327489   -6.008985    2.793735
     99          1           0        2.851342   -1.609626   -1.332956
    100          1           0        2.630556    0.021793   -2.146752
    101          1           0        4.475164   -0.843739    0.530609
    102          1           0        4.222631    1.090842   -2.946901
    103          1           0        5.367137    2.287869   -2.297750
    104          1           0        6.012387    0.827544   -2.849649
    105          1           0        6.772982    1.597718   -0.133030
    106          1           0        6.355641    0.086794    0.825323
    107          1           0        7.436900   -1.395294   -1.102176
    108          1           0        7.849369    0.398370   -2.014241
    109          1           0        9.120104    1.039454    0.098377
    110          1           0        8.965342   -0.713879    0.748703
    111          1           0       10.299525   -0.013580   -1.960694
    112          1           0        9.390108   -2.362397   -2.152008
    113          1           0       11.138617   -2.359294   -1.744642
    114          1           0       10.202792   -2.816487   -0.478423
    115          1           0       11.153386    0.863374    0.146782
    116          1           0       11.425096   -0.847890    0.867316
    117          1           0       12.942342   -1.239104   -1.143446
    118          1           0       12.809200    0.349631   -1.547118
    119          1           0       13.947542    0.996048    0.832097
    120          1           0       13.871002   -0.740735    1.076440
    121          1           0       15.226246    0.435397   -1.302696
    122          1           0       16.267602   -2.033783    0.039507
    123          1           0       14.929885   -2.207293   -1.304632
    124          1           0       16.894005   -1.741462   -1.275060
    125          1           0       16.270597    1.777565    0.688897
    126          1           0       16.549862    0.195510    1.257767
    127          1           0       18.118006   -0.501867   -0.371131
    128          1           0       17.816524    1.142172   -1.133483
    129          1           0       18.748978    2.370250    0.838988
    130          1           0       18.896440    0.846365    1.663683
    131          1           0       20.564504    0.194077    0.041015
    132          1           0       20.165610    2.963965   -0.785625
    133          1           0       21.410724    1.925900   -1.460946
    134          1           0       19.758391    1.483883   -1.963326
    135          1           0       21.062132    1.329821    2.442930
    136          1           0       22.273994    1.645941    1.248858
    137          1           0       20.797257    2.866150    1.457386
 ---------------------------------------------------------------------

 SCF Done:  E(RCAM-B3LYP) =  -2932.66850850     A.U. after   18 cycles

 Excitation energies and oscillator strengths:

 Excited State   1:      Singlet-A      2.1716 eV  570.94 nm  f=0.1946  <S**2>=0.000
     240 -> 243        0.27239
     241 -> 242        0.64556
 This state for optimization and/or second-order correction.
 Total Energy, E(TD-HF/TD-KS) =  -2932.58870484
 Copying the excited state density for this state as the 1-particle RhoCI density.

 The electronic state is 1-A.
 Alpha  occ. eigenvalues --  -46.85984 -19.27559 -19.26208 -19.22421 -19.21326
 Alpha  occ. eigenvalues --  -19.20756 -14.41415 -14.39980 -14.39265 -14.38842
 Alpha  occ. eigenvalues --  -10.39338 -10.39249 -10.37233 -10.32797 -10.32531
 Alpha  occ. eigenvalues --  -10.30657 -10.30619 -10.30311 -10.29067 -10.28819
 Alpha  occ. eigenvalues --  -10.28740 -10.28643 -10.28535 -10.28429 -10.28321
 Alpha  occ. eigenvalues --  -10.28161 -10.28073 -10.28056 -10.27944 -10.27720
 Alpha  occ. eigenvalues --  -10.27701 -10.27635 -10.27224 -10.27120 -10.27116
 Alpha  occ. eigenvalues --  -10.27084 -10.27023 -10.26963 -10.26873 -10.26819
 Alpha  occ. eigenvalues --  -10.26730 -10.26670 -10.26666 -10.26385 -10.26309
 Alpha  occ. eigenvalues --  -10.26261 -10.26040 -10.25962 -10.25847 -10.25801
 Alpha  occ. eigenvalues --  -10.25705 -10.25651 -10.25543 -10.25501 -10.24945
 Alpha  occ. eigenvalues --  -10.24850 -10.24834 -10.24786 -10.24767 -10.24745
 Alpha  occ. eigenvalues --  -10.24633 -10.24547 -10.24519 -10.24437 -10.23873
 Alpha  occ. eigenvalues --   -3.14774  -1.89499  -1.89036  -1.88906  -1.18947
 Alpha  occ. eigenvalues --   -1.15521  -1.12910  -1.09358  -1.08017  -1.06275
 Alpha  occ. eigenvalues --   -1.05344  -1.04997  -1.03859  -0.92611  -0.91704
 Alpha  occ. eigenvalues --   -0.91436  -0.90428  -0.89653  -0.89569  -0.89351
 Alpha  occ. eigenvalues --   -0.88457  -0.88284  -0.87361  -0.86668  -0.85673
 Alpha  occ. eigenvalues --   -0.84910  -0.84253  -0.83600  -0.83138  -0.82585
 Alpha  occ. eigenvalues --   -0.81381  -0.80782  -0.80638  -0.79967  -0.78592
 Alpha  occ. eigenvalues --   -0.77760  -0.76597  -0.76527  -0.76315  -0.75733
 Alpha  occ. eigenvalues --   -0.75688  -0.74944  -0.74812  -0.73149  -0.72366
 Alpha  occ. eigenvalues --   -0.71618  -0.70621  -0.70375  -0.69423  -0.68538
 Alpha  occ. eigenvalues --   -0.67277  -0.66559  -0.65689  -0.64898  -0.64206
 Alpha  occ. eigenvalues --   -0.64119  -0.63651  -0.62380  -0.62132  -0.61992
 Alpha  occ. eigenvalues --   -0.61593  -0.61102  -0.60195  -0.59786  -0.59189
 Alpha  occ. eigenvalues --   -0.59002  -0.58699  -0.57855  -0.57045  -0.56789
 Alpha  occ. eigenvalues --   -0.56092  -0.55699  -0.55482  -0.55283  -0.55071
 Alpha  occ. eigenvalues --   -0.54707  -0.54300  -0.54223  -0.53863  -0.53313
 Alpha  occ. eigenvalues --   -0.52834  -0.52689  -0.52201  -0.51775  -0.51497
 Alpha  occ. eigenvalues --   -0.51348  -0.51139  -0.50857  -0.50641  -0.50530
 Alpha  occ. eigenvalues --   -0.50284  -0.50025  -0.49863  -0.49825  -0.49576
 Alpha  occ. eigenvalues --   -0.48959  -0.48903  -0.48706  -0.48609  -0.48375
 Alpha  occ. eigenvalues --   -0.48309  -0.47861  -0.47802  -0.47356  -0.47143
 Alpha  occ. eigenvalues --   -0.46958  -0.46805  -0.46088  -0.45976  -0.45950
 Alpha  occ. eigenvalues --   -0.45731  -0.45682  -0.45519  -0.45132  -0.44963
 Alpha  occ. eigenvalues --   -0.44787  -0.44721  -0.44493  -0.44367  -0.44223
 Alpha  occ. eigenvalues --   -0.43962  -0.43859  -0.43808  -0.43655  -0.43233
 Alpha  occ. eigenvalues --   -0.42958  -0.42786  -0.42656  -0.42403  -0.42388
 Alpha  occ. eigenvalues --   -0.42065  -0.41995  -0.41792  -0.41673  -0.41244
 Alpha  occ. eigenvalues --   -0.41045  -0.41003  -0.40699  -0.40150  -0.40065
 Alpha  occ. eigenvalues --   -0.39985  -0.39934  -0.39807  -0.39514  -0.39101
 Alpha  occ. eigenvalues --   -0.39047  -0.38876  -0.38457  -0.38132  -0.37765
 Alpha  occ. eigenvalues --   -0.37598  -0.37111  -0.37018  -0.36844  -0.36471
 Alpha  occ. eigenvalues --   -0.36447  -0.36273  -0.35863  -0.35682  -0.35523
 Alpha  occ. eigenvalues --   -0.35386  -0.34744  -0.34495  -0.34171  -0.33686
 Alpha  occ. eigenvalues --   -0.33544  -0.33311  -0.32071  -0.31541  -0.30692
 Alpha  occ. eigenvalues --   -0.30112  -0.29215  -0.28854  -0.28558  -0.23071
 Alpha  occ. eigenvalues --   -0.21137
 Alpha virt. eigenvalues --   -0.05606  -0.02956   0.01521   0.04501   0.04875
 Alpha virt. eigenvalues --    0.04992   0.05887   0.05990   0.06728   0.07667
 Alpha virt. eigenvalues --    0.08184   0.09856   0.11150   0.11254   0.11420

 Mulliken charges:
               1
     1  Mg   0.845803
     2  C    0.124444
     3  C   -0.221486
     4  C   -0.181860
     5  C   -0.172687
     6  N   -0.645704
     7  C    0.297748
     8  C   -0.199917
     9  C   -0.166490
    10  C    0.399981
    11  C   -0.274559
    12  C   -0.158500
    13  C   -0.262416
    14  C    0.614044
    15  O   -0.468246
    16  O   -0.501104
    17  N   -0.739870
    18  C    0.300130
    19  C    0.019760
    20  C    0.001433
    21  C    0.313075
    22  C   -0.359640
    23  C   -0.054338
    24  C   -0.262807
    25  N   -0.651652
    26  C    0.286721
    27  C    0.055032
    28  C    0.028401
    29  C    0.241559
    30  C   -0.355223
    31  C   -0.243464
    32  C   -0.298183
    33  N   -0.692793
    34  C    0.265835
    35  C   -0.026701
    36  C    0.037516
    37  C    0.241014
    38  C   -0.378811
    39  C    0.401014
    40  O   -0.417428
    41  C   -0.351576
    42  C    0.633542
    43  O   -0.476672
    44  O   -0.447411
    45  C   -0.096986
    46  C    0.020275
    47  C   -0.153061
    48  C    0.162204
    49  C   -0.379556
    50  C   -0.226317
    51  C   -0.172540
    52  C   -0.159833
    53  C   -0.043619
    54  C   -0.315897
    55  C   -0.160666
    56  C   -0.180802
    57  C   -0.163657
    58  C   -0.042276
    59  C   -0.320665
    60  C   -0.200533
    61  C   -0.182437
    62  C   -0.126586
    63  C   -0.064152
    64  C   -0.299943
    65  C   -0.300834
    66  H    0.057735
    67  H    0.091204
    68  H    0.098150
    69  H    0.111128
    70  H    0.121775
    71  H    0.109853
    72  H    0.059652
    73  H    0.134448
    74  H    0.114239
    75  H    0.112542
    76  H    0.112880
    77  H    0.145718
    78  H    0.131986
    79  H    0.132537
    80  H    0.100224
    81  H    0.089489
    82  H    0.098307
    83  H    0.108873
    84  H    0.098320
    85  H    0.095544
    86  H    0.118960
    87  H    0.086495
    88  H    0.107833
    89  H    0.102191
    90  H    0.112250
    91  H    0.103766
    92  H    0.129553
    93  H    0.125055
    94  H    0.115281
    95  H    0.158722
    96  H    0.138785
    97  H    0.132766
    98  H    0.112657
    99  H    0.145371
   100  H    0.121623
   101  H    0.075142
   102  H    0.111894
   103  H    0.111557
   104  H    0.113768
   105  H    0.114726
   106  H    0.102271
   107  H    0.083287
   108  H    0.101185
   109  H    0.068394
   110  H    0.074681
   111  H    0.057613
   112  H    0.099882
   113  H    0.114766
   114  H    0.100863
   115  H    0.098382
   116  H    0.064329
   117  H    0.080967
   118  H    0.100119
   119  H    0.044166
   120  H    0.101428
   121  H    0.099314
   122  H    0.123238
   123  H    0.099124
   124  H    0.087474
   125  H    0.077329
   126  H    0.096892
   127  H    0.079985
   128  H    0.093822
   129  H    0.046210
   130  H    0.089929
   131  H    0.076329
   132  H    0.105948
   133  H    0.086361
   134  H    0.102620
   135  H    0.089104
   136  H    0.104729
   137  H    0.096624
 Sum of Mulliken charges =   0.00000

 Dipole moment (field-independent basis, Debye):
    X=              3.4007    Y=              3.0252    Z=              0.3498  Tot=              4.5650
 Quadrupole moment (field-independent basis, Debye-Ang):
   XX=           -351.0046   YY=           -390.6312   ZZ=           -400.2315
   XY=            -24.2838   XZ=              6.5727   YZ=             -2.3002

 Normal termination of Gaussian 09 at Sun Jun 30 11:54:37 2019.
