 Gaussian 09, Revision D.01,
 Gaussian 09:  ES64L-G09RevD.01 24-Apr-2013

 -------------------------------------
 # td=(NStates=1) CAM-B3LYP/6-31G(d,p)
 -------------------------------------

 --
 TD
 --
 Symbolic Z-matrix:
 Charge =  0 Multiplicity = 1

                         Standard orientation:
 ---------------------------------------------------------------------
 Center     Atomic      Atomic             Coordinates (Angstroms)
 Number     Number       Type             X           Y           Z
 ---------------------------------------------------------------------
      1         12           0       -7.126448    0.590446    0.120041
      2          6           0       -4.765226   -1.911353    0.598425
      3          6           0       -4.766710    2.813833    1.266460
      4          6           0       -9.363921    3.090981   -0.324310
      5          6           0       -9.510098   -1.616818   -0.852664
      6          7           0       -5.058344    0.504027    0.757872
      7          6           0       -4.255725   -0.683001    0.790292
      8          6           0       -2.827988   -0.406944    1.157248
      9          6           0       -3.031965    1.073825    1.681705
     10          6           0       -4.373158    1.471892    1.192903
     11          6           0       -2.879505    1.169574    3.188108
     12          6           0       -1.863106   -0.673750    0.014732
     13          6           0       -0.403258   -0.497089    0.434818
     14          6           0        0.533216   -0.608643   -0.742239
     15          8           0        0.165225   -0.862475   -1.858714
     16          8           0        1.809271   -0.383896   -0.379004
     17          7           0       -7.096226    2.587966    0.370401
     18          6           0       -6.107688    3.339158    0.877688
     19          6           0       -6.486383    4.731360    1.001314
     20          6           0       -7.755249    4.812083    0.410745
     21          6           0       -8.111234    3.466818    0.093688
     22          6           0       -5.500884    5.840126    1.407711
     23          6           0       -8.520065    6.038085    0.303895
     24          6           0       -8.175075    7.319609    0.024245
     25          7           0       -9.089098    0.788566   -0.642606
     26          6           0       -9.855899    1.850444   -0.643690
     27          6           0      -11.218220    1.541864   -0.941577
     28          6           0      -11.157758    0.226833   -1.205388
     29          6           0       -9.886956   -0.315060   -0.922071
     30          6           0      -12.449557    2.530364   -1.219793
     31          6           0      -12.403715   -0.738534   -1.589829
     32          6           0      -12.317906   -1.184921   -3.024170
     33          7           0       -7.216170   -1.416160   -0.093830
     34          6           0       -8.236986   -2.193526   -0.466822
     35          6           0       -7.842987   -3.564975   -0.491287
     36          6           0       -6.566490   -3.540247   -0.049100
     37          6           0       -6.190706   -2.182415    0.294480
     38          6           0       -8.696915   -4.667911   -0.956595
     39          6           0       -5.388449   -4.297442    0.167970
     40          8           0       -5.313781   -5.483735    0.106813
     41          6           0       -4.199644   -3.338052    0.599985
     42          6           0       -3.515800   -3.759408    1.956653
     43          8           0       -3.803538   -3.212823    3.035387
     44          8           0       -2.663599   -4.804616    1.792542
     45          6           0       -2.184076   -5.304265    3.005416
     46          6           0        2.794882   -0.667441   -1.399000
     47          6           0        4.152772   -0.536376   -0.856886
     48          6           0        5.170282    0.196915   -1.222855
     49          6           0        5.182310    1.022482   -2.554924
     50          6           0        6.415238    0.242564   -0.430795
     51          6           0        7.648729   -0.120003   -1.115125
     52          6           0        8.882154   -0.133243   -0.297979
     53          6           0       10.174646   -0.629227   -0.934461
     54          6           0       10.091109   -2.137926   -1.156518
     55          6           0       11.427039   -0.347895   -0.100172
     56          6           0       12.760716   -0.449779   -0.807215
     57          6           0       13.902929   -0.247151    0.265616
     58          6           0       15.416576   -0.328838   -0.461715
     59          6           0       15.661439   -1.660251   -0.847272
     60          6           0       16.395525    0.378762    0.513094
     61          6           0       17.748309    0.512768   -0.077543
     62          6           0       18.665059    1.421642    0.814119
     63          6           0       20.197827    1.509703    0.453036
     64          6           0       20.365901    2.159526   -0.965986
     65          6           0       20.973258    2.211878    1.637612
     66          1           0       -4.065827    3.553716    1.694570
     67          1           0      -10.159577    3.868974   -0.545505
     68          1           0      -10.145018   -2.640764   -1.142564
     69          1           0       -2.786057   -1.141329    1.942591
     70          1           0       -2.162773    1.797665    1.417833
     71          1           0       -1.830816    1.028070    3.534113
     72          1           0       -3.241296    2.173739    3.524941
     73          1           0       -3.619691    0.316363    3.788476
     74          1           0       -2.245849   -1.605871   -0.420134
     75          1           0       -2.209524    0.079371   -0.616824
     76          1           0       -0.149324    0.324594    1.075408
     77          1           0       -0.148932   -1.560677    0.878056
     78          1           0       -4.895032    6.215932    0.507060
     79          1           0       -5.971967    6.808112    1.817650
     80          1           0       -4.743328    5.632217    2.053254
     81          1           0       -9.772597    5.942071    0.357189
     82          1           0       -8.801174    8.145962   -0.109001
     83          1           0       -7.030700    7.556601   -0.283755
     84          1           0      -12.108639    2.961135   -2.268109
     85          1           0      -13.142954    1.782262   -1.299569
     86          1           0      -12.162887    3.288141   -0.322996
     87          1           0      -12.406535   -1.674027   -0.961445
     88          1           0      -13.330813   -0.094908   -1.440595
     89          1           0      -13.287370   -1.610985   -3.441097
     90          1           0      -12.022198   -0.243795   -3.556848
     91          1           0      -11.511295   -1.988928   -3.123497
     92          1           0       -9.235828   -4.281598   -1.914424
     93          1           0       -7.813027   -5.470450   -1.239101
     94          1           0       -9.411260   -4.964826   -0.194042
     95          1           0       -3.434066   -3.586370   -0.262390
     96          1           0       -1.762837   -4.439003    3.638364
     97          1           0       -3.088120   -5.900911    3.476575
     98          1           0       -1.302180   -5.857836    2.842845
     99          1           0        2.443002   -1.728285   -1.783395
    100          1           0        2.417431   -0.015542   -2.335402
    101          1           0        4.364498   -1.058596    0.187195
    102          1           0        4.195432    1.230384   -2.858685
    103          1           0        5.759660    2.127631   -2.323681
    104          1           0        5.551579    0.191352   -3.439128
    105          1           0        6.646675    1.281926   -0.061329
    106          1           0        6.252678   -0.494630    0.412753
    107          1           0        7.429409   -1.119254   -1.567568
    108          1           0        7.884713    0.428788   -2.229344
    109          1           0        9.019916    0.825455    0.153983
    110          1           0        8.552017   -0.902259    0.635212
    111          1           0       10.193744   -0.226285   -2.016946
    112          1           0        9.482599   -2.254649   -2.173973
    113          1           0       11.261107   -2.268915   -1.544016
    114          1           0        9.730355   -2.767108   -0.363217
    115          1           0       11.447396    0.657013    0.303766
    116          1           0       11.463541   -1.147880    0.648775
    117          1           0       12.768218   -1.536467   -1.270658
    118          1           0       12.935191    0.306018   -1.721831
    119          1           0       13.687362    0.693671    0.595065
    120          1           0       13.982091   -0.983324    0.980567
    121          1           0       15.205819    0.185610   -1.312006
    122          1           0       15.957995   -2.408262   -0.139129
    123          1           0       14.715927   -2.041949   -1.530116
    124          1           0       16.580512   -1.556135   -1.457136
    125          1           0       16.018589    1.463734    0.706188
    126          1           0       16.344498   -0.110817    1.675864
    127          1           0       18.494021   -0.286419   -0.162812
    128          1           0       17.562195    0.890177   -1.061096
    129          1           0       18.346403    2.501045    0.985565
    130          1           0       18.473688    1.004699    1.866501
    131          1           0       20.738398    0.582769    0.474260
    132          1           0       19.842475    3.229151   -0.776860
    133          1           0       21.425613    2.315488   -1.265355
    134          1           0       19.768815    1.618380   -1.809128
    135          1           0       20.754150    1.774882    2.591901
    136          1           0       22.142680    1.961953    1.333824
    137          1           0       20.843060    3.484576    1.520945
 ---------------------------------------------------------------------

 SCF Done:  E(RCAM-B3LYP) =  -2932.63130499     A.U. after   17 cycles

 Excitation energies and oscillator strengths:

 Excited State   1:      Singlet-A      2.1254 eV  583.35 nm  f=0.2465  <S**2>=0.000
     240 -> 243        0.21891
     241 -> 242        0.65689
 This state for optimization and/or second-order correction.
 Total Energy, E(TD-HF/TD-KS) =  -2932.55319861
 Copying the excited state density for this state as the 1-particle RhoCI density.

 The electronic state is 1-A.
 Alpha  occ. eigenvalues --  -46.84942 -19.27316 -19.26073 -19.21399 -19.20712
 Alpha  occ. eigenvalues --  -19.19384 -14.41418 -14.39815 -14.39241 -14.39129
 Alpha  occ. eigenvalues --  -10.40247 -10.38786 -10.33978 -10.33509 -10.31801
 Alpha  occ. eigenvalues --  -10.30953 -10.30356 -10.30013 -10.29990 -10.29788
 Alpha  occ. eigenvalues --  -10.29524 -10.29478 -10.28841 -10.28626 -10.28558
 Alpha  occ. eigenvalues --  -10.28505 -10.28432 -10.28369 -10.28189 -10.28065
 Alpha  occ. eigenvalues --  -10.27990 -10.27985 -10.27637 -10.27633 -10.27617
 Alpha  occ. eigenvalues --  -10.27460 -10.27418 -10.27352 -10.27328 -10.27293
 Alpha  occ. eigenvalues --  -10.26931 -10.26866 -10.26760 -10.26758 -10.26679
 Alpha  occ. eigenvalues --  -10.26666 -10.26593 -10.26526 -10.26428 -10.26402
 Alpha  occ. eigenvalues --  -10.26363 -10.26099 -10.26089 -10.26088 -10.26075
 Alpha  occ. eigenvalues --  -10.25968 -10.25938 -10.25923 -10.25905 -10.24983
 Alpha  occ. eigenvalues --  -10.24951 -10.24809 -10.24593 -10.23860 -10.23800
 Alpha  occ. eigenvalues --   -3.13910  -1.88628  -1.88129  -1.88099  -1.18669
 Alpha  occ. eigenvalues --   -1.18459  -1.11923  -1.09659  -1.08850  -1.05873
 Alpha  occ. eigenvalues --   -1.05197  -1.04742  -1.04059  -0.92412  -0.92182
 Alpha  occ. eigenvalues --   -0.90880  -0.90369  -0.89848  -0.89321  -0.89067
 Alpha  occ. eigenvalues --   -0.87846  -0.87763  -0.87623  -0.86899  -0.86590
 Alpha  occ. eigenvalues --   -0.85544  -0.84451  -0.83342  -0.83188  -0.82887
 Alpha  occ. eigenvalues --   -0.81924  -0.81417  -0.80758  -0.80245  -0.78320
 Alpha  occ. eigenvalues --   -0.77940  -0.77243  -0.75963  -0.75748  -0.75365
 Alpha  occ. eigenvalues --   -0.74663  -0.74265  -0.73677  -0.73368  -0.72769
 Alpha  occ. eigenvalues --   -0.70838  -0.70462  -0.68583  -0.68170  -0.68057
 Alpha  occ. eigenvalues --   -0.67673  -0.66040  -0.65002  -0.64749  -0.64070
 Alpha  occ. eigenvalues --   -0.63960  -0.63264  -0.62515  -0.62195  -0.62113
 Alpha  occ. eigenvalues --   -0.61792  -0.61277  -0.59977  -0.59454  -0.58949
 Alpha  occ. eigenvalues --   -0.58744  -0.57972  -0.57192  -0.56794  -0.56770
 Alpha  occ. eigenvalues --   -0.56366  -0.56031  -0.55692  -0.55190  -0.55064
 Alpha  occ. eigenvalues --   -0.54722  -0.54313  -0.54070  -0.53739  -0.53283
 Alpha  occ. eigenvalues --   -0.52923  -0.52560  -0.52268  -0.51956  -0.51805
 Alpha  occ. eigenvalues --   -0.51432  -0.51176  -0.51045  -0.50860  -0.50751
 Alpha  occ. eigenvalues --   -0.50624  -0.50134  -0.49954  -0.49548  -0.49318
 Alpha  occ. eigenvalues --   -0.49236  -0.49162  -0.48943  -0.48682  -0.48542
 Alpha  occ. eigenvalues --   -0.48075  -0.47767  -0.47662  -0.47635  -0.47294
 Alpha  occ. eigenvalues --   -0.46764  -0.46459  -0.46309  -0.46161  -0.46129
 Alpha  occ. eigenvalues --   -0.45786  -0.45649  -0.45440  -0.45308  -0.45038
 Alpha  occ. eigenvalues --   -0.44749  -0.44599  -0.44444  -0.44183  -0.44064
 Alpha  occ. eigenvalues --   -0.43755  -0.43536  -0.43159  -0.42959  -0.42829
 Alpha  occ. eigenvalues --   -0.42769  -0.42375  -0.42212  -0.42154  -0.42025
 Alpha  occ. eigenvalues --   -0.41879  -0.41664  -0.41623  -0.41610  -0.41095
 Alpha  occ. eigenvalues --   -0.40909  -0.40831  -0.40638  -0.40290  -0.39911
 Alpha  occ. eigenvalues --   -0.39778  -0.39656  -0.39587  -0.39050  -0.39020
 Alpha  occ. eigenvalues --   -0.38737  -0.38321  -0.38018  -0.37869  -0.37538
 Alpha  occ. eigenvalues --   -0.37489  -0.37073  -0.36795  -0.36720  -0.36673
 Alpha  occ. eigenvalues --   -0.36291  -0.36185  -0.35932  -0.35716  -0.35620
 Alpha  occ. eigenvalues --   -0.35574  -0.35040  -0.34559  -0.33851  -0.33729
 Alpha  occ. eigenvalues --   -0.33452  -0.32135  -0.32015  -0.31274  -0.30581
 Alpha  occ. eigenvalues --   -0.29936  -0.29375  -0.28836  -0.28149  -0.23055
 Alpha  occ. eigenvalues --   -0.21865
 Alpha virt. eigenvalues --   -0.06864  -0.02318   0.02243   0.04001   0.05217
 Alpha virt. eigenvalues --    0.05798   0.05926   0.06480   0.07263   0.07364
 Alpha virt. eigenvalues --    0.08386   0.09645   0.10602   0.10710   0.11283

 Mulliken charges:
               1
     1  Mg   0.823142
     2  C    0.086119
     3  C   -0.228831
     4  C   -0.208120
     5  C   -0.158610
     6  N   -0.644742
     7  C    0.217280
     8  C   -0.147152
     9  C   -0.179001
    10  C    0.442545
    11  C   -0.292019
    12  C   -0.146372
    13  C   -0.262254
    14  C    0.609516
    15  O   -0.472102
    16  O   -0.478665
    17  N   -0.718527
    18  C    0.312202
    19  C    0.019645
    20  C    0.027736
    21  C    0.338831
    22  C   -0.375237
    23  C   -0.086054
    24  C   -0.238688
    25  N   -0.697486
    26  C    0.343421
    27  C   -0.060553
    28  C    0.005573
    29  C    0.310646
    30  C   -0.312095
    31  C   -0.226753
    32  C   -0.292883
    33  N   -0.697158
    34  C    0.251608
    35  C    0.032023
    36  C    0.017482
    37  C    0.232314
    38  C   -0.372347
    39  C    0.336653
    40  O   -0.449361
    41  C   -0.322638
    42  C    0.626840
    43  O   -0.479575
    44  O   -0.430975
    45  C   -0.083146
    46  C    0.001193
    47  C   -0.137781
    48  C    0.150460
    49  C   -0.334190
    50  C   -0.219955
    51  C   -0.165348
    52  C   -0.137351
    53  C   -0.057685
    54  C   -0.293157
    55  C   -0.166462
    56  C   -0.195858
    57  C   -0.179132
    58  C   -0.066116
    59  C   -0.294092
    60  C   -0.159637
    61  C   -0.167216
    62  C   -0.178371
    63  C   -0.067559
    64  C   -0.293377
    65  C   -0.285779
    66  H    0.076160
    67  H    0.080447
    68  H    0.090436
    69  H    0.129976
    70  H    0.095999
    71  H    0.110812
    72  H    0.106375
    73  H    0.091402
    74  H    0.120672
    75  H    0.122617
    76  H    0.138703
    77  H    0.131451
    78  H    0.119047
    79  H    0.118027
    80  H    0.126461
    81  H    0.071915
    82  H    0.119234
    83  H    0.088169
    84  H    0.125871
    85  H    0.128584
    86  H    0.122707
    87  H    0.106143
    88  H    0.090211
    89  H    0.100153
    90  H    0.106470
    91  H    0.100538
    92  H    0.109341
    93  H    0.133341
    94  H    0.139615
    95  H    0.148303
    96  H    0.120321
    97  H    0.126990
    98  H    0.126087
    99  H    0.117312
   100  H    0.119930
   101  H    0.081837
   102  H    0.124283
   103  H    0.093746
   104  H    0.104387
   105  H    0.098513
   106  H    0.095433
   107  H    0.093975
   108  H    0.060208
   109  H    0.090131
   110  H    0.048096
   111  H    0.078970
   112  H    0.086302
   113  H    0.071983
   114  H    0.113764
   115  H    0.090197
   116  H    0.103741
   117  H    0.076814
   118  H    0.074857
   119  H    0.095614
   120  H    0.102063
   121  H    0.096972
   122  H    0.105512
   123  H    0.084348
   124  H    0.095118
   125  H    0.090633
   126  H    0.057506
   127  H    0.103330
   128  H    0.099221
   129  H    0.078928
   130  H    0.078188
   131  H    0.092656
   132  H    0.081349
   133  H    0.104471
   134  H    0.101001
   135  H    0.121194
   136  H    0.071980
   137  H    0.068045
 Sum of Mulliken charges =   0.00000

 Dipole moment (field-independent basis, Debye):
    X=              2.2109    Y=              4.4880    Z=              0.4374  Tot=              5.0221
 Quadrupole moment (field-independent basis, Debye-Ang):
   XX=           -348.9428   YY=           -395.6309   ZZ=           -404.1646
   XY=            -27.1677   XZ=             10.5116   YZ=             -3.8783

 Normal termination of Gaussian 09 at Thu Jun 27 02:19:17 2019.
