 Gaussian 09, Revision D.01,
 Gaussian 09:  ES64L-G09RevD.01 24-Apr-2013

 -------------------------------------
 # td=(NStates=1) CAM-B3LYP/6-31G(d,p)
 -------------------------------------

 --
 TD
 --
 Symbolic Z-matrix:
 Charge =  0 Multiplicity = 1

                         Standard orientation:
 ---------------------------------------------------------------------
 Center     Atomic      Atomic             Coordinates (Angstroms)
 Number     Number       Type             X           Y           Z
 ---------------------------------------------------------------------
      1         12           0       -7.134583    0.602061   -0.071658
      2          6           0       -4.855447   -1.957618    0.416325
      3          6           0       -4.826644    2.802662    1.225290
      4          6           0       -9.353873    3.107066   -0.316078
      5          6           0       -9.585062   -1.791841   -0.947536
      6          7           0       -5.013399    0.413601    0.577750
      7          6           0       -4.292434   -0.676883    0.671028
      8          6           0       -2.865430   -0.410979    1.300693
      9          6           0       -3.077280    1.007820    1.817236
     10          6           0       -4.376631    1.489400    1.182298
     11          6           0       -3.126408    1.035054    3.302210
     12          6           0       -1.993693   -0.578545    0.027085
     13          6           0       -0.550521   -0.409167    0.634204
     14          6           0        0.495123   -0.590751   -0.525148
     15          8           0        0.112609   -0.954617   -1.607655
     16          8           0        1.796322   -0.358778   -0.049650
     17          7           0       -7.080077    2.587313    0.358943
     18          6           0       -6.068299    3.334699    0.819006
     19          6           0       -6.488792    4.775980    0.957660
     20          6           0       -7.744915    4.822810    0.412638
     21          6           0       -8.156646    3.481017    0.153152
     22          6           0       -5.628093    5.804332    1.483436
     23          6           0       -8.553048    5.922490    0.445018
     24          6           0       -8.167267    7.252173    0.128921
     25          7           0       -9.199335    0.670617   -0.524331
     26          6           0       -9.887689    1.856646   -0.689943
     27          6           0      -11.235459    1.486947   -1.085161
     28          6           0      -11.148416    0.122963   -1.284727
     29          6           0       -9.904426   -0.347706   -0.874471
     30          6           0      -12.223029    2.580021   -1.427728
     31          6           0      -12.381003   -0.657844   -1.819402
     32          6           0      -12.297196   -1.002881   -3.316002
     33          7           0       -7.128794   -1.388998   -0.253114
     34          6           0       -8.254680   -2.274963   -0.692242
     35          6           0       -7.794287   -3.662721   -0.569091
     36          6           0       -6.453248   -3.555230   -0.107183
     37          6           0       -6.123696   -2.170161    0.052202
     38          6           0       -8.615411   -4.813775   -0.826311
     39          6           0       -5.400368   -4.365706    0.143817
     40          8           0       -5.229680   -5.554255    0.213871
     41          6           0       -4.237720   -3.399176    0.532693
     42          6           0       -3.599090   -3.730203    1.901569
     43          8           0       -3.901384   -3.171937    2.968759
     44          8           0       -2.704738   -4.778608    1.632987
     45          6           0       -2.085294   -5.353223    2.975220
     46          6           0        2.884242   -0.643941   -1.100983
     47          6           0        4.176021   -0.379726   -0.514099
     48          6           0        5.123773    0.417526   -0.911048
     49          6           0        5.037807    1.203545   -2.105679
     50          6           0        6.539710    0.504121   -0.165533
     51          6           0        7.673072   -0.147161   -0.909913
     52          6           0        9.017413   -0.040949   -0.152688
     53          6           0       10.221610   -0.508611   -0.894897
     54          6           0       10.176157   -1.972027   -1.449983
     55          6           0       11.446290   -0.225418   -0.027254
     56          6           0       12.732447   -0.475461   -0.729432
     57          6           0       13.985093   -0.178609    0.141258
     58          6           0       15.236184   -0.292373   -0.502938
     59          6           0       15.712626   -1.639703   -1.010029
     60          6           0       16.423734    0.367853    0.378395
     61          6           0       17.753223    0.557212   -0.109502
     62          6           0       18.768594    1.340201    0.786495
     63          6           0       20.241698    1.327143    0.130486
     64          6           0       20.269291    2.249658   -1.094264
     65          6           0       21.252541    1.776434    1.242548
     66          1           0       -4.265693    3.544249    1.984473
     67          1           0      -10.274266    3.819521   -0.304096
     68          1           0      -10.354280   -2.378491   -1.372525
     69          1           0       -2.641568   -1.430181    2.030192
     70          1           0       -2.214024    1.502509    1.544440
     71          1           0       -2.144426    0.883985    3.899834
     72          1           0       -3.214585    2.031409    3.545479
     73          1           0       -4.020884    0.371233    3.682794
     74          1           0       -1.884865   -1.597988   -0.328309
     75          1           0       -2.120264    0.011680   -0.782837
     76          1           0       -0.436296    0.553964    1.186450
     77          1           0       -0.386579   -1.411664    1.239611
     78          1           0       -5.193388    6.611274    0.715804
     79          1           0       -6.034855    6.688220    2.139076
     80          1           0       -4.700819    5.374181    1.958833
     81          1           0       -9.628284    5.708788    0.693492
     82          1           0       -9.001856    7.942446    0.325014
     83          1           0       -7.240962    7.762492   -0.176190
     84          1           0      -11.993576    2.974435   -2.361301
     85          1           0      -13.128947    2.054083   -1.185551
     86          1           0      -12.172163    3.508465   -0.705017
     87          1           0      -12.456887   -1.658827   -1.219254
     88          1           0      -13.381811   -0.077817   -1.770257
     89          1           0      -13.497522   -1.269614   -3.497733
     90          1           0      -12.088368   -0.069604   -4.031458
     91          1           0      -11.474455   -1.887683   -3.777867
     92          1           0       -8.817875   -4.727463   -1.988313
     93          1           0       -7.975365   -5.734435   -0.392473
     94          1           0       -9.469035   -4.849886   -0.114795
     95          1           0       -3.430486   -3.806507   -0.159776
     96          1           0       -1.374926   -4.776745    3.585190
     97          1           0       -2.818531   -5.422241    3.535531
     98          1           0       -1.605112   -6.324042    2.528601
     99          1           0        2.623994   -1.741501   -1.518086
    100          1           0        2.434659   -0.134060   -2.054382
    101          1           0        4.419323   -0.839486    0.502115
    102          1           0        4.235826    1.348360   -2.646573
    103          1           0        5.317010    2.263081   -1.999007
    104          1           0        5.755650    0.887228   -2.833914
    105          1           0        6.765393    1.506674    0.249143
    106          1           0        6.251908    0.208785    0.780845
    107          1           0        7.517869   -1.187181   -1.010744
    108          1           0        7.802185    0.272017   -1.991004
    109          1           0        9.187607    0.947746    0.332033
    110          1           0        8.765313   -0.648553    0.617052
    111          1           0       10.316927    0.165295   -1.651535
    112          1           0        9.183602   -2.164234   -1.998584
    113          1           0       11.086931   -2.170953   -2.084574
    114          1           0       10.047586   -2.653846   -0.595969
    115          1           0       11.282187    0.787177    0.382296
    116          1           0       11.392471   -0.805705    0.999057
    117          1           0       12.776480   -1.573500   -0.928691
    118          1           0       12.593739   -0.033112   -1.781210
    119          1           0       14.050729    0.779546    0.429931
    120          1           0       14.006450   -0.717484    1.090788
    121          1           0       15.319655    0.193954   -1.358844
    122          1           0       15.658112   -2.351780   -0.117172
    123          1           0       14.891901   -2.043846   -1.630015
    124          1           0       16.550707   -1.881630   -1.505224
    125          1           0       16.111215    1.389274    0.695144
    126          1           0       16.504061   -0.194287    1.462902
    127          1           0       18.345336   -0.485273   -0.197833
    128          1           0       17.784857    1.240220   -1.133465
    129          1           0       18.697258    2.467487    0.970728
    130          1           0       18.821882    0.752081    1.740475
    131          1           0       20.426226    0.230721   -0.059491
    132          1           0       19.941271    3.334047   -0.850028
    133          1           0       21.201275    2.417571   -1.556027
    134          1           0       19.594183    1.995428   -1.871841
    135          1           0       21.216093    1.093902    2.140711
    136          1           0       22.304688    1.660110    0.801355
    137          1           0       21.350684    2.874543    1.621516
 ---------------------------------------------------------------------

 SCF Done:  E(RCAM-B3LYP) =  -2932.59370042     A.U. after   18 cycles

 Excitation energies and oscillator strengths:

 Excited State   1:      Singlet-A      2.1207 eV  584.64 nm  f=0.1978  <S**2>=0.000
     240 -> 243        0.29472
     241 -> 242        0.63258
 This state for optimization and/or second-order correction.
 Total Energy, E(TD-HF/TD-KS) =  -2932.51576592
 Copying the excited state density for this state as the 1-particle RhoCI density.

 The electronic state is 1-A.
 Alpha  occ. eigenvalues --  -46.84812 -19.26587 -19.25650 -19.21703 -19.21454
 Alpha  occ. eigenvalues --  -19.19012 -14.41488 -14.40235 -14.39222 -14.38323
 Alpha  occ. eigenvalues --  -10.39449 -10.39164 -10.33481 -10.32998 -10.31391
 Alpha  occ. eigenvalues --  -10.31253 -10.31005 -10.30582 -10.30546 -10.29533
 Alpha  occ. eigenvalues --  -10.28918 -10.28801 -10.28576 -10.28491 -10.28279
 Alpha  occ. eigenvalues --  -10.28046 -10.28023 -10.27964 -10.27947 -10.27790
 Alpha  occ. eigenvalues --  -10.27602 -10.27588 -10.27486 -10.27466 -10.27361
 Alpha  occ. eigenvalues --  -10.27237 -10.27203 -10.27059 -10.27012 -10.26988
 Alpha  occ. eigenvalues --  -10.26943 -10.26230 -10.26144 -10.26100 -10.26014
 Alpha  occ. eigenvalues --  -10.25991 -10.25963 -10.25913 -10.25881 -10.25823
 Alpha  occ. eigenvalues --  -10.25747 -10.25721 -10.25711 -10.25304 -10.25273
 Alpha  occ. eigenvalues --  -10.25252 -10.25008 -10.24724 -10.24648 -10.24454
 Alpha  occ. eigenvalues --  -10.24449 -10.24238 -10.23811 -10.23506 -10.23310
 Alpha  occ. eigenvalues --   -3.13715  -1.88433  -1.87927  -1.87903  -1.15601
 Alpha  occ. eigenvalues --   -1.14213  -1.10884  -1.08534  -1.07273  -1.04801
 Alpha  occ. eigenvalues --   -1.04183  -1.03361  -1.02351  -0.92332  -0.91755
 Alpha  occ. eigenvalues --   -0.91737  -0.90462  -0.90435  -0.90062  -0.88955
 Alpha  occ. eigenvalues --   -0.88343  -0.88095  -0.87291  -0.87093  -0.85884
 Alpha  occ. eigenvalues --   -0.85167  -0.83685  -0.83183  -0.82611  -0.82044
 Alpha  occ. eigenvalues --   -0.81797  -0.81005  -0.80643  -0.80297  -0.78252
 Alpha  occ. eigenvalues --   -0.77667  -0.77038  -0.76682  -0.76391  -0.75978
 Alpha  occ. eigenvalues --   -0.75676  -0.75035  -0.74237  -0.73472  -0.72183
 Alpha  occ. eigenvalues --   -0.71929  -0.70964  -0.69474  -0.68693  -0.67555
 Alpha  occ. eigenvalues --   -0.66689  -0.66445  -0.65514  -0.64982  -0.64513
 Alpha  occ. eigenvalues --   -0.64214  -0.63661  -0.62790  -0.61784  -0.61671
 Alpha  occ. eigenvalues --   -0.61629  -0.61055  -0.60226  -0.59665  -0.59053
 Alpha  occ. eigenvalues --   -0.58705  -0.57758  -0.57566  -0.55906  -0.55665
 Alpha  occ. eigenvalues --   -0.55534  -0.55396  -0.55264  -0.54962  -0.54442
 Alpha  occ. eigenvalues --   -0.53992  -0.53805  -0.53582  -0.53212  -0.53001
 Alpha  occ. eigenvalues --   -0.52760  -0.52414  -0.52013  -0.51809  -0.51728
 Alpha  occ. eigenvalues --   -0.51556  -0.51334  -0.51153  -0.51048  -0.50637
 Alpha  occ. eigenvalues --   -0.50435  -0.50333  -0.50038  -0.49803  -0.49507
 Alpha  occ. eigenvalues --   -0.49079  -0.48791  -0.48740  -0.48469  -0.48294
 Alpha  occ. eigenvalues --   -0.48094  -0.47576  -0.47424  -0.47209  -0.47171
 Alpha  occ. eigenvalues --   -0.46725  -0.46622  -0.46465  -0.46408  -0.45996
 Alpha  occ. eigenvalues --   -0.45499  -0.45327  -0.45008  -0.44678  -0.44565
 Alpha  occ. eigenvalues --   -0.44483  -0.44382  -0.44146  -0.43746  -0.43712
 Alpha  occ. eigenvalues --   -0.43479  -0.43351  -0.43099  -0.42884  -0.42791
 Alpha  occ. eigenvalues --   -0.42643  -0.42609  -0.42539  -0.42366  -0.42317
 Alpha  occ. eigenvalues --   -0.41863  -0.41814  -0.41730  -0.41638  -0.41468
 Alpha  occ. eigenvalues --   -0.41291  -0.41124  -0.40737  -0.40517  -0.40468
 Alpha  occ. eigenvalues --   -0.40358  -0.40128  -0.39882  -0.39712  -0.39290
 Alpha  occ. eigenvalues --   -0.38897  -0.38779  -0.38428  -0.37956  -0.37882
 Alpha  occ. eigenvalues --   -0.37523  -0.37372  -0.36806  -0.36593  -0.36418
 Alpha  occ. eigenvalues --   -0.36275  -0.35906  -0.35625  -0.35479  -0.35420
 Alpha  occ. eigenvalues --   -0.35183  -0.34820  -0.34592  -0.33412  -0.33266
 Alpha  occ. eigenvalues --   -0.32922  -0.32348  -0.32162  -0.30694  -0.30469
 Alpha  occ. eigenvalues --   -0.29445  -0.29103  -0.27664  -0.26873  -0.23059
 Alpha  occ. eigenvalues --   -0.21365
 Alpha virt. eigenvalues --   -0.06102  -0.03713   0.01441   0.03830   0.05423
 Alpha virt. eigenvalues --    0.05467   0.05805   0.06782   0.07056   0.07471
 Alpha virt. eigenvalues --    0.08506   0.10285   0.10880   0.11208   0.11560

 Mulliken charges:
               1
     1  Mg   0.827469
     2  C    0.065880
     3  C   -0.211924
     4  C   -0.165999
     5  C   -0.147956
     6  N   -0.623332
     7  C    0.292203
     8  C   -0.152973
     9  C   -0.132501
    10  C    0.327336
    11  C   -0.294558
    12  C   -0.164160
    13  C   -0.277868
    14  C    0.608957
    15  O   -0.458386
    16  O   -0.507839
    17  N   -0.703265
    18  C    0.314115
    19  C    0.074267
    20  C    0.072292
    21  C    0.293619
    22  C   -0.398552
    23  C   -0.137705
    24  C   -0.245471
    25  N   -0.702997
    26  C    0.233507
    27  C    0.004780
    28  C   -0.018095
    29  C    0.345862
    30  C   -0.355082
    31  C   -0.238823
    32  C   -0.266829
    33  N   -0.775196
    34  C    0.220184
    35  C    0.076794
    36  C    0.031250
    37  C    0.382757
    38  C   -0.390572
    39  C    0.312080
    40  O   -0.466933
    41  C   -0.329084
    42  C    0.639759
    43  O   -0.490024
    44  O   -0.485954
    45  C   -0.091758
    46  C   -0.010114
    47  C   -0.116793
    48  C    0.114933
    49  C   -0.370107
    50  C   -0.225077
    51  C   -0.174513
    52  C   -0.187306
    53  C   -0.050085
    54  C   -0.322037
    55  C   -0.165373
    56  C   -0.192502
    57  C   -0.159229
    58  C   -0.049469
    59  C   -0.320934
    60  C   -0.168329
    61  C   -0.155135
    62  C   -0.168569
    63  C   -0.050850
    64  C   -0.315005
    65  C   -0.314037
    66  H    0.082218
    67  H    0.080423
    68  H    0.104154
    69  H    0.118438
    70  H    0.105521
    71  H    0.098205
    72  H    0.110592
    73  H    0.121634
    74  H    0.133277
    75  H    0.131424
    76  H    0.123153
    77  H    0.126101
    78  H    0.105623
    79  H    0.119328
    80  H    0.108449
    81  H    0.103722
    82  H    0.096780
    83  H    0.116113
    84  H    0.145092
    85  H    0.119848
    86  H    0.095544
    87  H    0.094647
    88  H    0.103284
    89  H    0.074551
    90  H    0.099344
    91  H    0.075721
    92  H    0.132824
    93  H    0.143858
    94  H    0.142298
    95  H    0.152638
    96  H    0.128922
    97  H    0.155717
    98  H    0.134001
    99  H    0.118874
   100  H    0.134058
   101  H    0.089902
   102  H    0.117224
   103  H    0.108688
   104  H    0.119548
   105  H    0.097445
   106  H    0.103538
   107  H    0.111497
   108  H    0.082290
   109  H    0.083956
   110  H    0.104260
   111  H    0.096422
   112  H    0.093943
   113  H    0.108432
   114  H    0.107284
   115  H    0.085924
   116  H    0.065941
   117  H    0.104752
   118  H    0.084706
   119  H    0.107076
   120  H    0.094625
   121  H    0.100745
   122  H    0.076478
   123  H    0.087657
   124  H    0.118426
   125  H    0.084931
   126  H    0.053158
   127  H    0.073162
   128  H    0.065275
   129  H    0.086427
   130  H    0.082967
   131  H    0.087439
   132  H    0.086997
   133  H    0.109022
   134  H    0.111609
   135  H    0.099267
   136  H    0.088881
   137  H    0.094988
 Sum of Mulliken charges =   0.00000

 Dipole moment (field-independent basis, Debye):
    X=              2.7982    Y=              4.0067    Z=              0.2139  Tot=              4.8918
 Quadrupole moment (field-independent basis, Debye-Ang):
   XX=           -357.4022   YY=           -389.8590   ZZ=           -395.4725
   XY=            -15.3266   XZ=              2.6889   YZ=             -3.2781

 Normal termination of Gaussian 09 at Sat Jun 29 20:05:44 2019.
