 Gaussian 09, Revision D.01,
 Gaussian 09:  ES64L-G09RevD.01 24-Apr-2013

 -------------------------------------
 # td=(NStates=1) CAM-B3LYP/6-31G(d,p)
 -------------------------------------

 --
 TD
 --
 Symbolic Z-matrix:
 Charge =  0 Multiplicity = 1

                         Standard orientation:
 ---------------------------------------------------------------------
 Center     Atomic      Atomic             Coordinates (Angstroms)
 Number     Number       Type             X           Y           Z
 ---------------------------------------------------------------------
      1         12           0       -7.238699    0.577984    0.285025
      2          6           0       -4.861296   -1.926784    0.556191
      3          6           0       -4.830048    2.801111    1.183102
      4          6           0       -9.425336    3.033347   -0.191260
      5          6           0       -9.530245   -1.753120   -0.826712
      6          7           0       -5.170385    0.501591    0.848582
      7          6           0       -4.328173   -0.695149    0.969532
      8          6           0       -2.957738   -0.496940    1.346554
      9          6           0       -3.033910    0.997168    1.783154
     10          6           0       -4.438119    1.497773    1.296255
     11          6           0       -2.987384    1.175392    3.277105
     12          6           0       -2.032989   -0.747303    0.169138
     13          6           0       -0.455182   -0.460552    0.439304
     14          6           0        0.362857   -0.663832   -0.522660
     15          8           0        0.076229   -0.991970   -1.673480
     16          8           0        1.763562   -0.369705   -0.334017
     17          7           0       -7.028648    2.715757    0.310651
     18          6           0       -6.084962    3.408472    0.872460
     19          6           0       -6.424318    4.840852    0.834134
     20          6           0       -7.680864    4.904743    0.395042
     21          6           0       -8.159269    3.482078    0.155067
     22          6           0       -5.508275    5.888727    1.486246
     23          6           0       -8.625537    5.977394    0.299782
     24          6           0       -8.193760    7.226766    0.045455
     25          7           0       -9.106626    0.694007   -0.392667
     26          6           0       -9.930570    1.799304   -0.564216
     27          6           0      -11.149051    1.469770   -1.168172
     28          6           0      -11.223558    0.098192   -1.280287
     29          6           0       -9.912800   -0.372625   -0.809138
     30          6           0      -12.302812    2.481463   -1.517383
     31          6           0      -12.354067   -0.660065   -1.890272
     32          6           0      -12.184962   -0.982379   -3.335348
     33          7           0       -7.239939   -1.380264   -0.018490
     34          6           0       -8.256973   -2.258416   -0.444911
     35          6           0       -7.819116   -3.633499   -0.500469
     36          6           0       -6.534116   -3.618345   -0.044647
     37          6           0       -6.209029   -2.221133    0.184299
     38          6           0       -8.698544   -4.749524   -0.979523
     39          6           0       -5.274992   -4.424570    0.217093
     40          8           0       -5.076414   -5.577397    0.148765
     41          6           0       -4.139938   -3.382390    0.589594
     42          6           0       -3.454991   -3.677135    1.863937
     43          8           0       -3.461621   -3.157585    2.996394
     44          8           0       -2.674022   -4.837071    1.680775
     45          6           0       -1.924234   -5.311684    2.817906
     46          6           0        2.741714   -0.687329   -1.269221
     47          6           0        4.037885   -0.475823   -0.685373
     48          6           0        5.059896    0.280632   -1.210595
     49          6           0        5.020372    1.129423   -2.390089
     50          6           0        6.389033    0.392019   -0.410705
     51          6           0        7.598071   -0.202729   -0.967283
     52          6           0        8.860589   -0.159748   -0.154038
     53          6           0       10.122618   -0.464527   -1.032347
     54          6           0       10.103812   -1.838380   -1.618421
     55          6           0       11.367525   -0.256205   -0.006225
     56          6           0       12.803748   -0.406985   -0.738189
     57          6           0       13.986002   -0.113033    0.222197
     58          6           0       15.324539   -0.182513   -0.570418
     59          6           0       15.768876   -1.581875   -0.748645
     60          6           0       16.418876    0.428822    0.376137
     61          6           0       17.785131    0.668877   -0.203363
     62          6           0       18.768353    1.311009    0.742104
     63          6           0       20.219398    1.391197    0.405368
     64          6           0       20.330485    2.218592   -0.914316
     65          6           0       21.098276    1.740992    1.498448
     66          1           0       -3.886838    3.361207    1.440071
     67          1           0       -9.940802    3.941205   -0.486292
     68          1           0      -10.285784   -2.314412   -0.947375
     69          1           0       -2.811135   -1.040531    2.308515
     70          1           0       -2.251847    1.617703    1.319009
     71          1           0       -2.070929    0.762449    3.611572
     72          1           0       -2.691426    2.368627    3.419203
     73          1           0       -3.888833    0.867252    3.832828
     74          1           0       -1.922465   -1.611300   -0.293176
     75          1           0       -2.067923   -0.005750   -0.752627
     76          1           0       -0.374452    0.656747    0.790501
     77          1           0       -0.492427   -1.188913    1.385371
     78          1           0       -4.714883    6.389447    0.784276
     79          1           0       -5.972197    6.819270    1.826694
     80          1           0       -4.780186    5.221410    2.386070
     81          1           0       -9.558380    5.793482    0.534603
     82          1           0       -8.813961    7.931806   -0.054519
     83          1           0       -7.084858    7.453950   -0.215671
     84          1           0      -11.960379    2.912326   -2.461728
     85          1           0      -13.064334    1.999254   -1.744816
     86          1           0      -12.393232    2.958893   -0.561273
     87          1           0      -12.312226   -1.565615   -1.467335
     88          1           0      -13.323589   -0.142034   -1.875124
     89          1           0      -13.084218   -1.572581   -3.591135
     90          1           0      -12.065469    0.127537   -3.987081
     91          1           0      -11.246373   -1.711814   -3.539043
     92          1           0       -9.040285   -4.601870   -1.898617
     93          1           0       -8.227246   -5.758284   -1.068731
     94          1           0       -9.503224   -4.873764   -0.161362
     95          1           0       -3.384606   -3.431560   -0.106145
     96          1           0       -1.287601   -4.684439    3.351041
     97          1           0       -2.559731   -5.733910    3.431967
     98          1           0       -1.264641   -6.162673    2.412893
     99          1           0        2.535458   -1.853362   -1.483365
    100          1           0        2.594505   -0.332342   -2.414951
    101          1           0        4.225972   -0.964169    0.125865
    102          1           0        4.141996    1.268201   -3.057027
    103          1           0        5.397168    2.228637   -2.359408
    104          1           0        5.752698    0.600900   -3.116473
    105          1           0        6.490250    1.448825   -0.018328
    106          1           0        6.096237   -0.121142    0.500318
    107          1           0        7.493200   -1.336735   -1.228725
    108          1           0        7.897257    0.202345   -2.019762
    109          1           0        9.093212    1.007518    0.151291
    110          1           0        8.696575   -0.700855    0.688984
    111          1           0       10.167349    0.412360   -1.741278
    112          1           0        9.381011   -1.820799   -2.468752
    113          1           0       10.962771   -2.107842   -2.180958
    114          1           0        9.975905   -2.793994   -0.825358
    115          1           0       11.228066    0.820672    0.252832
    116          1           0       11.284063   -0.891187    0.815581
    117          1           0       12.890022   -1.455546   -1.050983
    118          1           0       12.981287    0.206258   -1.585534
    119          1           0       13.757512    1.127129    0.505887
    120          1           0       13.904574   -0.965151    1.002968
    121          1           0       15.294352    0.516608   -1.494144
    122          1           0       16.018381   -2.179678    0.194271
    123          1           0       14.987539   -1.961499   -1.526368
    124          1           0       16.641908   -1.515597   -1.478150
    125          1           0       15.908299    1.335869    0.673359
    126          1           0       16.549463   -0.410863    1.257621
    127          1           0       18.382372   -0.260376   -0.558582
    128          1           0       17.640290    1.334093   -1.118437
    129          1           0       18.387611    2.253507    0.995004
    130          1           0       18.504334    0.631247    1.559046
    131          1           0       20.340724    0.505639    0.076392
    132          1           0       20.098163    3.160044   -0.523610
    133          1           0       21.292490    1.835503   -1.396410
    134          1           0       19.563207    1.886368   -1.647209
    135          1           0       20.675738    1.246252    2.554724
    136          1           0       22.154943    1.353645    1.305782
    137          1           0       21.155894    2.885632    1.618703
 ---------------------------------------------------------------------

 SCF Done:  E(RCAM-B3LYP) =  -2932.51614658     A.U. after   18 cycles

 Excitation energies and oscillator strengths:

 Excited State   1:      Singlet-A      2.0947 eV  591.88 nm  f=0.2277  <S**2>=0.000
     240 -> 243        0.26298
     241 -> 242        0.64995
 This state for optimization and/or second-order correction.
 Total Energy, E(TD-HF/TD-KS) =  -2932.43916618
 Copying the excited state density for this state as the 1-particle RhoCI density.

 The electronic state is 1-A.
 Alpha  occ. eigenvalues --  -46.84543 -19.25333 -19.23677 -19.21634 -19.21621
 Alpha  occ. eigenvalues --  -19.20847 -14.41347 -14.39995 -14.39432 -14.39035
 Alpha  occ. eigenvalues --  -10.40099 -10.38709 -10.36391 -10.31597 -10.31007
 Alpha  occ. eigenvalues --  -10.30229 -10.30156 -10.29544 -10.29466 -10.29455
 Alpha  occ. eigenvalues --  -10.29250 -10.29141 -10.28954 -10.28902 -10.28840
 Alpha  occ. eigenvalues --  -10.28701 -10.28560 -10.28276 -10.28174 -10.28049
 Alpha  occ. eigenvalues --  -10.28019 -10.27599 -10.27433 -10.27191 -10.27171
 Alpha  occ. eigenvalues --  -10.27005 -10.26985 -10.26825 -10.26724 -10.26511
 Alpha  occ. eigenvalues --  -10.26240 -10.26236 -10.26217 -10.26174 -10.26157
 Alpha  occ. eigenvalues --  -10.26079 -10.26073 -10.25783 -10.25757 -10.25754
 Alpha  occ. eigenvalues --  -10.25637 -10.25636 -10.25587 -10.25525 -10.25354
 Alpha  occ. eigenvalues --  -10.25295 -10.25176 -10.25112 -10.25056 -10.24612
 Alpha  occ. eigenvalues --  -10.24604 -10.24298 -10.23887 -10.22988 -10.22850
 Alpha  occ. eigenvalues --   -3.13599  -1.88294  -1.87834  -1.87791  -1.16003
 Alpha  occ. eigenvalues --   -1.15976  -1.14426  -1.07828  -1.07373  -1.04912
 Alpha  occ. eigenvalues --   -1.03907  -1.03064  -1.02046  -0.92441  -0.91331
 Alpha  occ. eigenvalues --   -0.91301  -0.90817  -0.90088  -0.89758  -0.89584
 Alpha  occ. eigenvalues --   -0.88802  -0.88366  -0.88159  -0.87826  -0.86814
 Alpha  occ. eigenvalues --   -0.85216  -0.84658  -0.84346  -0.83283  -0.83233
 Alpha  occ. eigenvalues --   -0.82084  -0.81263  -0.80792  -0.80023  -0.79171
 Alpha  occ. eigenvalues --   -0.78212  -0.77402  -0.76842  -0.75963  -0.75522
 Alpha  occ. eigenvalues --   -0.75495  -0.74499  -0.74205  -0.73897  -0.72807
 Alpha  occ. eigenvalues --   -0.71310  -0.70471  -0.69567  -0.68639  -0.68316
 Alpha  occ. eigenvalues --   -0.68127  -0.66244  -0.65372  -0.65034  -0.63857
 Alpha  occ. eigenvalues --   -0.63593  -0.62994  -0.62823  -0.62154  -0.61593
 Alpha  occ. eigenvalues --   -0.61136  -0.60912  -0.60689  -0.60321  -0.59980
 Alpha  occ. eigenvalues --   -0.59079  -0.58608  -0.58049  -0.57654  -0.57533
 Alpha  occ. eigenvalues --   -0.57212  -0.56118  -0.55595  -0.55084  -0.54918
 Alpha  occ. eigenvalues --   -0.54449  -0.54359  -0.53827  -0.53673  -0.53359
 Alpha  occ. eigenvalues --   -0.53220  -0.52958  -0.52698  -0.52460  -0.52120
 Alpha  occ. eigenvalues --   -0.51899  -0.51784  -0.51465  -0.51222  -0.50966
 Alpha  occ. eigenvalues --   -0.50748  -0.50480  -0.50136  -0.49980  -0.49763
 Alpha  occ. eigenvalues --   -0.49562  -0.49225  -0.48976  -0.48847  -0.48662
 Alpha  occ. eigenvalues --   -0.48564  -0.47942  -0.47839  -0.47707  -0.47256
 Alpha  occ. eigenvalues --   -0.46981  -0.46844  -0.46708  -0.46270  -0.46120
 Alpha  occ. eigenvalues --   -0.45905  -0.45620  -0.45500  -0.45358  -0.45257
 Alpha  occ. eigenvalues --   -0.45166  -0.44854  -0.44680  -0.44457  -0.44200
 Alpha  occ. eigenvalues --   -0.44041  -0.43603  -0.43496  -0.43361  -0.43195
 Alpha  occ. eigenvalues --   -0.43086  -0.42742  -0.42717  -0.42290  -0.41897
 Alpha  occ. eigenvalues --   -0.41663  -0.41434  -0.41322  -0.41195  -0.40949
 Alpha  occ. eigenvalues --   -0.40837  -0.40693  -0.40303  -0.40200  -0.40105
 Alpha  occ. eigenvalues --   -0.39970  -0.39646  -0.39422  -0.39063  -0.38837
 Alpha  occ. eigenvalues --   -0.38656  -0.38585  -0.38095  -0.37752  -0.37450
 Alpha  occ. eigenvalues --   -0.37215  -0.37071  -0.36873  -0.36697  -0.36472
 Alpha  occ. eigenvalues --   -0.36132  -0.36113  -0.35887  -0.35582  -0.35466
 Alpha  occ. eigenvalues --   -0.34718  -0.33944  -0.33893  -0.33801  -0.33343
 Alpha  occ. eigenvalues --   -0.32801  -0.32386  -0.31952  -0.31348  -0.30855
 Alpha  occ. eigenvalues --   -0.30264  -0.28533  -0.28382  -0.27805  -0.23015
 Alpha  occ. eigenvalues --   -0.21316
 Alpha virt. eigenvalues --   -0.06187  -0.02855   0.01575   0.03097   0.03978
 Alpha virt. eigenvalues --    0.04617   0.05103   0.05825   0.07219   0.07596
 Alpha virt. eigenvalues --    0.08109   0.09633   0.10637   0.11240   0.11342

 Mulliken charges:
               1
     1  Mg   0.838294
     2  C    0.018794
     3  C   -0.218580
     4  C   -0.207991
     5  C   -0.122402
     6  N   -0.614033
     7  C    0.257444
     8  C   -0.155401
     9  C   -0.171147
    10  C    0.365212
    11  C   -0.298058
    12  C   -0.178197
    13  C   -0.325231
    14  C    0.659475
    15  O   -0.474513
    16  O   -0.517351
    17  N   -0.655203
    18  C    0.300295
    19  C    0.055556
    20  C   -0.001064
    21  C    0.277305
    22  C   -0.359814
    23  C   -0.067455
    24  C   -0.221630
    25  N   -0.706974
    26  C    0.320176
    27  C   -0.046079
    28  C    0.030901
    29  C    0.252998
    30  C   -0.315898
    31  C   -0.223837
    32  C   -0.274936
    33  N   -0.717957
    34  C    0.244965
    35  C    0.011840
    36  C   -0.007164
    37  C    0.281403
    38  C   -0.366671
    39  C    0.387881
    40  O   -0.401541
    41  C   -0.298629
    42  C    0.611765
    43  O   -0.492447
    44  O   -0.475355
    45  C   -0.071379
    46  C    0.043596
    47  C   -0.096108
    48  C    0.119940
    49  C   -0.371354
    50  C   -0.224594
    51  C   -0.167460
    52  C   -0.148625
    53  C   -0.067540
    54  C   -0.302715
    55  C   -0.170323
    56  C   -0.193313
    57  C   -0.148565
    58  C   -0.067438
    59  C   -0.299654
    60  C   -0.149200
    61  C   -0.181348
    62  C   -0.165736
    63  C   -0.037042
    64  C   -0.316464
    65  C   -0.291481
    66  H    0.066180
    67  H    0.084313
    68  H    0.060644
    69  H    0.161605
    70  H    0.104521
    71  H    0.121085
    72  H    0.080225
    73  H    0.135533
    74  H    0.141184
    75  H    0.123761
    76  H    0.147331
    77  H    0.153338
    78  H    0.107956
    79  H    0.126923
    80  H    0.083655
    81  H    0.099347
    82  H    0.091266
    83  H    0.098064
    84  H    0.127771
    85  H    0.110169
    86  H    0.129218
    87  H    0.112419
    88  H    0.114059
    89  H    0.107342
    90  H    0.070995
    91  H    0.090511
    92  H    0.137788
    93  H    0.135570
    94  H    0.121475
    95  H    0.177859
    96  H    0.126472
    97  H    0.136787
    98  H    0.109081
    99  H    0.077717
   100  H    0.096980
   101  H    0.077808
   102  H    0.116019
   103  H    0.108819
   104  H    0.110685
   105  H    0.100980
   106  H    0.098252
   107  H    0.092039
   108  H    0.073811
   109  H    0.053765
   110  H    0.101381
   111  H    0.091847
   112  H    0.100381
   113  H    0.111545
   114  H    0.079987
   115  H    0.084815
   116  H    0.098201
   117  H    0.094568
   118  H    0.090562
   119  H    0.052856
   120  H    0.088478
   121  H    0.082256
   122  H    0.111737
   123  H    0.085208
   124  H    0.103659
   125  H    0.089628
   126  H    0.056038
   127  H    0.077004
   128  H    0.072909
   129  H    0.082632
   130  H    0.080492
   131  H    0.089454
   132  H    0.111061
   133  H    0.095243
   134  H    0.104090
   135  H    0.082467
   136  H    0.096933
   137  H    0.091295
 Sum of Mulliken charges =   0.00000

 Dipole moment (field-independent basis, Debye):
    X=             -1.3058    Y=              2.8155    Z=              0.5097  Tot=              3.1451
 Quadrupole moment (field-independent basis, Debye-Ang):
   XX=           -334.6904   YY=           -390.9474   ZZ=           -400.0460
   XY=            -21.5502   XZ=              1.1014   YZ=             -2.9590

 Normal termination of Gaussian 09 at Sun Jun 30 22:03:49 2019.
