 Gaussian 09, Revision D.01,
 Gaussian 09:  ES64L-G09RevD.01 24-Apr-2013

 -------------------------------------
 # td=(NStates=1) CAM-B3LYP/6-31G(d,p)
 -------------------------------------

 --
 TD
 --
 Symbolic Z-matrix:
 Charge =  0 Multiplicity = 1

                         Standard orientation:
 ---------------------------------------------------------------------
 Center     Atomic      Atomic             Coordinates (Angstroms)
 Number     Number       Type             X           Y           Z
 ---------------------------------------------------------------------
      1         12           0       -7.129697    0.585428    0.039857
      2          6           0       -4.850441   -1.952754    0.645603
      3          6           0       -4.771195    2.810898    1.191545
      4          6           0       -9.476064    3.074426   -0.320188
      5          6           0       -9.577188   -1.726511   -0.811147
      6          7           0       -5.162010    0.442591    0.747051
      7          6           0       -4.381793   -0.699247    0.800396
      8          6           0       -2.946130   -0.351356    1.293251
      9          6           0       -3.070256    1.180604    1.710814
     10          6           0       -4.377386    1.487084    1.148476
     11          6           0       -2.942564    1.322282    3.177640
     12          6           0       -1.995585   -0.502487    0.136781
     13          6           0       -0.511094   -0.549661    0.640948
     14          6           0        0.392070   -0.798251   -0.575088
     15          8           0        0.141025   -1.168561   -1.669969
     16          8           0        1.731758   -0.600565   -0.167649
     17          7           0       -7.028746    2.639018    0.299977
     18          6           0       -5.997287    3.331787    0.825878
     19          6           0       -6.370382    4.739742    0.890435
     20          6           0       -7.766873    4.826160    0.379024
     21          6           0       -8.185820    3.432783    0.088353
     22          6           0       -5.561607    5.904378    1.226498
     23          6           0       -8.548019    6.012582    0.275488
     24          6           0       -8.334270    7.289515   -0.037480
     25          7           0       -9.105548    0.648202   -0.494522
     26          6           0       -9.842724    1.752965   -0.524727
     27          6           0      -11.164588    1.388682   -1.013837
     28          6           0      -11.244557    0.122721   -1.160368
     29          6           0       -9.899959   -0.410345   -0.787356
     30          6           0      -12.264618    2.441678   -1.351581
     31          6           0      -12.285904   -0.759738   -1.825254
     32          6           0      -12.178503   -1.000059   -3.353719
     33          7           0       -7.212134   -1.420176   -0.172558
     34          6           0       -8.269075   -2.246743   -0.558794
     35          6           0       -7.816025   -3.665296   -0.438505
     36          6           0       -6.471051   -3.528034    0.004307
     37          6           0       -6.125875   -2.158415    0.160983
     38          6           0       -8.698743   -4.830714   -0.741467
     39          6           0       -5.245592   -4.352338    0.264263
     40          8           0       -4.978257   -5.508525    0.106132
     41          6           0       -4.179716   -3.313931    0.563187
     42          6           0       -3.477687   -3.679403    1.893365
     43          8           0       -3.711871   -3.097234    2.971363
     44          8           0       -2.525012   -4.599427    1.733369
     45          6           0       -1.973372   -4.985008    2.990545
     46          6           0        2.644044   -0.687197   -1.208637
     47          6           0        4.062216   -0.533492   -0.624958
     48          6           0        4.980928    0.249137   -1.077431
     49          6           0        5.039517    1.033025   -2.316153
     50          6           0        6.355559    0.362492   -0.317185
     51          6           0        7.573534   -0.320132   -1.085472
     52          6           0        8.870618   -0.267151   -0.136962
     53          6           0       10.243332   -0.582077   -0.903696
     54          6           0       10.201809   -2.118763   -1.404261
     55          6           0       11.436472   -0.226228   -0.093424
     56          6           0       12.837819   -0.359597   -0.842354
     57          6           0       13.933769   -0.107014    0.071603
     58          6           0       15.270128   -0.148072   -0.555779
     59          6           0       15.705927   -1.588598   -0.938251
     60          6           0       16.397636    0.527995    0.373272
     61          6           0       17.906547    0.507711   -0.234288
     62          6           0       18.694286    1.288097    0.783056
     63          6           0       20.248491    1.393690    0.426678
     64          6           0       20.462859    2.159039   -0.863929
     65          6           0       21.078197    2.093514    1.467925
     66          1           0       -4.036999    3.725210    1.595211
     67          1           0      -10.290902    3.859827   -0.428394
     68          1           0      -10.259929   -2.588147   -0.985235
     69          1           0       -2.711521   -1.082652    1.932556
     70          1           0       -2.392220    1.751161    1.185524
     71          1           0       -2.095302    1.008085    3.830533
     72          1           0       -2.944580    2.298070    3.519506
     73          1           0       -3.672226    0.788227    3.677783
     74          1           0       -2.170553   -1.505052   -0.388603
     75          1           0       -2.291908    0.092496   -0.722838
     76          1           0       -0.316336    0.424000    0.918666
     77          1           0       -0.188753   -1.199330    1.451200
     78          1           0       -4.791429    6.172908    0.481554
     79          1           0       -6.379114    6.708707    1.463108
     80          1           0       -4.929147    5.478381    2.093111
     81          1           0       -9.634840    6.010620    0.516308
     82          1           0       -8.930617    8.277922    0.106575
     83          1           0       -7.367143    7.587779   -0.446841
     84          1           0      -11.984165    3.224894   -2.024881
     85          1           0      -13.295865    1.896379   -1.690005
     86          1           0      -12.521508    3.070171   -0.368796
     87          1           0      -12.125876   -1.720678   -1.283331
     88          1           0      -13.276713   -0.391534   -1.457865
     89          1           0      -12.931234   -1.950888   -3.696247
     90          1           0      -12.376155   -0.241084   -4.101924
     91          1           0      -11.194439   -1.161808   -3.567680
     92          1           0       -8.875956   -4.915177   -1.834499
     93          1           0       -7.977824   -5.849133   -0.377205
     94          1           0       -9.639721   -4.983168    0.046385
     95          1           0       -3.642955   -3.408445   -0.401476
     96          1           0       -0.917991   -4.339350    3.315305
     97          1           0       -2.865594   -4.912927    3.945919
     98          1           0       -1.666950   -6.018043    2.790114
     99          1           0        2.452633   -1.767447   -1.736645
    100          1           0        2.364978   -0.050490   -2.017333
    101          1           0        4.047551   -1.004983    0.271117
    102          1           0        3.997875    1.307375   -2.841604
    103          1           0        5.512085    2.014636   -2.131183
    104          1           0        5.456136    0.473479   -3.099531
    105          1           0        6.601214    1.459930   -0.082797
    106          1           0        6.139680    0.014012    0.579436
    107          1           0        7.328504   -1.295673   -1.124288
    108          1           0        7.874384    0.252570   -2.118201
    109          1           0        8.834551    0.824727    0.177036
    110          1           0        8.828491   -0.819962    0.666718
    111          1           0        9.999876    0.045799   -1.898583
    112          1           0        9.106875   -2.346118   -1.966043
    113          1           0       10.851277   -2.413681   -2.000106
    114          1           0       10.372323   -2.896505   -0.571647
    115          1           0       11.336084    0.812191   -0.016581
    116          1           0       11.420811   -0.767817    0.940612
    117          1           0       12.633801   -1.349722   -1.199000
    118          1           0       12.795268    0.343586   -1.675797
    119          1           0       13.620184    0.904180    0.328531
    120          1           0       14.004255   -0.562380    1.094268
    121          1           0       15.436620    0.454348   -1.448593
    122          1           0       15.803699   -2.168084   -0.046759
    123          1           0       14.969303   -2.289279   -1.477301
    124          1           0       16.331968   -1.550840   -1.641446
    125          1           0       16.071882    1.487305    0.493234
    126          1           0       16.343200    0.148689    1.273375
    127          1           0       18.153189   -0.760400   -0.280815
    128          1           0       18.067787    0.952381   -1.182589
    129          1           0       18.319519    2.250244    1.037404
    130          1           0       18.722451    0.885608    1.869115
    131          1           0       20.419467    0.190193    0.363945
    132          1           0       19.862347    3.105806   -0.730839
    133          1           0       21.397799    2.380956   -1.285477
    134          1           0       19.899588    1.534851   -1.734667
    135          1           0       21.278608    1.489024    2.424099
    136          1           0       21.958450    2.307661    0.974992
    137          1           0       20.733139    3.192080    1.828383
 ---------------------------------------------------------------------

 SCF Done:  E(RCAM-B3LYP) =  -2932.57390338     A.U. after   18 cycles

 Excitation energies and oscillator strengths:

 Excited State   1:      Singlet-A      1.9669 eV  630.37 nm  f=0.3301  <S**2>=0.000
     240 -> 243        0.20587
     241 -> 242        0.67220
 This state for optimization and/or second-order correction.
 Total Energy, E(TD-HF/TD-KS) =  -2932.50162294
 Copying the excited state density for this state as the 1-particle RhoCI density.

 The electronic state is 1-A.
 Alpha  occ. eigenvalues --  -46.83994 -19.28186 -19.24906 -19.22418 -19.21378
 Alpha  occ. eigenvalues --  -19.20420 -14.42423 -14.40011 -14.39647 -14.39128
 Alpha  occ. eigenvalues --  -10.40354 -10.39469 -10.34854 -10.34290 -10.31142
 Alpha  occ. eigenvalues --  -10.30855 -10.30704 -10.30184 -10.30076 -10.29223
 Alpha  occ. eigenvalues --  -10.29145 -10.29101 -10.28915 -10.28785 -10.28439
 Alpha  occ. eigenvalues --  -10.28248 -10.28001 -10.27990 -10.27907 -10.27870
 Alpha  occ. eigenvalues --  -10.27801 -10.27770 -10.27446 -10.27389 -10.27222
 Alpha  occ. eigenvalues --  -10.27203 -10.27173 -10.27058 -10.26965 -10.26922
 Alpha  occ. eigenvalues --  -10.26871 -10.26845 -10.26532 -10.26487 -10.26283
 Alpha  occ. eigenvalues --  -10.26257 -10.26120 -10.25612 -10.25517 -10.25335
 Alpha  occ. eigenvalues --  -10.25313 -10.25268 -10.25223 -10.25089 -10.24991
 Alpha  occ. eigenvalues --  -10.24946 -10.24908 -10.24776 -10.24546 -10.24380
 Alpha  occ. eigenvalues --  -10.24348 -10.24315 -10.24266 -10.23280 -10.22510
 Alpha  occ. eigenvalues --   -3.13104  -1.87818  -1.87376  -1.87246  -1.19593
 Alpha  occ. eigenvalues --   -1.18425  -1.12279  -1.10485  -1.08738  -1.05244
 Alpha  occ. eigenvalues --   -1.04460  -1.02496  -1.01877  -0.93388  -0.90946
 Alpha  occ. eigenvalues --   -0.90816  -0.90373  -0.89677  -0.89004  -0.88982
 Alpha  occ. eigenvalues --   -0.88544  -0.88398  -0.87741  -0.86572  -0.85872
 Alpha  occ. eigenvalues --   -0.84705  -0.84294  -0.83568  -0.82813  -0.82541
 Alpha  occ. eigenvalues --   -0.81616  -0.81335  -0.80569  -0.79850  -0.78639
 Alpha  occ. eigenvalues --   -0.77735  -0.76484  -0.76196  -0.75878  -0.75836
 Alpha  occ. eigenvalues --   -0.75181  -0.75038  -0.74721  -0.73683  -0.72420
 Alpha  occ. eigenvalues --   -0.71823  -0.70934  -0.70169  -0.69214  -0.67755
 Alpha  occ. eigenvalues --   -0.67048  -0.66974  -0.66191  -0.65524  -0.64971
 Alpha  occ. eigenvalues --   -0.64006  -0.63610  -0.63316  -0.62047  -0.61998
 Alpha  occ. eigenvalues --   -0.61432  -0.61021  -0.60221  -0.59726  -0.59532
 Alpha  occ. eigenvalues --   -0.58953  -0.58436  -0.58173  -0.57905  -0.56726
 Alpha  occ. eigenvalues --   -0.56262  -0.56217  -0.55629  -0.55141  -0.54909
 Alpha  occ. eigenvalues --   -0.54632  -0.54455  -0.54133  -0.53827  -0.53214
 Alpha  occ. eigenvalues --   -0.52889  -0.52720  -0.52174  -0.52135  -0.51611
 Alpha  occ. eigenvalues --   -0.51288  -0.51057  -0.50944  -0.50825  -0.50544
 Alpha  occ. eigenvalues --   -0.50394  -0.50121  -0.49978  -0.49543  -0.49510
 Alpha  occ. eigenvalues --   -0.49211  -0.49173  -0.49035  -0.48573  -0.48528
 Alpha  occ. eigenvalues --   -0.48419  -0.48091  -0.47921  -0.47604  -0.47458
 Alpha  occ. eigenvalues --   -0.47191  -0.46492  -0.46377  -0.45908  -0.45885
 Alpha  occ. eigenvalues --   -0.45760  -0.45456  -0.45269  -0.45216  -0.45130
 Alpha  occ. eigenvalues --   -0.44657  -0.44534  -0.44298  -0.44158  -0.44116
 Alpha  occ. eigenvalues --   -0.43940  -0.43897  -0.43546  -0.43366  -0.43142
 Alpha  occ. eigenvalues --   -0.43006  -0.42895  -0.42783  -0.42693  -0.42213
 Alpha  occ. eigenvalues --   -0.42106  -0.42004  -0.41817  -0.41522  -0.41428
 Alpha  occ. eigenvalues --   -0.41384  -0.40987  -0.40750  -0.40387  -0.40178
 Alpha  occ. eigenvalues --   -0.40136  -0.39663  -0.39637  -0.39337  -0.39329
 Alpha  occ. eigenvalues --   -0.38450  -0.38307  -0.38139  -0.38000  -0.37546
 Alpha  occ. eigenvalues --   -0.37382  -0.37214  -0.36532  -0.36404  -0.36185
 Alpha  occ. eigenvalues --   -0.36078  -0.35951  -0.35738  -0.35616  -0.35389
 Alpha  occ. eigenvalues --   -0.34842  -0.34711  -0.34552  -0.34050  -0.33801
 Alpha  occ. eigenvalues --   -0.32822  -0.32559  -0.32140  -0.31652  -0.30216
 Alpha  occ. eigenvalues --   -0.29956  -0.29896  -0.28888  -0.26509  -0.23771
 Alpha  occ. eigenvalues --   -0.21192
 Alpha virt. eigenvalues --   -0.07187  -0.02468   0.01726   0.03725   0.05184
 Alpha virt. eigenvalues --    0.05824   0.06403   0.06689   0.07203   0.07865
 Alpha virt. eigenvalues --    0.08230   0.10465   0.10906   0.11411   0.11938

 Mulliken charges:
               1
     1  Mg   0.808686
     2  C    0.108977
     3  C   -0.201269
     4  C   -0.167936
     5  C   -0.173293
     6  N   -0.634333
     7  C    0.274321
     8  C   -0.139831
     9  C   -0.120876
    10  C    0.338240
    11  C   -0.312433
    12  C   -0.209067
    13  C   -0.259650
    14  C    0.598804
    15  O   -0.436496
    16  O   -0.499408
    17  N   -0.748703
    18  C    0.377521
    19  C   -0.004456
    20  C    0.011034
    21  C    0.315995
    22  C   -0.366035
    23  C   -0.108748
    24  C   -0.269474
    25  N   -0.700382
    26  C    0.332338
    27  C    0.029381
    28  C    0.013314
    29  C    0.300373
    30  C   -0.371962
    31  C   -0.219370
    32  C   -0.296183
    33  N   -0.751623
    34  C    0.235496
    35  C    0.032366
    36  C   -0.031482
    37  C    0.307171
    38  C   -0.386321
    39  C    0.362568
    40  O   -0.447929
    41  C   -0.333065
    42  C    0.640308
    43  O   -0.490507
    44  O   -0.415904
    45  C   -0.084084
    46  C    0.026725
    47  C   -0.125758
    48  C    0.116064
    49  C   -0.361206
    50  C   -0.226047
    51  C   -0.172591
    52  C   -0.173867
    53  C   -0.062918
    54  C   -0.305863
    55  C   -0.182403
    56  C   -0.180834
    57  C   -0.153152
    58  C   -0.081160
    59  C   -0.296698
    60  C   -0.186306
    61  C   -0.169669
    62  C   -0.174484
    63  C   -0.047231
    64  C   -0.306448
    65  C   -0.300929
    66  H    0.077388
    67  H    0.109918
    68  H    0.108788
    69  H    0.112241
    70  H    0.115300
    71  H    0.106322
    72  H    0.108688
    73  H    0.134355
    74  H    0.108038
    75  H    0.122570
    76  H    0.149118
    77  H    0.152788
    78  H    0.131817
    79  H    0.124070
    80  H    0.098492
    81  H    0.091812
    82  H    0.112421
    83  H    0.096454
    84  H    0.131801
    85  H    0.100015
    86  H    0.098364
    87  H    0.105556
    88  H    0.099419
    89  H    0.076050
    90  H    0.114361
    91  H    0.125010
    92  H    0.141090
    93  H    0.109556
    94  H    0.115969
    95  H    0.183091
    96  H    0.091367
    97  H    0.132306
    98  H    0.135152
    99  H    0.084942
   100  H    0.109428
   101  H    0.090484
   102  H    0.083230
   103  H    0.114631
   104  H    0.140280
   105  H    0.081303
   106  H    0.105674
   107  H    0.121473
   108  H    0.083240
   109  H    0.077501
   110  H    0.103046
   111  H    0.062341
   112  H    0.069130
   113  H    0.121226
   114  H    0.080774
   115  H    0.101769
   116  H    0.083716
   117  H    0.096938
   118  H    0.099187
   119  H    0.087026
   120  H    0.086711
   121  H    0.078840
   122  H    0.101627
   123  H    0.074445
   124  H    0.111440
   125  H    0.097133
   126  H    0.098868
   127  H    0.068208
   128  H    0.107486
   129  H    0.096271
   130  H    0.078650
   131  H    0.071863
   132  H    0.100073
   133  H    0.113624
   134  H    0.072212
   135  H    0.093121
   136  H    0.113655
   137  H    0.077451
 Sum of Mulliken charges =   0.00000

 Dipole moment (field-independent basis, Debye):
    X=              0.6639    Y=              4.6542    Z=              0.5146  Tot=              4.7294
 Quadrupole moment (field-independent basis, Debye-Ang):
   XX=           -353.9928   YY=           -394.8979   ZZ=           -395.2056
   XY=            -12.9487   XZ=             11.2116   YZ=             -4.6250

 Normal termination of Gaussian 09 at Mon Jul  1 05:46:45 2019.
