 Gaussian 09, Revision D.01,
 Gaussian 09:  ES64L-G09RevD.01 24-Apr-2013

 -------------------------------------
 # td=(NStates=1) CAM-B3LYP/6-31G(d,p)
 -------------------------------------

 --
 TD
 --
 Symbolic Z-matrix:
 Charge =  0 Multiplicity = 1

                         Standard orientation:
 ---------------------------------------------------------------------
 Center     Atomic      Atomic             Coordinates (Angstroms)
 Number     Number       Type             X           Y           Z
 ---------------------------------------------------------------------
      1         12           0       -7.202682    0.580972    0.189771
      2          6           0       -4.830159   -1.984239    0.559412
      3          6           0       -4.902030    2.783708    1.241691
      4          6           0       -9.359590    3.048595   -0.412928
      5          6           0       -9.537576   -1.713817   -0.868140
      6          7           0       -5.135714    0.394837    0.872317
      7          6           0       -4.369765   -0.691122    0.815413
      8          6           0       -2.888113   -0.328294    1.204515
      9          6           0       -3.083559    1.178380    1.617473
     10          6           0       -4.409972    1.466598    1.208693
     11          6           0       -2.935051    1.323310    3.108529
     12          6           0       -1.883317   -0.623648    0.031356
     13          6           0       -0.441866   -0.355348    0.553649
     14          6           0        0.561762   -0.492049   -0.639436
     15          8           0        0.160510   -0.843803   -1.695147
     16          8           0        1.732191   -0.272439   -0.145227
     17          7           0       -7.176374    2.563832    0.360528
     18          6           0       -6.133628    3.428681    0.773775
     19          6           0       -6.499291    4.767761    0.962687
     20          6           0       -7.728547    4.821597    0.396096
     21          6           0       -8.193654    3.469776    0.081454
     22          6           0       -5.582683    5.837975    1.489654
     23          6           0       -8.566870    6.065904    0.226431
     24          6           0       -8.216664    7.265515   -0.184630
     25          7           0       -9.178376    0.671354   -0.529390
     26          6           0       -9.879893    1.797356   -0.746241
     27          6           0      -11.266323    1.457905   -1.059664
     28          6           0      -11.341623    0.064788   -1.216977
     29          6           0       -9.944895   -0.391394   -0.867712
     30          6           0      -12.284216    2.476411   -1.433112
     31          6           0      -12.373397   -0.813755   -1.746439
     32          6           0      -12.298362   -1.285672   -3.237070
     33          7           0       -7.249681   -1.424521   -0.060175
     34          6           0       -8.277451   -2.245126   -0.491528
     35          6           0       -7.822520   -3.622223   -0.501245
     36          6           0       -6.449647   -3.591395    0.013147
     37          6           0       -6.216702   -2.165506    0.258279
     38          6           0       -8.675304   -4.826368   -0.960159
     39          6           0       -5.288590   -4.330969    0.184525
     40          8           0       -5.174972   -5.529398    0.123213
     41          6           0       -4.145025   -3.319654    0.568624
     42          6           0       -3.534992   -3.681466    1.867844
     43          8           0       -3.718200   -3.131994    2.938021
     44          8           0       -2.654714   -4.690249    1.711891
     45          6           0       -2.111742   -5.181844    2.958033
     46          6           0        2.820620   -0.669060   -1.148009
     47          6           0        4.127986   -0.385888   -0.532028
     48          6           0        5.108446    0.305798   -0.944714
     49          6           0        5.106585    1.128248   -2.192857
     50          6           0        6.467718    0.351903   -0.166795
     51          6           0        7.644771   -0.163604   -0.972434
     52          6           0        8.920141   -0.150143   -0.099017
     53          6           0       10.255660   -0.627127   -0.843757
     54          6           0       10.147825   -2.115172   -1.250373
     55          6           0       11.479929   -0.391257   -0.032666
     56          6           0       12.778948   -0.554062   -0.815601
     57          6           0       13.956454   -0.155225    0.176747
     58          6           0       15.314857   -0.210945   -0.564018
     59          6           0       15.774684   -1.516170   -1.172097
     60          6           0       16.427064    0.284066    0.345711
     61          6           0       17.773887    0.652187   -0.185751
     62          6           0       18.704162    1.315740    0.772737
     63          6           0       20.242839    1.398245    0.328943
     64          6           0       20.459564    2.072224   -0.957192
     65          6           0       21.072314    2.030539    1.440034
     66          1           0       -3.991579    3.460393    1.671508
     67          1           0       -9.967370    3.946531   -0.700718
     68          1           0      -10.171311   -2.553541   -1.299181
     69          1           0       -2.702444   -1.013848    1.951275
     70          1           0       -2.418948    1.873743    1.161650
     71          1           0       -1.869524    1.009608    3.404506
     72          1           0       -3.043141    2.442133    3.397178
     73          1           0       -3.618573    0.849013    3.845905
     74          1           0       -1.937294   -1.683976   -0.382761
     75          1           0       -2.053959    0.147782   -0.833366
     76          1           0       -0.466662    0.543400    1.140531
     77          1           0       -0.241768   -1.148518    1.282532
     78          1           0       -4.914287    6.174438    0.585887
     79          1           0       -6.072635    6.567893    1.917859
     80          1           0       -4.799771    5.450140    2.173647
     81          1           0       -9.692070    5.896696    0.406051
     82          1           0       -8.999737    7.894823   -0.128952
     83          1           0       -7.169804    7.345874   -0.168440
     84          1           0      -12.147503    2.924269   -2.592290
     85          1           0      -13.374930    2.114062   -1.295019
     86          1           0      -12.009474    3.443296   -0.626916
     87          1           0      -12.506371   -1.687186   -1.058096
     88          1           0      -13.403291   -0.201188   -1.670646
     89          1           0      -13.305161   -1.778243   -3.484655
     90          1           0      -12.235394   -0.358889   -3.935204
     91          1           0      -11.432447   -1.839198   -3.244893
     92          1           0       -8.841963   -4.787814   -2.032641
     93          1           0       -7.959316   -5.777393   -0.685153
     94          1           0       -9.497376   -4.751474   -0.267297
     95          1           0       -3.260871   -3.478985   -0.153374
     96          1           0       -1.430951   -4.500207    3.226908
     97          1           0       -2.980355   -5.570063    3.595591
     98          1           0       -1.721722   -6.214427    2.693563
     99          1           0        2.741906   -1.734171   -1.302695
    100          1           0        2.795227   -0.361049   -2.105722
    101          1           0        4.294625   -0.800607    0.314511
    102          1           0        4.194424    1.047026   -2.662066
    103          1           0        5.474177    2.113707   -1.974434
    104          1           0        5.594427    0.616755   -2.976290
    105          1           0        6.796921    1.522866   -0.191560
    106          1           0        6.376383   -0.042252    0.962003
    107          1           0        7.182251   -1.127606   -1.178283
    108          1           0        7.823669    0.485453   -1.791102
    109          1           0        9.095747    0.822788    0.216549
    110          1           0        8.865593   -0.855973    0.755681
    111          1           0       10.377356   -0.154017   -1.926157
    112          1           0        9.477430   -2.273085   -2.037399
    113          1           0       11.127043   -2.322066   -1.719105
    114          1           0       10.095692   -2.708361   -0.505217
    115          1           0       11.345629    0.443703    0.348618
    116          1           0       11.475308   -1.420659    0.649406
    117          1           0       12.799144   -1.609335   -1.076364
    118          1           0       12.895088    0.145846   -1.651378
    119          1           0       13.839211    0.824451    0.447942
    120          1           0       13.733987   -1.002772    1.018375
    121          1           0       15.228227    0.579317   -1.310894
    122          1           0       15.737799   -2.134926   -0.342911
    123          1           0       14.997699   -1.749185   -2.004962
    124          1           0       16.784210   -1.307936   -1.672219
    125          1           0       16.089787    1.228468    0.614772
    126          1           0       16.447240   -0.351842    1.148332
    127          1           0       18.334803   -0.366557   -0.576831
    128          1           0       17.568956    1.305958   -1.191873
    129          1           0       18.475850    2.252862    1.007873
    130          1           0       18.839622    0.650082    1.756231
    131          1           0       20.787296    0.376839    0.053319
    132          1           0       20.298662    3.225368   -0.761815
    133          1           0       21.404109    1.954216   -1.448755
    134          1           0       19.606326    1.653351   -1.642558
    135          1           0       20.846741    1.396599    2.233482
    136          1           0       22.200025    1.727817    1.248214
    137          1           0       21.004882    3.278659    1.480903
 ---------------------------------------------------------------------

 SCF Done:  E(RCAM-B3LYP) =  -2932.64434204     A.U. after   15 cycles

 Excitation energies and oscillator strengths:

 Excited State   1:      Singlet-A      2.0555 eV  603.20 nm  f=0.2200  <S**2>=0.000
     240 -> 242       -0.17460
     240 -> 243       -0.25989
     241 -> 242        0.62082
 This state for optimization and/or second-order correction.
 Total Energy, E(TD-HF/TD-KS) =  -2932.56880557
 Copying the excited state density for this state as the 1-particle RhoCI density.

 The electronic state is 1-A.
 Alpha  occ. eigenvalues --  -46.84494 -19.28038 -19.25368 -19.21012 -19.19942
 Alpha  occ. eigenvalues --  -19.18891 -14.41037 -14.39431 -14.39370 -14.39109
 Alpha  occ. eigenvalues --  -10.38837 -10.38177 -10.33510 -10.31923 -10.30798
 Alpha  occ. eigenvalues --  -10.30688 -10.30028 -10.29967 -10.29149 -10.28963
 Alpha  occ. eigenvalues --  -10.28922 -10.28917 -10.28792 -10.28732 -10.28580
 Alpha  occ. eigenvalues --  -10.28187 -10.28089 -10.28049 -10.27862 -10.27614
 Alpha  occ. eigenvalues --  -10.27266 -10.27265 -10.27195 -10.27089 -10.26890
 Alpha  occ. eigenvalues --  -10.26887 -10.26862 -10.26771 -10.26709 -10.26673
 Alpha  occ. eigenvalues --  -10.26508 -10.26493 -10.26454 -10.26370 -10.26312
 Alpha  occ. eigenvalues --  -10.26282 -10.26230 -10.26155 -10.25971 -10.25909
 Alpha  occ. eigenvalues --  -10.25749 -10.25607 -10.25590 -10.25495 -10.25161
 Alpha  occ. eigenvalues --  -10.25052 -10.24885 -10.24799 -10.24669 -10.24600
 Alpha  occ. eigenvalues --  -10.24439 -10.24435 -10.23789 -10.22829 -10.22285
 Alpha  occ. eigenvalues --   -3.13495  -1.88204  -1.87721  -1.87684  -1.19908
 Alpha  occ. eigenvalues --   -1.17600  -1.11345  -1.10564  -1.08138  -1.05298
 Alpha  occ. eigenvalues --   -1.03904  -1.03301  -1.02443  -0.92823  -0.92320
 Alpha  occ. eigenvalues --   -0.91538  -0.90446  -0.89897  -0.89627  -0.88808
 Alpha  occ. eigenvalues --   -0.88764  -0.87884  -0.87405  -0.86851  -0.86551
 Alpha  occ. eigenvalues --   -0.85378  -0.84473  -0.83916  -0.83372  -0.82875
 Alpha  occ. eigenvalues --   -0.82195  -0.81136  -0.80966  -0.80164  -0.78563
 Alpha  occ. eigenvalues --   -0.78179  -0.77114  -0.76696  -0.76285  -0.75891
 Alpha  occ. eigenvalues --   -0.75599  -0.75259  -0.74417  -0.74243  -0.72346
 Alpha  occ. eigenvalues --   -0.71492  -0.70008  -0.69473  -0.69146  -0.68165
 Alpha  occ. eigenvalues --   -0.66954  -0.65978  -0.65842  -0.64704  -0.64656
 Alpha  occ. eigenvalues --   -0.64175  -0.63275  -0.62935  -0.61751  -0.61074
 Alpha  occ. eigenvalues --   -0.60880  -0.60764  -0.60371  -0.59870  -0.58715
 Alpha  occ. eigenvalues --   -0.58230  -0.57983  -0.57539  -0.57375  -0.57254
 Alpha  occ. eigenvalues --   -0.56856  -0.56216  -0.55868  -0.55474  -0.55435
 Alpha  occ. eigenvalues --   -0.54854  -0.54710  -0.54445  -0.54300  -0.53679
 Alpha  occ. eigenvalues --   -0.53156  -0.53085  -0.52658  -0.52544  -0.51986
 Alpha  occ. eigenvalues --   -0.51946  -0.51582  -0.51325  -0.51130  -0.51075
 Alpha  occ. eigenvalues --   -0.50808  -0.50592  -0.50200  -0.49932  -0.49824
 Alpha  occ. eigenvalues --   -0.49564  -0.49468  -0.49266  -0.48863  -0.48816
 Alpha  occ. eigenvalues --   -0.48201  -0.47923  -0.47828  -0.47471  -0.47124
 Alpha  occ. eigenvalues --   -0.46956  -0.46782  -0.46610  -0.46304  -0.46141
 Alpha  occ. eigenvalues --   -0.45643  -0.45599  -0.45429  -0.45301  -0.44929
 Alpha  occ. eigenvalues --   -0.44745  -0.44462  -0.44269  -0.44133  -0.44060
 Alpha  occ. eigenvalues --   -0.43988  -0.43875  -0.43770  -0.43627  -0.43274
 Alpha  occ. eigenvalues --   -0.42999  -0.42898  -0.42882  -0.42670  -0.42247
 Alpha  occ. eigenvalues --   -0.41765  -0.41717  -0.41558  -0.41525  -0.41401
 Alpha  occ. eigenvalues --   -0.41068  -0.40706  -0.40627  -0.40533  -0.40186
 Alpha  occ. eigenvalues --   -0.39745  -0.39725  -0.39603  -0.39391  -0.39052
 Alpha  occ. eigenvalues --   -0.38902  -0.38701  -0.38359  -0.37982  -0.37903
 Alpha  occ. eigenvalues --   -0.37526  -0.37200  -0.37087  -0.36905  -0.36636
 Alpha  occ. eigenvalues --   -0.36543  -0.35933  -0.35838  -0.35819  -0.35391
 Alpha  occ. eigenvalues --   -0.35323  -0.35017  -0.34921  -0.34028  -0.33524
 Alpha  occ. eigenvalues --   -0.33072  -0.32765  -0.32116  -0.31146  -0.30415
 Alpha  occ. eigenvalues --   -0.29230  -0.28916  -0.28617  -0.27679  -0.22547
 Alpha  occ. eigenvalues --   -0.21158
 Alpha virt. eigenvalues --   -0.06387  -0.02916   0.02130   0.04765   0.06072
 Alpha virt. eigenvalues --    0.06436   0.06647   0.06797   0.07541   0.08137
 Alpha virt. eigenvalues --    0.08869   0.10281   0.11119   0.11256   0.11531

 Mulliken charges:
               1
     1  Mg   0.823781
     2  C    0.059321
     3  C   -0.222142
     4  C   -0.213903
     5  C   -0.182968
     6  N   -0.633044
     7  C    0.292806
     8  C   -0.152903
     9  C   -0.159629
    10  C    0.372264
    11  C   -0.303375
    12  C   -0.165903
    13  C   -0.288112
    14  C    0.628433
    15  O   -0.461599
    16  O   -0.447524
    17  N   -0.707099
    18  C    0.267510
    19  C    0.058641
    20  C   -0.015442
    21  C    0.342880
    22  C   -0.353504
    23  C   -0.110526
    24  C   -0.200555
    25  N   -0.674077
    26  C    0.326091
    27  C    0.012779
    28  C    0.067230
    29  C    0.297007
    30  C   -0.345758
    31  C   -0.268990
    32  C   -0.289360
    33  N   -0.727885
    34  C    0.272663
    35  C   -0.011158
    36  C    0.011560
    37  C    0.317338
    38  C   -0.366477
    39  C    0.333346
    40  O   -0.466139
    41  C   -0.338964
    42  C    0.632929
    43  O   -0.485594
    44  O   -0.463580
    45  C   -0.073458
    46  C   -0.014507
    47  C   -0.116310
    48  C    0.130129
    49  C   -0.369044
    50  C   -0.230659
    51  C   -0.165754
    52  C   -0.168540
    53  C   -0.085287
    54  C   -0.312389
    55  C   -0.119345
    56  C   -0.190340
    57  C   -0.158020
    58  C   -0.089419
    59  C   -0.291527
    60  C   -0.153529
    61  C   -0.174542
    62  C   -0.145939
    63  C   -0.067902
    64  C   -0.281949
    65  C   -0.286735
    66  H    0.052714
    67  H    0.082750
    68  H    0.095292
    69  H    0.129180
    70  H    0.120243
    71  H    0.098469
    72  H    0.090033
    73  H    0.134809
    74  H    0.112308
    75  H    0.100570
    76  H    0.123223
    77  H    0.123757
    78  H    0.118158
    79  H    0.133201
    80  H    0.122187
    81  H    0.084876
    82  H    0.107522
    83  H    0.099195
    84  H    0.102293
    85  H    0.113460
    86  H    0.078165
    87  H    0.108807
    88  H    0.077599
    89  H    0.106982
    90  H    0.103459
    91  H    0.120979
    92  H    0.135684
    93  H    0.135819
    94  H    0.136678
    95  H    0.161436
    96  H    0.135587
    97  H    0.133905
    98  H    0.119254
    99  H    0.135621
   100  H    0.136641
   101  H    0.070129
   102  H    0.109533
   103  H    0.125287
   104  H    0.126663
   105  H    0.063593
   106  H    0.090690
   107  H    0.102239
   108  H    0.110536
   109  H    0.095029
   110  H    0.091223
   111  H    0.053996
   112  H    0.107223
   113  H    0.088703
   114  H    0.106831
   115  H    0.081172
   116  H    0.060994
   117  H    0.107177
   118  H    0.089440
   119  H    0.101406
   120  H    0.067544
   121  H    0.072636
   122  H    0.110105
   123  H    0.087555
   124  H    0.103621
   125  H    0.088227
   126  H    0.094394
   127  H    0.064483
   128  H    0.070973
   129  H    0.107962
   130  H    0.078181
   131  H    0.069385
   132  H    0.065713
   133  H    0.108004
   134  H    0.086366
   135  H    0.111698
   136  H    0.082547
   137  H    0.082582
 Sum of Mulliken charges =   0.00000

 Dipole moment (field-independent basis, Debye):
    X=              3.0940    Y=              4.5786    Z=              0.0073  Tot=              5.5260
 Quadrupole moment (field-independent basis, Debye-Ang):
   XX=           -362.0180   YY=           -393.5488   ZZ=           -398.6381
   XY=            -22.4191   XZ=              9.3352   YZ=             -0.5053

 Normal termination of Gaussian 09 at Fri Jun 28 02:25:55 2019.
