 Gaussian 09, Revision D.01,
 Gaussian 09:  ES64L-G09RevD.01 24-Apr-2013

 -------------------------------------
 # td=(NStates=1) CAM-B3LYP/6-31G(d,p)
 -------------------------------------

 --
 TD
 --
 Symbolic Z-matrix:
 Charge =  0 Multiplicity = 1

                         Standard orientation:
 ---------------------------------------------------------------------
 Center     Atomic      Atomic             Coordinates (Angstroms)
 Number     Number       Type             X           Y           Z
 ---------------------------------------------------------------------
      1         12           0       -7.194765    0.660237    0.145190
      2          6           0       -4.882505   -1.953764    0.396149
      3          6           0       -4.685255    2.813623    1.079130
      4          6           0       -9.379748    3.071625   -0.330728
      5          6           0       -9.545104   -1.751114   -0.802609
      6          7           0       -5.082673    0.459391    0.634464
      7          6           0       -4.354265   -0.717441    0.742945
      8          6           0       -2.938789   -0.410941    1.110760
      9          6           0       -2.985865    1.022549    1.641469
     10          6           0       -4.311118    1.516727    1.004283
     11          6           0       -2.996388    1.192410    3.162057
     12          6           0       -1.870618   -0.614004   -0.030450
     13          6           0       -0.502221   -0.417333    0.308883
     14          6           0        0.548675   -0.727788   -0.782191
     15          8           0        0.246899   -0.999590   -1.966656
     16          8           0        1.718410   -0.634683   -0.348676
     17          7           0       -7.141231    2.589168    0.482028
     18          6           0       -6.031309    3.288010    0.870044
     19          6           0       -6.413746    4.717530    0.742089
     20          6           0       -7.694494    4.815990    0.388174
     21          6           0       -8.221648    3.446608    0.270549
     22          6           0       -5.481203    5.790157    1.316979
     23          6           0       -8.522679    5.996944    0.278540
     24          6           0       -8.077189    7.227628    0.207851
     25          7           0       -9.111304    0.666650   -0.552843
     26          6           0       -9.836870    1.841497   -0.668113
     27          6           0      -11.266864    1.495687   -1.056859
     28          6           0      -11.261022    0.168242   -1.115736
     29          6           0       -9.960004   -0.388175   -0.786347
     30          6           0      -12.279466    2.553434   -1.204936
     31          6           0      -12.496317   -0.668286   -1.544380
     32          6           0      -12.532977   -0.905489   -3.011182
     33          7           0       -7.207050   -1.396988   -0.148830
     34          6           0       -8.277777   -2.214639   -0.514854
     35          6           0       -7.892906   -3.554493   -0.468294
     36          6           0       -6.539632   -3.494467   -0.117479
     37          6           0       -6.199749   -2.177243    0.045646
     38          6           0       -8.792188   -4.756440   -0.765615
     39          6           0       -5.411292   -4.394461    0.294132
     40          8           0       -5.280531   -5.623146    0.422714
     41          6           0       -4.261739   -3.349066    0.509130
     42          6           0       -3.573291   -3.637501    1.800011
     43          8           0       -3.807064   -3.141565    2.863072
     44          8           0       -2.640401   -4.620786    1.668649
     45          6           0       -2.056387   -5.028781    2.909063
     46          6           0        2.784428   -0.777868   -1.342628
     47          6           0        4.135650   -0.632192   -0.584711
     48          6           0        5.071912    0.218416   -1.017379
     49          6           0        5.015376    0.920691   -2.383842
     50          6           0        6.411321    0.330086   -0.237714
     51          6           0        7.695455   -0.104009   -1.081257
     52          6           0        8.914863   -0.210868   -0.184520
     53          6           0       10.239202   -0.622240   -0.920436
     54          6           0       10.128960   -2.171274   -1.262694
     55          6           0       11.418914   -0.190162   -0.064669
     56          6           0       12.831009   -0.587197   -0.681835
     57          6           0       13.973076   -0.148700    0.226329
     58          6           0       15.402052   -0.136736   -0.433855
     59          6           0       15.811423   -1.538373   -0.801039
     60          6           0       16.452453    0.567965    0.504921
     61          6           0       17.821845    0.705160   -0.128229
     62          6           0       18.736143    1.345973    0.809904
     63          6           0       20.189713    1.370390    0.337630
     64          6           0       20.485822    2.155335   -0.944099
     65          6           0       21.097475    1.920653    1.393572
     66          1           0       -4.126204    3.652686    1.461061
     67          1           0      -10.136308    3.768139   -0.497070
     68          1           0      -10.437223   -2.480727   -0.996151
     69          1           0       -2.703718   -0.981158    1.962394
     70          1           0       -2.139633    1.732226    1.295633
     71          1           0       -2.000989    0.724881    3.308019
     72          1           0       -3.137312    2.134049    3.537926
     73          1           0       -3.736058    0.649726    3.729608
     74          1           0       -1.837056   -1.590122   -0.487749
     75          1           0       -2.073280    0.003816   -0.811461
     76          1           0       -0.236339    0.576239    0.748746
     77          1           0       -0.321132   -0.983437    1.137712
     78          1           0       -4.581061    6.068284    0.605383
     79          1           0       -6.113062    6.560453    1.570852
     80          1           0       -4.932281    5.597889    2.312422
     81          1           0       -9.658629    5.855111    0.186470
     82          1           0       -8.778091    8.023876    0.239873
     83          1           0       -6.947296    7.675567    0.202715
     84          1           0      -12.054228    3.201720   -2.104071
     85          1           0      -13.470657    2.318058   -1.432078
     86          1           0      -12.479186    3.421682   -0.417878
     87          1           0      -12.395269   -1.686290   -0.984823
     88          1           0      -13.516261   -0.026824   -1.286911
     89          1           0      -13.289427   -1.677316   -3.355875
     90          1           0      -12.828007   -0.022627   -3.649027
     91          1           0      -11.659402   -1.505444   -3.376982
     92          1           0       -9.247963   -4.686108   -1.632429
     93          1           0       -7.999735   -5.641036   -0.714939
     94          1           0       -9.438493   -4.923989    0.068034
     95          1           0       -3.517212   -3.482401   -0.332003
     96          1           0       -1.587670   -4.212692    3.624914
     97          1           0       -2.637843   -5.790956    3.482967
     98          1           0       -1.100795   -5.612729    2.618712
     99          1           0        2.633817   -1.678231   -1.770502
    100          1           0        2.725280   -0.127575   -2.077686
    101          1           0        4.446209   -1.177104    0.255998
    102          1           0        3.891369    1.213519   -2.830808
    103          1           0        5.429264    1.879610   -2.088501
    104          1           0        5.727401    0.534260   -2.981053
    105          1           0        6.806685    1.180263    0.219574
    106          1           0        6.245103   -0.435207    0.617275
    107          1           0        7.683057   -1.119344   -1.610759
    108          1           0        7.866283    0.717897   -1.878803
    109          1           0        9.208837    0.706459    0.002555
    110          1           0        8.676454   -0.740845    0.777366
    111          1           0       10.480858   -0.075060   -1.816427
    112          1           0        9.109380   -2.266096   -1.581196
    113          1           0       10.789206   -2.155227   -2.259979
    114          1           0       10.364378   -2.875846   -0.464776
    115          1           0       11.453204    0.824876    0.223594
    116          1           0       11.385059   -0.646485    1.064979
    117          1           0       12.759253   -1.640608   -1.125292
    118          1           0       12.775351    0.098297   -1.719087
    119          1           0       13.875259    0.908368    0.743907
    120          1           0       13.883383   -0.979430    1.054744
    121          1           0       15.233995    0.376682   -1.260183
    122          1           0       16.337594   -2.035996    0.140169
    123          1           0       14.734999   -2.165854   -1.121049
    124          1           0       16.611725   -1.357310   -1.726793
    125          1           0       16.024389    1.566991    0.746376
    126          1           0       16.554264   -0.120191    1.548697
    127          1           0       18.242715   -0.206058   -0.330801
    128          1           0       17.857104    1.349281   -1.119475
    129          1           0       18.584823    2.414859    0.935546
    130          1           0       18.642271    0.851381    1.875102
    131          1           0       20.579437    0.347594    0.044515
    132          1           0       20.375929    3.226584   -0.736954
    133          1           0       21.603799    1.783926   -1.163933
    134          1           0       19.952198    1.662334   -1.894602
    135          1           0       21.048500    1.257669    2.319119
    136          1           0       22.146508    1.876546    1.177127
    137          1           0       20.808116    3.098588    1.549855
 ---------------------------------------------------------------------

 SCF Done:  E(RCAM-B3LYP) =  -2932.69414810     A.U. after   15 cycles

 Excitation energies and oscillator strengths:

 Excited State   1:      Singlet-A      2.0848 eV  594.71 nm  f=0.2718  <S**2>=0.000
     240 -> 243       -0.24425
     241 -> 242        0.65712
 This state for optimization and/or second-order correction.
 Total Energy, E(TD-HF/TD-KS) =  -2932.61753310
 Copying the excited state density for this state as the 1-particle RhoCI density.

 The electronic state is 1-A.
 Alpha  occ. eigenvalues --  -46.83719 -19.27500 -19.25925 -19.20609 -19.20369
 Alpha  occ. eigenvalues --  -19.19091 -14.41274 -14.39793 -14.39658 -14.38467
 Alpha  occ. eigenvalues --  -10.38604 -10.38482 -10.35585 -10.31857 -10.31097
 Alpha  occ. eigenvalues --  -10.30642 -10.30365 -10.30283 -10.29395 -10.29165
 Alpha  occ. eigenvalues --  -10.29008 -10.28873 -10.28842 -10.28379 -10.28294
 Alpha  occ. eigenvalues --  -10.28251 -10.28187 -10.27917 -10.27890 -10.27682
 Alpha  occ. eigenvalues --  -10.27605 -10.27580 -10.27442 -10.27398 -10.27208
 Alpha  occ. eigenvalues --  -10.26916 -10.26915 -10.26845 -10.26824 -10.26775
 Alpha  occ. eigenvalues --  -10.26717 -10.26686 -10.26656 -10.26646 -10.26549
 Alpha  occ. eigenvalues --  -10.26448 -10.26234 -10.26198 -10.26092 -10.26012
 Alpha  occ. eigenvalues --  -10.26010 -10.25775 -10.25708 -10.25645 -10.25633
 Alpha  occ. eigenvalues --  -10.25534 -10.25494 -10.25474 -10.24898 -10.24840
 Alpha  occ. eigenvalues --  -10.24694 -10.24682 -10.24637 -10.24624 -10.24437
 Alpha  occ. eigenvalues --   -3.12866  -1.87572  -1.87106  -1.87046  -1.21294
 Alpha  occ. eigenvalues --   -1.18040  -1.09499  -1.09026  -1.06764  -1.05465
 Alpha  occ. eigenvalues --   -1.03580  -1.03002  -1.02091  -0.92671  -0.91541
 Alpha  occ. eigenvalues --   -0.91071  -0.90831  -0.89995  -0.89703  -0.89302
 Alpha  occ. eigenvalues --   -0.88609  -0.88296  -0.87657  -0.87325  -0.86546
 Alpha  occ. eigenvalues --   -0.85382  -0.84373  -0.83900  -0.83564  -0.82901
 Alpha  occ. eigenvalues --   -0.82469  -0.80865  -0.80817  -0.79982  -0.78672
 Alpha  occ. eigenvalues --   -0.78167  -0.77262  -0.77049  -0.75710  -0.75393
 Alpha  occ. eigenvalues --   -0.75210  -0.74430  -0.74055  -0.73454  -0.72964
 Alpha  occ. eigenvalues --   -0.71657  -0.70865  -0.68953  -0.68515  -0.68100
 Alpha  occ. eigenvalues --   -0.67063  -0.66426  -0.65723  -0.65229  -0.64876
 Alpha  occ. eigenvalues --   -0.64200  -0.64036  -0.63289  -0.62382  -0.61642
 Alpha  occ. eigenvalues --   -0.61573  -0.60743  -0.59980  -0.59756  -0.59556
 Alpha  occ. eigenvalues --   -0.58822  -0.58660  -0.58202  -0.57804  -0.57090
 Alpha  occ. eigenvalues --   -0.56634  -0.55730  -0.55174  -0.55054  -0.54719
 Alpha  occ. eigenvalues --   -0.54398  -0.54334  -0.54136  -0.53514  -0.53278
 Alpha  occ. eigenvalues --   -0.52844  -0.52673  -0.52286  -0.52074  -0.51811
 Alpha  occ. eigenvalues --   -0.51502  -0.51259  -0.51074  -0.50817  -0.50398
 Alpha  occ. eigenvalues --   -0.50288  -0.50182  -0.49891  -0.49650  -0.49576
 Alpha  occ. eigenvalues --   -0.49386  -0.49091  -0.49010  -0.48904  -0.48667
 Alpha  occ. eigenvalues --   -0.48426  -0.47946  -0.47761  -0.47500  -0.47244
 Alpha  occ. eigenvalues --   -0.47126  -0.46986  -0.46757  -0.46141  -0.45833
 Alpha  occ. eigenvalues --   -0.45672  -0.45617  -0.45472  -0.45250  -0.44899
 Alpha  occ. eigenvalues --   -0.44774  -0.44709  -0.44442  -0.44234  -0.44170
 Alpha  occ. eigenvalues --   -0.43693  -0.43576  -0.43338  -0.43043  -0.42934
 Alpha  occ. eigenvalues --   -0.42797  -0.42747  -0.42434  -0.42282  -0.42234
 Alpha  occ. eigenvalues --   -0.42078  -0.41796  -0.41494  -0.41356  -0.41171
 Alpha  occ. eigenvalues --   -0.40941  -0.40739  -0.40586  -0.40338  -0.40253
 Alpha  occ. eigenvalues --   -0.39910  -0.39867  -0.39852  -0.39087  -0.38940
 Alpha  occ. eigenvalues --   -0.38842  -0.38796  -0.38181  -0.38033  -0.37610
 Alpha  occ. eigenvalues --   -0.37537  -0.37413  -0.37190  -0.37078  -0.36565
 Alpha  occ. eigenvalues --   -0.36411  -0.36159  -0.35932  -0.35759  -0.35703
 Alpha  occ. eigenvalues --   -0.35474  -0.35426  -0.34815  -0.33624  -0.33524
 Alpha  occ. eigenvalues --   -0.33150  -0.32649  -0.32549  -0.31199  -0.30370
 Alpha  occ. eigenvalues --   -0.30040  -0.29631  -0.28833  -0.28012  -0.23261
 Alpha  occ. eigenvalues --   -0.21471
 Alpha virt. eigenvalues --   -0.06605  -0.02583   0.01735   0.04389   0.06051
 Alpha virt. eigenvalues --    0.06273   0.06618   0.06958   0.07378   0.07847
 Alpha virt. eigenvalues --    0.08487   0.10347   0.11152   0.11430   0.11597

 Mulliken charges:
               1
     1  Mg   0.820765
     2  C    0.071097
     3  C   -0.192507
     4  C   -0.133842
     5  C   -0.176709
     6  N   -0.642235
     7  C    0.306985
     8  C   -0.168486
     9  C   -0.161402
    10  C    0.368341
    11  C   -0.299277
    12  C   -0.155059
    13  C   -0.271761
    14  C    0.591712
    15  O   -0.530145
    16  O   -0.419330
    17  N   -0.728550
    18  C    0.307485
    19  C   -0.017418
    20  C    0.047416
    21  C    0.285798
    22  C   -0.375262
    23  C   -0.068334
    24  C   -0.253701
    25  N   -0.702016
    26  C    0.255375
    27  C    0.113016
    28  C   -0.005868
    29  C    0.296340
    30  C   -0.410538
    31  C   -0.223068
    32  C   -0.297759
    33  N   -0.734394
    34  C    0.269784
    35  C    0.016575
    36  C   -0.051786
    37  C    0.349424
    38  C   -0.359135
    39  C    0.400274
    40  O   -0.476404
    41  C   -0.325992
    42  C    0.628270
    43  O   -0.469463
    44  O   -0.449133
    45  C   -0.085298
    46  C    0.036355
    47  C   -0.145806
    48  C    0.117813
    49  C   -0.366227
    50  C   -0.231381
    51  C   -0.192175
    52  C   -0.171788
    53  C   -0.077823
    54  C   -0.302613
    55  C   -0.169154
    56  C   -0.180721
    57  C   -0.172784
    58  C   -0.033342
    59  C   -0.279291
    60  C   -0.170703
    61  C   -0.160157
    62  C   -0.140954
    63  C   -0.075401
    64  C   -0.290741
    65  C   -0.286357
    66  H    0.084007
    67  H    0.075697
    68  H    0.099417
    69  H    0.121811
    70  H    0.097756
    71  H    0.103997
    72  H    0.118740
    73  H    0.126646
    74  H    0.120022
    75  H    0.124190
    76  H    0.114813
    77  H    0.131612
    78  H    0.107624
    79  H    0.123986
    80  H    0.108621
    81  H    0.097393
    82  H    0.099841
    83  H    0.105606
    84  H    0.126781
    85  H    0.097754
    86  H    0.115354
    87  H    0.090853
    88  H    0.087177
    89  H    0.093153
    90  H    0.110273
    91  H    0.105478
    92  H    0.133635
    93  H    0.134144
    94  H    0.136076
    95  H    0.166434
    96  H    0.116009
    97  H    0.132554
    98  H    0.105321
    99  H    0.142157
   100  H    0.122646
   101  H    0.088342
   102  H    0.104075
   103  H    0.116650
   104  H    0.145860
   105  H    0.119776
   106  H    0.086287
   107  H    0.090205
   108  H    0.084360
   109  H    0.102615
   110  H    0.095298
   111  H    0.095536
   112  H    0.103068
   113  H    0.084261
   114  H    0.116390
   115  H    0.103565
   116  H    0.051544
   117  H    0.109721
   118  H    0.044684
   119  H    0.078746
   120  H    0.081208
   121  H    0.100955
   122  H    0.092007
   123  H    0.073124
   124  H    0.080423
   125  H    0.089849
   126  H    0.063380
   127  H    0.108464
   128  H    0.081311
   129  H    0.084659
   130  H    0.073726
   131  H    0.073917
   132  H    0.104202
   133  H    0.087169
   134  H    0.087717
   135  H    0.092230
   136  H    0.104986
   137  H    0.071570
 Sum of Mulliken charges =   0.00000

 Dipole moment (field-independent basis, Debye):
    X=              2.5603    Y=              5.8239    Z=              0.7003  Tot=              6.4003
 Quadrupole moment (field-independent basis, Debye-Ang):
   XX=           -325.8215   YY=           -397.7545   ZZ=           -401.7283
   XY=            -23.7992   XZ=              7.5173   YZ=              0.7131

 Normal termination of Gaussian 09 at Mon Jul  1 07:36:44 2019.
