 Gaussian 09, Revision D.01,
 Gaussian 09:  ES64L-G09RevD.01 24-Apr-2013

 -------------------------------------
 # td=(NStates=1) CAM-B3LYP/6-31G(d,p)
 -------------------------------------

 --
 TD
 --
 Symbolic Z-matrix:
 Charge =  0 Multiplicity = 1

                         Standard orientation:
 ---------------------------------------------------------------------
 Center     Atomic      Atomic             Coordinates (Angstroms)
 Number     Number       Type             X           Y           Z
 ---------------------------------------------------------------------
      1         12           0       -7.165005    0.642437    0.121443
      2          6           0       -4.807964   -1.968022    0.497073
      3          6           0       -4.796462    2.854395    1.117174
      4          6           0       -9.429754    3.106055   -0.251797
      5          6           0       -9.569642   -1.721252   -0.843452
      6          7           0       -5.080092    0.411158    0.603469
      7          6           0       -4.294117   -0.743757    0.773962
      8          6           0       -2.837374   -0.438714    1.243678
      9          6           0       -3.052163    1.091848    1.740010
     10          6           0       -4.353012    1.497966    1.070982
     11          6           0       -2.930604    1.129110    3.245747
     12          6           0       -1.936901   -0.667804    0.000782
     13          6           0       -0.506713   -0.428740    0.482300
     14          6           0        0.501486   -0.645258   -0.660346
     15          8           0        0.235416   -1.141676   -1.750750
     16          8           0        1.766459   -0.320632   -0.323935
     17          7           0       -7.119430    2.634701    0.313526
     18          6           0       -6.117599    3.379867    0.816509
     19          6           0       -6.502937    4.697275    0.911004
     20          6           0       -7.743466    4.866100    0.415128
     21          6           0       -8.146459    3.480861    0.116671
     22          6           0       -5.552276    5.841626    1.245692
     23          6           0       -8.543571    6.005439    0.408012
     24          6           0       -8.328497    7.256662    0.027555
     25          7           0       -9.135508    0.726956   -0.444035
     26          6           0       -9.906763    1.803395   -0.599910
     27          6           0      -11.269645    1.449675   -1.026909
     28          6           0      -11.213587    0.116792   -1.187334
     29          6           0       -9.974614   -0.424575   -0.804139
     30          6           0      -12.408615    2.350637   -1.225919
     31          6           0      -12.286075   -0.810890   -1.823444
     32          6           0      -11.941651   -1.258357   -3.253772
     33          7           0       -7.253864   -1.343177   -0.171715
     34          6           0       -8.331009   -2.191081   -0.482512
     35          6           0       -7.768825   -3.537798   -0.559468
     36          6           0       -6.443489   -3.543809   -0.173024
     37          6           0       -6.218245   -2.085083    0.125289
     38          6           0       -8.672488   -4.873921   -0.819508
     39          6           0       -5.270902   -4.342824    0.131122
     40          8           0       -5.179572   -5.549368   -0.028404
     41          6           0       -4.178890   -3.300678    0.640551
     42          6           0       -3.588562   -3.727872    1.850961
     43          8           0       -3.671166   -3.197926    2.963111
     44          8           0       -2.827232   -4.824174    1.721278
     45          6           0       -2.085517   -5.180176    2.952735
     46          6           0        2.774863   -0.640764   -1.243725
     47          6           0        4.127226   -0.392066   -0.552465
     48          6           0        5.142661    0.522422   -0.953567
     49          6           0        5.066759    1.413628   -2.152297
     50          6           0        6.450239    0.553674   -0.177675
     51          6           0        7.636151   -0.063841   -0.866718
     52          6           0        8.888495   -0.097182   -0.101352
     53          6           0       10.206958   -0.508464   -0.881875
     54          6           0        9.979262   -2.029785   -1.397486
     55          6           0       11.457315   -0.171443   -0.097194
     56          6           0       12.844006   -0.445241   -0.661940
     57          6           0       13.952069   -0.089304    0.319737
     58          6           0       15.319719   -0.210774   -0.382529
     59          6           0       15.587084   -1.581075   -0.745211
     60          6           0       16.381663    0.389503    0.569226
     61          6           0       17.773150    0.495329   -0.132411
     62          6           0       18.818868    1.248599    0.696306
     63          6           0       20.281541    1.236738    0.165871
     64          6           0       20.290573    1.950203   -1.235755
     65          6           0       21.089186    1.943389    1.241593
     66          1           0       -4.133530    3.529031    1.601329
     67          1           0      -10.170148    3.992231   -0.187357
     68          1           0      -10.533827   -2.303346   -0.945844
     69          1           0       -2.714631   -1.200401    2.048548
     70          1           0       -2.089815    1.476060    1.248011
     71          1           0       -2.013391    0.843680    3.587233
     72          1           0       -3.040340    2.221525    3.580094
     73          1           0       -3.602645    0.517009    3.897250
     74          1           0       -2.023434   -1.699970   -0.402560
     75          1           0       -2.159339    0.015035   -0.760338
     76          1           0       -0.454904    0.511222    0.707837
     77          1           0       -0.115385   -1.136412    1.256303
     78          1           0       -4.786999    6.176252    0.504182
     79          1           0       -6.025352    6.773284    1.617575
     80          1           0       -4.878042    5.617287    2.121418
     81          1           0       -9.663284    5.819894    0.467488
     82          1           0       -8.885440    7.953398   -0.095958
     83          1           0       -7.395087    7.536056   -0.137577
     84          1           0      -12.115914    3.027972   -2.088289
     85          1           0      -13.147766    1.861537   -1.611615
     86          1           0      -12.928200    3.203995   -0.435911
     87          1           0      -12.392773   -1.823677   -1.299599
     88          1           0      -13.344515   -0.294241   -1.506085
     89          1           0      -12.754207   -1.890135   -3.619300
     90          1           0      -11.930656   -0.388889   -3.943496
     91          1           0      -11.087273   -2.058528   -3.199189
     92          1           0       -9.225860   -4.750408   -1.867995
     93          1           0       -7.914522   -5.675051   -1.081884
     94          1           0       -9.284884   -4.940862    0.060730
     95          1           0       -3.512653   -3.493026   -0.113566
     96          1           0       -1.462026   -4.348007    3.279485
     97          1           0       -2.732828   -5.398338    3.768416
     98          1           0       -1.617167   -6.076208    2.676018
     99          1           0        2.944914   -1.818537   -1.495985
    100          1           0        2.643336    0.033809   -2.187066
    101          1           0        4.466518   -0.974647    0.283890
    102          1           0        3.930067    1.402397   -2.653695
    103          1           0        5.393248    2.559420   -1.933429
    104          1           0        5.866178    1.044300   -2.800805
    105          1           0        6.819373    1.613513   -0.026321
    106          1           0        6.331087    0.122640    0.889307
    107          1           0        7.209420   -1.047209   -1.187117
    108          1           0        8.000913    0.250237   -1.831860
    109          1           0        9.095602    1.014110    0.189907
    110          1           0        8.897348   -0.798095    0.769034
    111          1           0       10.059630    0.014414   -1.793976
    112          1           0        8.992297   -2.086548   -2.066851
    113          1           0       10.884180   -2.182032   -1.988308
    114          1           0        9.818001   -2.803308   -0.525855
    115          1           0       11.522968    0.743339    0.147529
    116          1           0       11.297086   -0.759531    0.890904
    117          1           0       12.972520   -1.602873   -0.971875
    118          1           0       12.760829   -0.053389   -1.709336
    119          1           0       13.919549    0.944823    0.628600
    120          1           0       14.023420   -0.874364    0.991283
    121          1           0       15.334389    0.406194   -1.343434
    122          1           0       15.617059   -2.115362    0.044844
    123          1           0       14.875125   -2.025386   -1.282997
    124          1           0       16.561137   -1.704779   -1.264418
    125          1           0       16.262783    1.296476    0.785044
    126          1           0       16.725638   -0.335921    1.461023
    127          1           0       18.381854   -0.530284   -0.222984
    128          1           0       17.699107    0.920738   -1.123346
    129          1           0       18.532667    2.411046    0.885183
    130          1           0       19.031594    0.767228    1.536342
    131          1           0       20.565272    0.149944   -0.052696
    132          1           0       20.005380    3.041432   -1.057352
    133          1           0       21.274848    1.926616   -1.437638
    134          1           0       19.361879    1.583072   -1.785791
    135          1           0       21.188054    1.228368    2.109435
    136          1           0       22.315425    1.832893    1.022648
    137          1           0       20.701903    2.996942    1.694758
 ---------------------------------------------------------------------

 SCF Done:  E(RCAM-B3LYP) =  -2932.60969616     A.U. after   18 cycles

 Excitation energies and oscillator strengths:

 Excited State   1:      Singlet-A      2.0667 eV  599.91 nm  f=0.2240  <S**2>=0.000
     240 -> 242       -0.14733
     240 -> 243        0.22287
     241 -> 242        0.64101
 This state for optimization and/or second-order correction.
 Total Energy, E(TD-HF/TD-KS) =  -2932.53374622
 Copying the excited state density for this state as the 1-particle RhoCI density.

 The electronic state is 1-A.
 Alpha  occ. eigenvalues --  -46.84077 -19.26757 -19.25808 -19.20675 -19.20598
 Alpha  occ. eigenvalues --  -19.19757 -14.41631 -14.40000 -14.39565 -14.39348
 Alpha  occ. eigenvalues --  -10.39168 -10.38500 -10.35649 -10.33912 -10.31910
 Alpha  occ. eigenvalues --  -10.30437 -10.30125 -10.30048 -10.29650 -10.29544
 Alpha  occ. eigenvalues --  -10.29313 -10.28943 -10.28925 -10.28603 -10.28345
 Alpha  occ. eigenvalues --  -10.28215 -10.28154 -10.27856 -10.27813 -10.27736
 Alpha  occ. eigenvalues --  -10.27688 -10.27570 -10.27445 -10.27413 -10.27109
 Alpha  occ. eigenvalues --  -10.27040 -10.27006 -10.26931 -10.26664 -10.26602
 Alpha  occ. eigenvalues --  -10.26558 -10.26513 -10.26465 -10.26455 -10.26428
 Alpha  occ. eigenvalues --  -10.26412 -10.26364 -10.26134 -10.26080 -10.26069
 Alpha  occ. eigenvalues --  -10.25954 -10.25860 -10.25749 -10.25659 -10.25592
 Alpha  occ. eigenvalues --  -10.25421 -10.25039 -10.24881 -10.24627 -10.24618
 Alpha  occ. eigenvalues --  -10.24337 -10.24154 -10.23880 -10.23694 -10.21208
 Alpha  occ. eigenvalues --   -3.13207  -1.87908  -1.87423  -1.87416  -1.18869
 Alpha  occ. eigenvalues --   -1.17637  -1.10930  -1.08754  -1.07038  -1.05771
 Alpha  occ. eigenvalues --   -1.04015  -1.02158  -1.01642  -0.93182  -0.91877
 Alpha  occ. eigenvalues --   -0.90953  -0.90770  -0.90361  -0.89533  -0.89310
 Alpha  occ. eigenvalues --   -0.88468  -0.87925  -0.87406  -0.86639  -0.85869
 Alpha  occ. eigenvalues --   -0.85364  -0.84668  -0.84115  -0.83452  -0.83115
 Alpha  occ. eigenvalues --   -0.82074  -0.81278  -0.80702  -0.80034  -0.78227
 Alpha  occ. eigenvalues --   -0.77870  -0.77465  -0.76895  -0.76747  -0.75684
 Alpha  occ. eigenvalues --   -0.74968  -0.74902  -0.74687  -0.73328  -0.72612
 Alpha  occ. eigenvalues --   -0.71713  -0.70970  -0.69985  -0.69033  -0.68972
 Alpha  occ. eigenvalues --   -0.68418  -0.66404  -0.65458  -0.64684  -0.64530
 Alpha  occ. eigenvalues --   -0.63927  -0.63716  -0.62879  -0.62599  -0.62048
 Alpha  occ. eigenvalues --   -0.61086  -0.61023  -0.60610  -0.60064  -0.59403
 Alpha  occ. eigenvalues --   -0.58987  -0.58453  -0.58159  -0.57556  -0.57195
 Alpha  occ. eigenvalues --   -0.56299  -0.56032  -0.55555  -0.55376  -0.55226
 Alpha  occ. eigenvalues --   -0.54460  -0.54284  -0.54148  -0.53848  -0.53820
 Alpha  occ. eigenvalues --   -0.53221  -0.53019  -0.52786  -0.52162  -0.51815
 Alpha  occ. eigenvalues --   -0.51556  -0.51321  -0.51148  -0.51022  -0.50698
 Alpha  occ. eigenvalues --   -0.50656  -0.50428  -0.50223  -0.50001  -0.49570
 Alpha  occ. eigenvalues --   -0.49269  -0.49086  -0.48854  -0.48755  -0.48584
 Alpha  occ. eigenvalues --   -0.48319  -0.48238  -0.47499  -0.47222  -0.47037
 Alpha  occ. eigenvalues --   -0.46812  -0.46249  -0.46150  -0.46125  -0.45956
 Alpha  occ. eigenvalues --   -0.45842  -0.45497  -0.45414  -0.45198  -0.44958
 Alpha  occ. eigenvalues --   -0.44874  -0.44723  -0.44655  -0.44430  -0.44240
 Alpha  occ. eigenvalues --   -0.43902  -0.43704  -0.43472  -0.43424  -0.43244
 Alpha  occ. eigenvalues --   -0.43077  -0.42974  -0.42809  -0.42732  -0.42531
 Alpha  occ. eigenvalues --   -0.42258  -0.41988  -0.41741  -0.41717  -0.41590
 Alpha  occ. eigenvalues --   -0.41327  -0.41310  -0.41112  -0.40692  -0.40639
 Alpha  occ. eigenvalues --   -0.39998  -0.39944  -0.39580  -0.39344  -0.38775
 Alpha  occ. eigenvalues --   -0.38738  -0.38176  -0.38106  -0.37914  -0.37713
 Alpha  occ. eigenvalues --   -0.37536  -0.37119  -0.36989  -0.36601  -0.36453
 Alpha  occ. eigenvalues --   -0.36327  -0.36064  -0.36031  -0.35615  -0.35589
 Alpha  occ. eigenvalues --   -0.35301  -0.35133  -0.34475  -0.33656  -0.33197
 Alpha  occ. eigenvalues --   -0.33011  -0.32940  -0.32294  -0.31277  -0.30240
 Alpha  occ. eigenvalues --   -0.29813  -0.28485  -0.28373  -0.28216  -0.23180
 Alpha  occ. eigenvalues --   -0.21434
 Alpha virt. eigenvalues --   -0.06514  -0.02886   0.01785   0.03935   0.05169
 Alpha virt. eigenvalues --    0.05862   0.06065   0.06553   0.06890   0.07053
 Alpha virt. eigenvalues --    0.08423   0.10693   0.11183   0.11459   0.11829

 Mulliken charges:
               1
     1  Mg   0.820404
     2  C    0.030866
     3  C   -0.207188
     4  C   -0.180877
     5  C   -0.151506
     6  N   -0.636769
     7  C    0.280964
     8  C   -0.171633
     9  C   -0.145769
    10  C    0.347047
    11  C   -0.304565
    12  C   -0.174823
    13  C   -0.243685
    14  C    0.573334
    15  O   -0.475648
    16  O   -0.446197
    17  N   -0.722948
    18  C    0.334582
    19  C    0.012842
    20  C    0.070887
    21  C    0.304125
    22  C   -0.385574
    23  C   -0.126014
    24  C   -0.186117
    25  N   -0.690350
    26  C    0.297274
    27  C    0.043094
    28  C    0.034733
    29  C    0.258241
    30  C   -0.361127
    31  C   -0.257014
    32  C   -0.300596
    33  N   -0.718480
    34  C    0.263003
    35  C   -0.064976
    36  C    0.032593
    37  C    0.343721
    38  C   -0.354422
    39  C    0.345847
    40  O   -0.452550
    41  C   -0.309362
    42  C    0.639842
    43  O   -0.516079
    44  O   -0.465334
    45  C   -0.077884
    46  C    0.029421
    47  C   -0.145135
    48  C    0.120152
    49  C   -0.348035
    50  C   -0.228133
    51  C   -0.170647
    52  C   -0.159351
    53  C   -0.093933
    54  C   -0.305737
    55  C   -0.138200
    56  C   -0.198022
    57  C   -0.159553
    58  C   -0.078496
    59  C   -0.302584
    60  C   -0.138311
    61  C   -0.202226
    62  C   -0.150252
    63  C   -0.072117
    64  C   -0.292374
    65  C   -0.303374
    66  H    0.076557
    67  H    0.091420
    68  H    0.101332
    69  H    0.134297
    70  H    0.097372
    71  H    0.124781
    72  H    0.092853
    73  H    0.129561
    74  H    0.128366
    75  H    0.128933
    76  H    0.138711
    77  H    0.139366
    78  H    0.126626
    79  H    0.115966
    80  H    0.103729
    81  H    0.082205
    82  H    0.091840
    83  H    0.095720
    84  H    0.113307
    85  H    0.120386
    86  H    0.092733
    87  H    0.099194
    88  H    0.085904
    89  H    0.109509
    90  H    0.118773
    91  H    0.111548
    92  H    0.099109
    93  H    0.145854
    94  H    0.140978
    95  H    0.183656
    96  H    0.127698
    97  H    0.141719
    98  H    0.129957
    99  H    0.113288
   100  H    0.111251
   101  H    0.089676
   102  H    0.091067
   103  H    0.099697
   104  H    0.131349
   105  H    0.090661
   106  H    0.100712
   107  H    0.089376
   108  H    0.094424
   109  H    0.070563
   110  H    0.086786
   111  H    0.083486
   112  H    0.091045
   113  H    0.107171
   114  H    0.089414
   115  H    0.104287
   116  H    0.071126
   117  H    0.068937
   118  H    0.089422
   119  H    0.096442
   120  H    0.110279
   121  H    0.071964
   122  H    0.106385
   123  H    0.107198
   124  H    0.097123
   125  H    0.098826
   126  H    0.077272
   127  H    0.068951
   128  H    0.092176
   129  H    0.056562
   130  H    0.099158
   131  H    0.083139
   132  H    0.083113
   133  H    0.111982
   134  H    0.100595
   135  H    0.103698
   136  H    0.067201
   137  H    0.105234
 Sum of Mulliken charges =   0.00000

 Dipole moment (field-independent basis, Debye):
    X=              1.3981    Y=              4.7716    Z=              1.2059  Tot=              5.1164
 Quadrupole moment (field-independent basis, Debye-Ang):
   XX=           -338.9467   YY=           -392.2066   ZZ=           -399.4572
   XY=            -30.2902   XZ=             16.8441   YZ=             -4.9493

 Normal termination of Gaussian 09 at Sun Jun 30 17:11:02 2019.
