 Gaussian 09, Revision D.01,
 Gaussian 09:  ES64L-G09RevD.01 24-Apr-2013

 -------------------------------------
 # td=(NStates=1) CAM-B3LYP/6-31G(d,p)
 -------------------------------------

 --
 TD
 --
 Symbolic Z-matrix:
 Charge =  0 Multiplicity = 1

                         Standard orientation:
 ---------------------------------------------------------------------
 Center     Atomic      Atomic             Coordinates (Angstroms)
 Number     Number       Type             X           Y           Z
 ---------------------------------------------------------------------
      1         12           0       -7.121433    0.619158    0.016520
      2          6           0       -4.911617   -1.911876    0.469385
      3          6           0       -4.813243    2.791692    1.254723
      4          6           0       -9.397392    3.136534   -0.424895
      5          6           0       -9.497228   -1.767235   -0.886907
      6          7           0       -5.169949    0.461587    0.738929
      7          6           0       -4.460507   -0.670762    0.834923
      8          6           0       -2.972823   -0.423915    1.272229
      9          6           0       -3.028394    1.094003    1.682721
     10          6           0       -4.371923    1.546999    1.187354
     11          6           0       -2.889698    1.380802    3.203497
     12          6           0       -1.947616   -0.764102    0.176721
     13          6           0       -0.445562   -0.427165    0.624299
     14          6           0        0.494800   -0.776559   -0.644951
     15          8           0        0.204422   -1.154712   -1.700231
     16          8           0        1.838245   -0.462295   -0.239207
     17          7           0       -7.108722    2.576601    0.292004
     18          6           0       -6.031175    3.301154    0.674368
     19          6           0       -6.410858    4.799570    0.790339
     20          6           0       -7.703663    4.854199    0.409705
     21          6           0       -8.127070    3.439990    0.039657
     22          6           0       -5.473486    5.832495    1.201747
     23          6           0       -8.600852    5.953627    0.363617
     24          6           0       -8.217842    7.200532    0.027882
     25          7           0       -9.174258    0.598662   -0.485051
     26          6           0       -9.972116    1.742110   -0.449434
     27          6           0      -11.254267    1.456848   -0.941208
     28          6           0      -11.284286    0.125146   -1.168024
     29          6           0       -9.916467   -0.442480   -0.723395
     30          6           0      -12.229697    2.553994   -1.162467
     31          6           0      -12.368030   -0.796464   -1.681806
     32          6           0      -12.456060   -0.941285   -3.243856
     33          7           0       -7.202028   -1.458253   -0.288986
     34          6           0       -8.235539   -2.260495   -0.598860
     35          6           0       -7.848045   -3.608493   -0.579887
     36          6           0       -6.529295   -3.587651   -0.080709
     37          6           0       -6.218809   -2.253365   -0.030702
     38          6           0       -8.608508   -4.804623   -0.925045
     39          6           0       -5.391915   -4.310197    0.158768
     40          8           0       -5.055006   -5.568750    0.079018
     41          6           0       -4.181931   -3.288491    0.583096
     42          6           0       -3.491335   -3.645373    1.941999
     43          8           0       -3.821970   -3.171114    3.030918
     44          8           0       -2.572565   -4.582123    1.821331
     45          6           0       -2.069299   -5.043505    3.104084
     46          6           0        2.806347   -0.637873   -1.270444
     47          6           0        4.118720   -0.467529   -0.629565
     48          6           0        5.138790    0.312159   -1.017670
     49          6           0        5.001340    1.188332   -2.351581
     50          6           0        6.444063    0.324137   -0.142946
     51          6           0        7.579531   -0.293266   -0.993686
     52          6           0        8.968661   -0.180314   -0.196748
     53          6           0       10.238468   -0.535362   -1.016606
     54          6           0       10.190568   -2.110346   -1.347273
     55          6           0       11.471437   -0.458232   -0.076043
     56          6           0       12.782206   -0.506494   -0.818035
     57          6           0       13.965215   -0.033923    0.103248
     58          6           0       15.403089   -0.166700   -0.508552
     59          6           0       15.691323   -1.542506   -0.909718
     60          6           0       16.330526    0.500243    0.422598
     61          6           0       17.766716    0.578616   -0.063434
     62          6           0       18.834797    1.298002    0.791187
     63          6           0       20.184613    1.312026    0.330093
     64          6           0       20.329462    2.236435   -0.947252
     65          6           0       21.175432    1.942255    1.367191
     66          1           0       -4.079139    3.472727    1.686126
     67          1           0       -9.953446    3.982388   -0.480498
     68          1           0      -10.353344   -2.516094   -1.065192
     69          1           0       -2.801925   -1.043525    1.981167
     70          1           0       -2.235585    1.830100    1.336297
     71          1           0       -1.728998    1.164002    3.695269
     72          1           0       -3.227716    2.614769    3.266046
     73          1           0       -3.429779    0.753756    3.788287
     74          1           0       -2.010257   -1.872667   -0.101349
     75          1           0       -2.315659   -0.099766   -0.688211
     76          1           0       -0.580963    0.691110    0.942963
     77          1           0       -0.273574   -1.064441    1.396759
     78          1           0       -5.009953    6.047811    0.445986
     79          1           0       -6.128098    6.607851    1.675847
     80          1           0       -4.931340    5.516207    2.073154
     81          1           0       -9.590812    5.846498    0.375673
     82          1           0       -8.837581    8.028026    0.168096
     83          1           0       -7.261105    7.514321   -0.369695
     84          1           0      -11.925665    3.284980   -1.990944
     85          1           0      -13.076240    2.252622   -1.535922
     86          1           0      -12.788277    3.200049   -0.353062
     87          1           0      -12.183130   -1.779063   -1.254845
     88          1           0      -13.217311   -0.198040   -1.152434
     89          1           0      -13.138751   -1.579197   -3.582848
     90          1           0      -12.447117   -0.053992   -3.748454
     91          1           0      -11.697289   -1.625106   -3.510247
     92          1           0       -9.067755   -4.974227   -1.956532
     93          1           0       -8.070638   -5.613857   -0.633038
     94          1           0       -9.707150   -4.992963   -0.287558
     95          1           0       -3.424118   -3.404339   -0.260281
     96          1           0       -1.684815   -4.206700    3.570871
     97          1           0       -2.862363   -5.472610    3.657996
     98          1           0       -1.258559   -5.775355    2.923219
     99          1           0        2.770357   -1.570279   -1.673460
    100          1           0        2.572596   -0.001985   -2.125598
    101          1           0        4.217272   -1.160256    0.328002
    102          1           0        3.953933    1.496334   -2.514349
    103          1           0        5.489384    2.169743   -2.074028
    104          1           0        5.394257    0.715143   -3.176637
    105          1           0        6.449802    1.465758    0.116840
    106          1           0        5.952213   -0.267640    0.785713
    107          1           0        7.509962   -1.266562   -1.207708
    108          1           0        7.811252    0.334473   -1.909187
    109          1           0        9.092468    0.882064    0.213247
    110          1           0        8.858357   -0.746852    0.836450
    111          1           0       10.415186    0.009399   -1.872360
    112          1           0        9.420918   -2.333015   -1.950996
    113          1           0       10.930444   -2.446535   -2.178037
    114          1           0       10.042832   -2.503974   -0.374407
    115          1           0       11.378864    0.601187    0.260377
    116          1           0       11.373567   -0.985777    1.047526
    117          1           0       13.049605   -1.529493   -0.989980
    118          1           0       12.644952    0.172745   -1.611225
    119          1           0       13.882091    1.011688    0.124746
    120          1           0       13.892098   -0.527484    1.097948
    121          1           0       15.455130    0.326921   -1.537498
    122          1           0       16.131178   -2.128059    0.108568
    123          1           0       14.956313   -2.273133   -1.506483
    124          1           0       16.602504   -1.677789   -1.715367
    125          1           0       16.123681    1.680667    0.497059
    126          1           0       16.371267    0.075659    1.341329
    127          1           0       18.132148   -0.418513   -0.092364
    128          1           0       17.684115    0.914089   -1.202803
    129          1           0       18.319484    2.241124    1.155173
    130          1           0       18.758885    0.840644    1.914290
    131          1           0       20.503731    0.367675   -0.066864
    132          1           0       19.974587    3.134740   -0.759107
    133          1           0       21.363503    2.074107   -1.336816
    134          1           0       19.677695    1.818319   -1.604821
    135          1           0       21.065753    1.517319    2.260560
    136          1           0       22.152765    1.915504    0.914217
    137          1           0       20.862872    2.896738    1.431886
 ---------------------------------------------------------------------

 SCF Done:  E(RCAM-B3LYP) =  -2932.56246784     A.U. after   17 cycles

 Excitation energies and oscillator strengths:

 Excited State   1:      Singlet-A      2.0706 eV  598.78 nm  f=0.2959  <S**2>=0.000
     240 -> 242       -0.12841
     240 -> 243       -0.21732
     241 -> 242        0.65076
 This state for optimization and/or second-order correction.
 Total Energy, E(TD-HF/TD-KS) =  -2932.48637470
 Copying the excited state density for this state as the 1-particle RhoCI density.

 The electronic state is 1-A.
 Alpha  occ. eigenvalues --  -46.85007 -19.26230 -19.24454 -19.23192 -19.19590
 Alpha  occ. eigenvalues --  -19.18136 -14.41266 -14.41077 -14.39841 -14.38859
 Alpha  occ. eigenvalues --  -10.40016 -10.38694 -10.34027 -10.32235 -10.30845
 Alpha  occ. eigenvalues --  -10.30185 -10.30116 -10.29970 -10.29874 -10.29385
 Alpha  occ. eigenvalues --  -10.28719 -10.28707 -10.28588 -10.28571 -10.28451
 Alpha  occ. eigenvalues --  -10.28319 -10.28194 -10.28141 -10.28082 -10.27995
 Alpha  occ. eigenvalues --  -10.27809 -10.27457 -10.27456 -10.27453 -10.27318
 Alpha  occ. eigenvalues --  -10.27305 -10.26976 -10.26856 -10.26841 -10.26797
 Alpha  occ. eigenvalues --  -10.26475 -10.26385 -10.26193 -10.26060 -10.25961
 Alpha  occ. eigenvalues --  -10.25956 -10.25951 -10.25927 -10.25816 -10.25814
 Alpha  occ. eigenvalues --  -10.25785 -10.25614 -10.25513 -10.25402 -10.24952
 Alpha  occ. eigenvalues --  -10.24906 -10.24861 -10.24861 -10.24365 -10.24339
 Alpha  occ. eigenvalues --  -10.24018 -10.23609 -10.23574 -10.22135 -10.22074
 Alpha  occ. eigenvalues --   -3.14034  -1.88744  -1.88270  -1.88214  -1.18543
 Alpha  occ. eigenvalues --   -1.18272  -1.10117  -1.07374  -1.06977  -1.04778
 Alpha  occ. eigenvalues --   -1.04336  -1.03865  -1.02820  -0.91840  -0.91371
 Alpha  occ. eigenvalues --   -0.91284  -0.89930  -0.89631  -0.89397  -0.89195
 Alpha  occ. eigenvalues --   -0.88999  -0.88392  -0.88064  -0.87811  -0.86147
 Alpha  occ. eigenvalues --   -0.84998  -0.84305  -0.83869  -0.83335  -0.82599
 Alpha  occ. eigenvalues --   -0.81670  -0.80949  -0.80432  -0.79439  -0.79355
 Alpha  occ. eigenvalues --   -0.78335  -0.77763  -0.76791  -0.76327  -0.75635
 Alpha  occ. eigenvalues --   -0.75390  -0.75232  -0.74519  -0.73147  -0.72519
 Alpha  occ. eigenvalues --   -0.71981  -0.70665  -0.69689  -0.69315  -0.68548
 Alpha  occ. eigenvalues --   -0.68322  -0.66552  -0.65910  -0.65325  -0.64080
 Alpha  occ. eigenvalues --   -0.64017  -0.63300  -0.63149  -0.63124  -0.62396
 Alpha  occ. eigenvalues --   -0.61726  -0.61006  -0.60417  -0.59891  -0.59453
 Alpha  occ. eigenvalues --   -0.58962  -0.58465  -0.57865  -0.57277  -0.56326
 Alpha  occ. eigenvalues --   -0.56011  -0.55628  -0.55542  -0.55464  -0.55218
 Alpha  occ. eigenvalues --   -0.54887  -0.54572  -0.54017  -0.53696  -0.53524
 Alpha  occ. eigenvalues --   -0.53392  -0.53251  -0.52795  -0.52338  -0.51882
 Alpha  occ. eigenvalues --   -0.51740  -0.51623  -0.51418  -0.51326  -0.50765
 Alpha  occ. eigenvalues --   -0.50640  -0.50486  -0.50018  -0.49901  -0.49615
 Alpha  occ. eigenvalues --   -0.49542  -0.49331  -0.48886  -0.48657  -0.48439
 Alpha  occ. eigenvalues --   -0.48152  -0.48114  -0.47714  -0.47534  -0.47321
 Alpha  occ. eigenvalues --   -0.47086  -0.46940  -0.46802  -0.46414  -0.46316
 Alpha  occ. eigenvalues --   -0.46204  -0.45745  -0.45598  -0.45158  -0.45127
 Alpha  occ. eigenvalues --   -0.44887  -0.44745  -0.44579  -0.44373  -0.44137
 Alpha  occ. eigenvalues --   -0.44101  -0.43937  -0.43577  -0.43261  -0.43028
 Alpha  occ. eigenvalues --   -0.43002  -0.42759  -0.42620  -0.42474  -0.42301
 Alpha  occ. eigenvalues --   -0.42248  -0.41895  -0.41853  -0.41686  -0.41387
 Alpha  occ. eigenvalues --   -0.41346  -0.40985  -0.40807  -0.40275  -0.40255
 Alpha  occ. eigenvalues --   -0.39849  -0.39833  -0.39508  -0.39163  -0.39149
 Alpha  occ. eigenvalues --   -0.38906  -0.38607  -0.38588  -0.37856  -0.37844
 Alpha  occ. eigenvalues --   -0.37842  -0.37213  -0.37017  -0.36988  -0.35997
 Alpha  occ. eigenvalues --   -0.35931  -0.35734  -0.35705  -0.35623  -0.35340
 Alpha  occ. eigenvalues --   -0.35253  -0.34644  -0.34203  -0.33501  -0.33403
 Alpha  occ. eigenvalues --   -0.32694  -0.32609  -0.32500  -0.30984  -0.29237
 Alpha  occ. eigenvalues --   -0.29157  -0.28873  -0.28484  -0.28329  -0.23416
 Alpha  occ. eigenvalues --   -0.21395
 Alpha virt. eigenvalues --   -0.06910  -0.03486   0.01683   0.03199   0.05152
 Alpha virt. eigenvalues --    0.06166   0.06601   0.06765   0.07171   0.08038
 Alpha virt. eigenvalues --    0.08472   0.09840   0.10892   0.11459   0.11532

 Mulliken charges:
               1
     1  Mg   0.832418
     2  C    0.052987
     3  C   -0.214110
     4  C   -0.139932
     5  C   -0.161242
     6  N   -0.672903
     7  C    0.309929
     8  C   -0.112519
     9  C   -0.177187
    10  C    0.378322
    11  C   -0.271687
    12  C   -0.182706
    13  C   -0.256435
    14  C    0.598066
    15  O   -0.398880
    16  O   -0.510603
    17  N   -0.693208
    18  C    0.279984
    19  C   -0.020414
    20  C    0.044813
    21  C    0.290727
    22  C   -0.343396
    23  C   -0.096123
    24  C   -0.241146
    25  N   -0.633338
    26  C    0.227602
    27  C    0.061885
    28  C   -0.017384
    29  C    0.288340
    30  C   -0.378919
    31  C   -0.240117
    32  C   -0.306598
    33  N   -0.704461
    34  C    0.281840
    35  C    0.056997
    36  C    0.104125
    37  C    0.262987
    38  C   -0.386002
    39  C    0.280062
    40  O   -0.527841
    41  C   -0.299360
    42  C    0.618677
    43  O   -0.505260
    44  O   -0.435053
    45  C   -0.082149
    46  C    0.027892
    47  C   -0.120424
    48  C    0.061264
    49  C   -0.359362
    50  C   -0.214159
    51  C   -0.162026
    52  C   -0.187677
    53  C   -0.073278
    54  C   -0.306020
    55  C   -0.168236
    56  C   -0.173292
    57  C   -0.176379
    58  C   -0.047104
    59  C   -0.291891
    60  C   -0.158708
    61  C   -0.181944
    62  C   -0.159580
    63  C   -0.081485
    64  C   -0.309200
    65  C   -0.293660
    66  H    0.080003
    67  H    0.080047
    68  H    0.097224
    69  H    0.113324
    70  H    0.112438
    71  H    0.073295
    72  H    0.071963
    73  H    0.145386
    74  H    0.111548
    75  H    0.102650
    76  H    0.128075
    77  H    0.144841
    78  H    0.139267
    79  H    0.120804
    80  H    0.121173
    81  H    0.098796
    82  H    0.104952
    83  H    0.107753
    84  H    0.112102
    85  H    0.120539
    86  H    0.106603
    87  H    0.103095
    88  H    0.095976
    89  H    0.113966
    90  H    0.120939
    91  H    0.108128
    92  H    0.127605
    93  H    0.159108
    94  H    0.077106
    95  H    0.149533
    96  H    0.134208
    97  H    0.145349
    98  H    0.121245
    99  H    0.124906
   100  H    0.103152
   101  H    0.078180
   102  H    0.117840
   103  H    0.100078
   104  H    0.134836
   105  H    0.100213
   106  H    0.095490
   107  H    0.123783
   108  H    0.098351
   109  H    0.081765
   110  H    0.077726
   111  H    0.088551
   112  H    0.099568
   113  H    0.087720
   114  H    0.113270
   115  H    0.075631
   116  H    0.065435
   117  H    0.108112
   118  H    0.095329
   119  H    0.099041
   120  H    0.089936
   121  H    0.078545
   122  H    0.060064
   123  H    0.104988
   124  H    0.076175
   125  H    0.074747
   126  H    0.101632
   127  H    0.101363
   128  H    0.069101
   129  H    0.079174
   130  H    0.054772
   131  H    0.090299
   132  H    0.108840
   133  H    0.092389
   134  H    0.104724
   135  H    0.102016
   136  H    0.097239
   137  H    0.110460
 Sum of Mulliken charges =   0.00000

 Dipole moment (field-independent basis, Debye):
    X=             -0.7913    Y=              6.9862    Z=             -0.7652  Tot=              7.0723
 Quadrupole moment (field-independent basis, Debye-Ang):
   XX=           -344.8382   YY=           -392.3291   ZZ=           -393.6003
   XY=            -36.6130   XZ=              9.2315   YZ=             -1.8934

 Normal termination of Gaussian 09 at Sat Jun 29 02:23:42 2019.
