 Gaussian 09, Revision D.01,
 Gaussian 09:  ES64L-G09RevD.01 24-Apr-2013

 -------------------------------------
 # td=(NStates=1) CAM-B3LYP/6-31G(d,p)
 -------------------------------------

 --
 TD
 --
 Symbolic Z-matrix:
 Charge =  0 Multiplicity = 1

                         Standard orientation:
 ---------------------------------------------------------------------
 Center     Atomic      Atomic             Coordinates (Angstroms)
 Number     Number       Type             X           Y           Z
 ---------------------------------------------------------------------
      1         12           0       -7.130017    0.627873    0.162981
      2          6           0       -4.859663   -1.946050    0.497956
      3          6           0       -4.888864    2.888119    1.168456
      4          6           0       -9.583615    3.103638   -0.336639
      5          6           0       -9.571060   -1.802852   -0.741173
      6          7           0       -5.092692    0.433870    0.690370
      7          6           0       -4.349984   -0.685214    0.732661
      8          6           0       -2.832213   -0.341024    1.151643
      9          6           0       -3.038541    1.112401    1.518054
     10          6           0       -4.385053    1.496367    1.101190
     11          6           0       -2.780128    1.479602    3.011978
     12          6           0       -1.922664   -0.604140   -0.021584
     13          6           0       -0.413572   -0.294477    0.390340
     14          6           0        0.599344   -0.507865   -0.673021
     15          8           0        0.209361   -0.645804   -1.872671
     16          8           0        1.809412   -0.482199   -0.291526
     17          7           0       -7.196345    2.599285    0.330384
     18          6           0       -6.167796    3.380438    0.810861
     19          6           0       -6.573600    4.773256    0.860561
     20          6           0       -7.821454    4.745986    0.463242
     21          6           0       -8.335690    3.469706    0.126083
     22          6           0       -5.678686    5.908604    1.256936
     23          6           0       -8.818234    5.980819    0.369672
     24          6           0       -8.419513    7.181528    0.008723
     25          7           0       -9.134957    0.661059   -0.512321
     26          6           0       -9.987721    1.762467   -0.582389
     27          6           0      -11.302139    1.347396   -0.985003
     28          6           0      -11.277278   -0.060255   -1.143812
     29          6           0       -9.978848   -0.450277   -0.813499
     30          6           0      -12.516005    2.223273   -1.388185
     31          6           0      -12.352362   -0.936860   -1.585058
     32          6           0      -12.226770   -1.365440   -3.126559
     33          7           0       -7.189670   -1.369170   -0.156629
     34          6           0       -8.241769   -2.269475   -0.471954
     35          6           0       -7.793331   -3.721298   -0.438795
     36          6           0       -6.427015   -3.584530   -0.177576
     37          6           0       -6.139499   -2.156932    0.120390
     38          6           0       -8.579684   -4.851768   -0.840580
     39          6           0       -5.326662   -4.424238    0.072409
     40          8           0       -5.140731   -5.590602    0.123652
     41          6           0       -4.124327   -3.326278    0.566835
     42          6           0       -3.485149   -3.622469    1.858807
     43          8           0       -3.707085   -3.056390    2.952862
     44          8           0       -2.695517   -4.699158    1.840604
     45          6           0       -2.288159   -5.230580    3.076601
     46          6           0        2.857695   -0.573388   -1.261023
     47          6           0        4.189668   -0.352130   -0.606711
     48          6           0        5.188429    0.516014   -0.982580
     49          6           0        5.073114    1.609565   -1.989692
     50          6           0        6.398074    0.455508   -0.155403
     51          6           0        7.647757   -0.162272   -0.997982
     52          6           0        8.987135   -0.027756   -0.242090
     53          6           0       10.280488   -0.619429   -0.970017
     54          6           0       10.090487   -2.194277   -1.359713
     55          6           0       11.414794   -0.332262    0.016499
     56          6           0       12.810146   -0.539672   -0.633060
     57          6           0       14.043089   -0.146875    0.167025
     58          6           0       15.441525   -0.354333   -0.425176
     59          6           0       15.842043   -1.793896   -0.813991
     60          6           0       16.502075    0.298163    0.422556
     61          6           0       17.916420    0.527296   -0.090754
     62          6           0       18.917973    1.386194    0.936669
     63          6           0       20.247332    1.365917    0.203997
     64          6           0       20.288541    2.083156   -1.080433
     65          6           0       21.210679    1.940265    1.298799
     66          1           0       -4.290640    3.664084    1.739297
     67          1           0      -10.218205    3.854751   -0.633479
     68          1           0      -10.277379   -2.590532   -0.789601
     69          1           0       -2.522916   -0.913584    1.973922
     70          1           0       -2.281452    1.597559    0.911338
     71          1           0       -1.631588    1.251737    3.420749
     72          1           0       -2.984633    2.484288    3.239101
     73          1           0       -3.392009    0.739090    3.749173
     74          1           0       -1.936178   -1.651732   -0.549891
     75          1           0       -2.203394    0.096382   -0.742784
     76          1           0       -0.152903    0.806430    0.755415
     77          1           0        0.004506   -0.948413    1.228966
     78          1           0       -5.126398    6.475702    0.437429
     79          1           0       -6.167105    6.724183    1.762454
     80          1           0       -4.900964    5.451574    1.889998
     81          1           0       -9.885234    5.925180    0.907746
     82          1           0       -8.842245    8.152869   -0.231765
     83          1           0       -7.302357    7.210980   -0.275157
     84          1           0      -12.390472    2.843812   -2.143465
     85          1           0      -13.511823    1.693700   -1.456387
     86          1           0      -12.775155    2.917947   -0.664807
     87          1           0      -12.321058   -1.777076   -1.019649
     88          1           0      -13.267946   -0.310222   -1.679520
     89          1           0      -13.108891   -1.968464   -3.647621
     90          1           0      -12.176281   -0.416534   -3.788786
     91          1           0      -11.142546   -1.790338   -3.212644
     92          1           0       -9.014666   -4.811542   -1.988835
     93          1           0       -7.995798   -5.781186   -0.680815
     94          1           0       -9.411643   -5.021521   -0.160527
     95          1           0       -3.334098   -3.196413   -0.197467
     96          1           0       -1.663004   -4.428305    3.785872
     97          1           0       -3.037185   -5.445832    3.662281
     98          1           0       -1.690209   -6.159694    2.542034
     99          1           0        2.756078   -1.562373   -1.756684
    100          1           0        2.442181    0.230906   -2.098956
    101          1           0        4.314265   -1.141787    0.271048
    102          1           0        4.055218    1.459512   -2.405934
    103          1           0        5.292927    2.656667   -1.790553
    104          1           0        5.841717    1.458222   -2.642898
    105          1           0        6.665261    1.546477    0.241763
    106          1           0        6.174175   -0.180875    0.676130
    107          1           0        7.613430   -1.102398   -1.223962
    108          1           0        7.673439    0.319888   -2.000358
    109          1           0        9.192268    1.047847    0.144895
    110          1           0        8.947774   -0.467236    0.794176
    111          1           0       10.237886   -0.077985   -1.926454
    112          1           0        9.126912   -2.421318   -1.939406
    113          1           0       10.976957   -2.387479   -2.141600
    114          1           0       10.083942   -2.686649   -0.289830
    115          1           0       11.517994    0.738241    0.266900
    116          1           0       11.280979   -0.993286    0.981291
    117          1           0       12.732137   -1.508218   -1.002823
    118          1           0       12.835825   -0.147329   -1.651270
    119          1           0       13.949069    0.843278    0.653415
    120          1           0       14.056069   -0.783696    1.100399
    121          1           0       15.402340    0.206405   -1.286829
    122          1           0       15.993721   -2.462542    0.033802
    123          1           0       15.163638   -2.167277   -1.611932
    124          1           0       16.655253   -1.753193   -1.407287
    125          1           0       16.129571    1.226983    0.761283
    126          1           0       16.589822   -0.244023    1.410300
    127          1           0       18.323266   -0.551110   -0.284486
    128          1           0       17.821472    1.075565   -1.026120
    129          1           0       18.406534    2.401597    0.952279
    130          1           0       18.863139    0.910194    1.835687
    131          1           0       20.499522    0.268412    0.065954
    132          1           0       19.729943    3.112042   -1.069125
    133          1           0       21.202142    2.153861   -1.284420
    134          1           0       19.710791    1.329511   -1.969641
    135          1           0       21.035195    1.439623    2.232880
    136          1           0       22.093564    1.878528    0.873592
    137          1           0       20.859245    3.095391    1.283482
 ---------------------------------------------------------------------

 SCF Done:  E(RCAM-B3LYP) =  -2932.67620479     A.U. after   18 cycles

 Excitation energies and oscillator strengths:

 Excited State   1:      Singlet-A      2.0897 eV  593.31 nm  f=0.1680  <S**2>=0.000
     240 -> 243       -0.30939
     241 -> 242        0.62669
 This state for optimization and/or second-order correction.
 Total Energy, E(TD-HF/TD-KS) =  -2932.59940964
 Copying the excited state density for this state as the 1-particle RhoCI density.

 The electronic state is 1-A.
 Alpha  occ. eigenvalues --  -46.83817 -19.27492 -19.25770 -19.21388 -19.19472
 Alpha  occ. eigenvalues --  -19.18701 -14.42304 -14.40175 -14.39051 -14.38714
 Alpha  occ. eigenvalues --  -10.38444 -10.38373 -10.35709 -10.33631 -10.32192
 Alpha  occ. eigenvalues --  -10.31757 -10.30796 -10.30359 -10.29918 -10.29547
 Alpha  occ. eigenvalues --  -10.29195 -10.29100 -10.28669 -10.28661 -10.28427
 Alpha  occ. eigenvalues --  -10.28355 -10.28131 -10.28019 -10.28016 -10.27997
 Alpha  occ. eigenvalues --  -10.27762 -10.27757 -10.27509 -10.27434 -10.27399
 Alpha  occ. eigenvalues --  -10.27131 -10.27100 -10.27045 -10.26989 -10.26966
 Alpha  occ. eigenvalues --  -10.26943 -10.26658 -10.26653 -10.26542 -10.26401
 Alpha  occ. eigenvalues --  -10.26331 -10.26266 -10.26081 -10.25953 -10.25944
 Alpha  occ. eigenvalues --  -10.25652 -10.25535 -10.25518 -10.25466 -10.25352
 Alpha  occ. eigenvalues --  -10.25134 -10.25038 -10.25027 -10.25010 -10.24623
 Alpha  occ. eigenvalues --  -10.24386 -10.24090 -10.23984 -10.23539 -10.23396
 Alpha  occ. eigenvalues --   -3.12913  -1.87612  -1.87135  -1.87116  -1.20873
 Alpha  occ. eigenvalues --   -1.18156  -1.13519  -1.06602  -1.06089  -1.05565
 Alpha  occ. eigenvalues --   -1.02833  -1.02365  -1.00453  -0.91786  -0.91617
 Alpha  occ. eigenvalues --   -0.90457  -0.90396  -0.89543  -0.89014  -0.88554
 Alpha  occ. eigenvalues --   -0.88345  -0.88230  -0.87271  -0.86751  -0.86034
 Alpha  occ. eigenvalues --   -0.84766  -0.84125  -0.83223  -0.82703  -0.82031
 Alpha  occ. eigenvalues --   -0.81504  -0.81128  -0.80687  -0.79854  -0.78887
 Alpha  occ. eigenvalues --   -0.77761  -0.76962  -0.76855  -0.76775  -0.75973
 Alpha  occ. eigenvalues --   -0.75673  -0.75162  -0.74357  -0.73124  -0.72189
 Alpha  occ. eigenvalues --   -0.72053  -0.71137  -0.69529  -0.69085  -0.68350
 Alpha  occ. eigenvalues --   -0.67043  -0.66018  -0.65156  -0.64951  -0.64835
 Alpha  occ. eigenvalues --   -0.64220  -0.63316  -0.63137  -0.62574  -0.62381
 Alpha  occ. eigenvalues --   -0.62027  -0.60783  -0.60393  -0.60072  -0.59322
 Alpha  occ. eigenvalues --   -0.58659  -0.58246  -0.57556  -0.57154  -0.56909
 Alpha  occ. eigenvalues --   -0.55834  -0.55178  -0.54964  -0.54904  -0.54797
 Alpha  occ. eigenvalues --   -0.54345  -0.54217  -0.53975  -0.53191  -0.53037
 Alpha  occ. eigenvalues --   -0.52883  -0.52780  -0.51879  -0.51655  -0.51531
 Alpha  occ. eigenvalues --   -0.51354  -0.51088  -0.50869  -0.50739  -0.50585
 Alpha  occ. eigenvalues --   -0.50329  -0.49933  -0.49662  -0.49633  -0.49178
 Alpha  occ. eigenvalues --   -0.49041  -0.48888  -0.48755  -0.48400  -0.48051
 Alpha  occ. eigenvalues --   -0.47935  -0.47673  -0.47402  -0.47358  -0.47128
 Alpha  occ. eigenvalues --   -0.46612  -0.46564  -0.46224  -0.45930  -0.45829
 Alpha  occ. eigenvalues --   -0.45581  -0.45551  -0.45353  -0.45284  -0.45118
 Alpha  occ. eigenvalues --   -0.45091  -0.44724  -0.44577  -0.44352  -0.44277
 Alpha  occ. eigenvalues --   -0.44089  -0.43827  -0.43689  -0.43329  -0.43072
 Alpha  occ. eigenvalues --   -0.42841  -0.42798  -0.42613  -0.42239  -0.42136
 Alpha  occ. eigenvalues --   -0.42006  -0.41884  -0.41693  -0.41465  -0.41216
 Alpha  occ. eigenvalues --   -0.41179  -0.40873  -0.40521  -0.40357  -0.40187
 Alpha  occ. eigenvalues --   -0.39949  -0.39780  -0.39602  -0.39411  -0.39298
 Alpha  occ. eigenvalues --   -0.39014  -0.38716  -0.38528  -0.38386  -0.38262
 Alpha  occ. eigenvalues --   -0.38012  -0.37216  -0.36990  -0.36977  -0.36367
 Alpha  occ. eigenvalues --   -0.36245  -0.35961  -0.35837  -0.35346  -0.35155
 Alpha  occ. eigenvalues --   -0.34816  -0.34604  -0.33855  -0.33548  -0.32674
 Alpha  occ. eigenvalues --   -0.32445  -0.31988  -0.31725  -0.30991  -0.30312
 Alpha  occ. eigenvalues --   -0.29913  -0.29530  -0.28875  -0.26845  -0.23039
 Alpha  occ. eigenvalues --   -0.21128
 Alpha virt. eigenvalues --   -0.05856  -0.03727   0.01020   0.04701   0.05027
 Alpha virt. eigenvalues --    0.05588   0.06413   0.06652   0.07106   0.07414
 Alpha virt. eigenvalues --    0.08163   0.11094   0.11354   0.11682   0.12024

 Mulliken charges:
               1
     1  Mg   0.816979
     2  C    0.058717
     3  C   -0.220210
     4  C   -0.160382
     5  C   -0.171293
     6  N   -0.635436
     7  C    0.274697
     8  C   -0.133142
     9  C   -0.152479
    10  C    0.361198
    11  C   -0.305936
    12  C   -0.166050
    13  C   -0.269977
    14  C    0.593618
    15  O   -0.533008
    16  O   -0.419407
    17  N   -0.750720
    18  C    0.325040
    19  C    0.066184
    20  C   -0.044331
    21  C    0.317834
    22  C   -0.370201
    23  C   -0.081987
    24  C   -0.238477
    25  N   -0.680019
    26  C    0.289348
    27  C   -0.011357
    28  C    0.055687
    29  C    0.276421
    30  C   -0.382386
    31  C   -0.230396
    32  C   -0.312125
    33  N   -0.707529
    34  C    0.218769
    35  C    0.091942
    36  C   -0.011816
    37  C    0.330125
    38  C   -0.401730
    39  C    0.356963
    40  O   -0.424397
    41  C   -0.344539
    42  C    0.619972
    43  O   -0.512078
    44  O   -0.431819
    45  C   -0.060897
    46  C   -0.005386
    47  C   -0.151292
    48  C    0.132652
    49  C   -0.352977
    50  C   -0.225736
    51  C   -0.178364
    52  C   -0.181698
    53  C   -0.074008
    54  C   -0.305363
    55  C   -0.167264
    56  C   -0.192029
    57  C   -0.173306
    58  C   -0.054313
    59  C   -0.313468
    60  C   -0.179687
    61  C   -0.196226
    62  C   -0.162587
    63  C   -0.068236
    64  C   -0.264751
    65  C   -0.290152
    66  H    0.077781
    67  H    0.096979
    68  H    0.093717
    69  H    0.133885
    70  H    0.119720
    71  H    0.082148
    72  H    0.123829
    73  H    0.114317
    74  H    0.121556
    75  H    0.131286
    76  H    0.123672
    77  H    0.122718
    78  H    0.122105
    79  H    0.133953
    80  H    0.106444
    81  H    0.095186
    82  H    0.119293
    83  H    0.085919
    84  H    0.133875
    85  H    0.106450
    86  H    0.117488
    87  H    0.112938
    88  H    0.105393
    89  H    0.095487
    90  H    0.100683
    91  H    0.098436
    92  H    0.123699
    93  H    0.147295
    94  H    0.134293
    95  H    0.149860
    96  H    0.096728
    97  H    0.145461
    98  H    0.112127
    99  H    0.137120
   100  H    0.116200
   101  H    0.094975
   102  H    0.109033
   103  H    0.126050
   104  H    0.128622
   105  H    0.088256
   106  H    0.108721
   107  H    0.112843
   108  H    0.084470
   109  H    0.075241
   110  H    0.078781
   111  H    0.091889
   112  H    0.104007
   113  H    0.097882
   114  H    0.102190
   115  H    0.100163
   116  H    0.084736
   117  H    0.100047
   118  H    0.080380
   119  H    0.085680
   120  H    0.076958
   121  H    0.086111
   122  H    0.104078
   123  H    0.089547
   124  H    0.115005
   125  H    0.082622
   126  H    0.066885
   127  H    0.073874
   128  H    0.094218
   129  H    0.087363
   130  H    0.102454
   131  H    0.085702
   132  H    0.092220
   133  H    0.111831
   134  H    0.067582
   135  H    0.108598
   136  H    0.103998
   137  H    0.073764
 Sum of Mulliken charges =   0.00000

 Dipole moment (field-independent basis, Debye):
    X=              3.0221    Y=              4.0754    Z=              0.4877  Tot=              5.0970
 Quadrupole moment (field-independent basis, Debye-Ang):
   XX=           -331.3027   YY=           -384.0668   ZZ=           -401.6953
   XY=            -14.3742   XZ=              0.9630   YZ=             -0.2592

 Normal termination of Gaussian 09 at Fri Jun 28 13:59:39 2019.
