 Gaussian 09, Revision D.01,
 Gaussian 09:  ES64L-G09RevD.01 24-Apr-2013

 -------------------------------------
 # td=(NStates=1) CAM-B3LYP/6-31G(d,p)
 -------------------------------------

 --
 TD
 --
 Symbolic Z-matrix:
 Charge =  0 Multiplicity = 1

                         Standard orientation:
 ---------------------------------------------------------------------
 Center     Atomic      Atomic             Coordinates (Angstroms)
 Number     Number       Type             X           Y           Z
 ---------------------------------------------------------------------
      1         12           0       -7.097127    0.576528    0.203921
      2          6           0       -4.788488   -1.963833    0.519196
      3          6           0       -4.862027    2.806696    1.227237
      4          6           0       -9.497382    2.995404   -0.311108
      5          6           0       -9.488921   -1.809902   -0.913145
      6          7           0       -5.062267    0.428363    0.772435
      7          6           0       -4.248550   -0.642895    0.703790
      8          6           0       -2.966277   -0.340856    1.118318
      9          6           0       -3.004264    1.106412    1.617120
     10          6           0       -4.364259    1.521525    1.177605
     11          6           0       -2.938400    1.250603    3.097004
     12          6           0       -1.902667   -0.599972   -0.021382
     13          6           0       -0.479205   -0.257073    0.468811
     14          6           0        0.499961   -0.513418   -0.584060
     15          8           0        0.209994   -0.923496   -1.729357
     16          8           0        1.815284   -0.314625   -0.217749
     17          7           0       -7.176702    2.577716    0.472763
     18          6           0       -6.109287    3.390243    0.884188
     19          6           0       -6.599434    4.669690    1.012957
     20          6           0       -7.880345    4.837175    0.525446
     21          6           0       -8.236265    3.434763    0.269189
     22          6           0       -5.665726    5.782414    1.369188
     23          6           0       -8.776751    5.973938    0.365792
     24          6           0       -8.350407    7.229644    0.014831
     25          7           0       -9.224753    0.568016   -0.519460
     26          6           0       -9.971146    1.690345   -0.614071
     27          6           0      -11.349610    1.395057   -1.110822
     28          6           0      -11.313919    0.010707   -1.269543
     29          6           0       -9.967718   -0.531045   -0.942326
     30          6           0      -12.361433    2.428248   -1.340216
     31          6           0      -12.461755   -0.819863   -1.831157
     32          6           0      -12.182665   -1.205442   -3.371428
     33          7           0       -7.157536   -1.361119   -0.138442
     34          6           0       -8.144963   -2.257771   -0.496918
     35          6           0       -7.737924   -3.664665   -0.518202
     36          6           0       -6.400384   -3.623909   -0.141620
     37          6           0       -6.152158   -2.171929    0.083434
     38          6           0       -8.571903   -4.862658   -0.855113
     39          6           0       -5.217959   -4.410872    0.181181
     40          8           0       -5.087311   -5.573752    0.330664
     41          6           0       -4.099401   -3.333835    0.595148
     42          6           0       -3.500658   -3.614985    1.934764
     43          8           0       -3.800570   -3.092392    2.948336
     44          8           0       -2.565947   -4.656484    1.785501
     45          6           0       -2.144033   -5.157736    2.994042
     46          6           0        2.846581   -0.614790   -1.249242
     47          6           0        4.191029   -0.252982   -0.549939
     48          6           0        5.139958    0.476491   -1.025253
     49          6           0        5.032686    1.375900   -2.282199
     50          6           0        6.479715    0.593015   -0.171625
     51          6           0        7.699408    0.002349   -0.866928
     52          6           0        8.994317    0.010010   -0.176293
     53          6           0       10.143099   -0.426108   -0.943232
     54          6           0       10.055458   -1.925694   -1.326368
     55          6           0       11.410996   -0.184466   -0.085938
     56          6           0       12.736295   -0.488024   -0.790174
     57          6           0       13.915543   -0.096438    0.123143
     58          6           0       15.260186   -0.259019   -0.563707
     59          6           0       15.629702   -1.659843   -0.887623
     60          6           0       16.420831    0.410101    0.390283
     61          6           0       17.850073    0.477638   -0.135328
     62          6           0       18.782220    1.159922    0.913437
     63          6           0       20.181115    1.105513    0.331953
     64          6           0       20.431904    1.990783   -1.085428
     65          6           0       21.240205    1.795027    1.226182
     66          1           0       -4.117620    3.526371    1.403785
     67          1           0      -10.153320    3.804475   -0.653453
     68          1           0      -10.388046   -2.588541   -1.192045
     69          1           0       -2.288426   -0.989598    1.886195
     70          1           0       -2.272802    1.664089    1.248694
     71          1           0       -1.746224    1.095508    3.271768
     72          1           0       -3.135410    2.343034    3.431091
     73          1           0       -3.746994    0.610233    3.697353
     74          1           0       -1.935928   -1.625212   -0.354927
     75          1           0       -2.135995    0.064477   -0.957810
     76          1           0       -0.233562    0.903587    0.810792
     77          1           0       -0.277277   -0.966855    1.347400
     78          1           0       -4.969046    6.144588    0.540942
     79          1           0       -6.078398    6.509431    1.841302
     80          1           0       -4.770591    5.348932    2.065872
     81          1           0       -9.798677    5.892770    0.579584
     82          1           0       -9.144606    8.052256   -0.225391
     83          1           0       -7.341603    7.432001   -0.320846
     84          1           0      -12.204322    2.983626   -2.246231
     85          1           0      -13.166294    1.568343   -1.473402
     86          1           0      -12.541484    3.067525   -0.553960
     87          1           0      -12.540496   -1.745198   -1.354435
     88          1           0      -13.365991   -0.367330   -1.911193
     89          1           0      -13.039249   -1.760185   -3.688736
     90          1           0      -12.018028   -0.323398   -4.085676
     91          1           0      -11.304156   -1.902639   -3.467289
     92          1           0       -8.756578   -5.097169   -1.921147
     93          1           0       -8.126411   -5.767388   -0.561915
     94          1           0       -9.557693   -5.030395   -0.240112
     95          1           0       -3.247451   -3.685372   -0.123331
     96          1           0       -1.031446   -4.541918    3.445122
     97          1           0       -2.890343   -5.244211    3.833159
     98          1           0       -1.797120   -6.153798    2.919782
     99          1           0        2.957885   -1.620141   -1.453623
    100          1           0        2.522122   -0.177560   -2.160332
    101          1           0        4.478342   -0.905280    0.360677
    102          1           0        4.162480    1.382535   -2.666163
    103          1           0        5.325917    2.333211   -2.081273
    104          1           0        5.689625    0.817386   -3.148520
    105          1           0        6.544602    1.692219    0.079364
    106          1           0        6.439607    0.142758    0.872247
    107          1           0        7.495327   -1.050548   -1.254643
    108          1           0        7.975885    0.555421   -1.695288
    109          1           0        9.118829    1.016514    0.275026
    110          1           0        8.948006   -0.557130    0.760879
    111          1           0       10.001881    0.084417   -1.786423
    112          1           0        9.078244   -2.330252   -1.796123
    113          1           0       10.843939   -2.309052   -1.895612
    114          1           0       10.447077   -2.662122   -0.355105
    115          1           0       11.240488    0.991249    0.120906
    116          1           0       11.378324   -0.760806    0.782598
    117          1           0       12.920913   -1.537536   -1.053630
    118          1           0       12.652345   -0.014285   -1.836544
    119          1           0       13.882142    1.034956    0.306120
    120          1           0       13.940552   -0.691509    1.141806
    121          1           0       15.147051    0.329066   -1.437442
    122          1           0       15.580574   -2.347248   -0.086067
    123          1           0       14.976022   -1.974189   -1.727538
    124          1           0       16.508370   -1.738516   -1.384059
    125          1           0       15.907188    1.419533    0.819224
    126          1           0       16.304737   -0.159978    1.321820
    127          1           0       18.114715   -0.479639   -0.517010
    128          1           0       17.845778    1.154737   -0.891689
    129          1           0       18.595300    2.217208    0.987716
    130          1           0       18.702230    0.694376    1.909130
    131          1           0       20.415025   -0.115758    0.260067
    132          1           0       20.041630    3.078117   -0.693094
    133          1           0       21.298924    2.254863   -1.397794
    134          1           0       19.650650    1.824556   -1.907582
    135          1           0       21.466974    1.376700    2.286475
    136          1           0       22.384720    1.721764    0.845029
    137          1           0       20.849914    2.787174    1.505169
 ---------------------------------------------------------------------

 SCF Done:  E(RCAM-B3LYP) =  -2932.64497002     A.U. after   18 cycles

 Excitation energies and oscillator strengths:

 Excited State   1:      Singlet-A      1.9204 eV  645.63 nm  f=0.2827  <S**2>=0.000
     240 -> 242       -0.12241
     240 -> 243        0.24410
     241 -> 242        0.64650
 This state for optimization and/or second-order correction.
 Total Energy, E(TD-HF/TD-KS) =  -2932.57439841
 Copying the excited state density for this state as the 1-particle RhoCI density.

 The electronic state is 1-A.
 Alpha  occ. eigenvalues --  -46.85288 -19.26294 -19.25746 -19.21840 -19.20998
 Alpha  occ. eigenvalues --  -19.20512 -14.41772 -14.40787 -14.39339 -14.39122
 Alpha  occ. eigenvalues --  -10.39270 -10.39111 -10.35555 -10.31891 -10.31417
 Alpha  occ. eigenvalues --  -10.30477 -10.30462 -10.30437 -10.29906 -10.29886
 Alpha  occ. eigenvalues --  -10.29715 -10.29318 -10.29014 -10.28983 -10.28915
 Alpha  occ. eigenvalues --  -10.28830 -10.28788 -10.28670 -10.28059 -10.27876
 Alpha  occ. eigenvalues --  -10.27794 -10.27732 -10.27663 -10.27599 -10.27524
 Alpha  occ. eigenvalues --  -10.27368 -10.27137 -10.27079 -10.26935 -10.26525
 Alpha  occ. eigenvalues --  -10.26385 -10.26360 -10.26265 -10.26050 -10.25996
 Alpha  occ. eigenvalues --  -10.25994 -10.25947 -10.25927 -10.25924 -10.25845
 Alpha  occ. eigenvalues --  -10.25777 -10.25741 -10.25667 -10.25617 -10.25615
 Alpha  occ. eigenvalues --  -10.25542 -10.25499 -10.25278 -10.25248 -10.24966
 Alpha  occ. eigenvalues --  -10.24696 -10.24503 -10.24159 -10.23652 -10.22973
 Alpha  occ. eigenvalues --   -3.14219  -1.88926  -1.88440  -1.88420  -1.18561
 Alpha  occ. eigenvalues --   -1.15807  -1.13584  -1.11245  -1.06924  -1.06054
 Alpha  occ. eigenvalues --   -1.05008  -1.02950  -1.01720  -0.92190  -0.91620
 Alpha  occ. eigenvalues --   -0.90785  -0.90093  -0.89604  -0.89097  -0.88774
 Alpha  occ. eigenvalues --   -0.88251  -0.88231  -0.87565  -0.87438  -0.86263
 Alpha  occ. eigenvalues --   -0.85154  -0.84621  -0.83287  -0.82676  -0.82337
 Alpha  occ. eigenvalues --   -0.81660  -0.80820  -0.80337  -0.80082  -0.78472
 Alpha  occ. eigenvalues --   -0.77652  -0.76880  -0.76668  -0.75686  -0.75473
 Alpha  occ. eigenvalues --   -0.75014  -0.74970  -0.74210  -0.73432  -0.72870
 Alpha  occ. eigenvalues --   -0.71079  -0.70747  -0.69832  -0.69605  -0.68787
 Alpha  occ. eigenvalues --   -0.67243  -0.66659  -0.65852  -0.64808  -0.64693
 Alpha  occ. eigenvalues --   -0.64180  -0.63373  -0.62693  -0.62444  -0.61904
 Alpha  occ. eigenvalues --   -0.61839  -0.61830  -0.60327  -0.60147  -0.59170
 Alpha  occ. eigenvalues --   -0.59000  -0.58513  -0.58233  -0.56842  -0.56527
 Alpha  occ. eigenvalues --   -0.56334  -0.55405  -0.55248  -0.55179  -0.54914
 Alpha  occ. eigenvalues --   -0.54609  -0.54457  -0.54256  -0.53791  -0.52943
 Alpha  occ. eigenvalues --   -0.52641  -0.52461  -0.52117  -0.52092  -0.51939
 Alpha  occ. eigenvalues --   -0.51423  -0.51177  -0.50879  -0.50660  -0.50400
 Alpha  occ. eigenvalues --   -0.50351  -0.50157  -0.50082  -0.49811  -0.49717
 Alpha  occ. eigenvalues --   -0.49534  -0.49181  -0.48807  -0.48661  -0.48431
 Alpha  occ. eigenvalues --   -0.48101  -0.48064  -0.47850  -0.47296  -0.46923
 Alpha  occ. eigenvalues --   -0.46743  -0.46426  -0.46393  -0.46321  -0.45966
 Alpha  occ. eigenvalues --   -0.45814  -0.45744  -0.45354  -0.45181  -0.44955
 Alpha  occ. eigenvalues --   -0.44941  -0.44659  -0.44568  -0.44410  -0.44269
 Alpha  occ. eigenvalues --   -0.44053  -0.43811  -0.43721  -0.43510  -0.43292
 Alpha  occ. eigenvalues --   -0.43121  -0.42871  -0.42795  -0.42609  -0.42364
 Alpha  occ. eigenvalues --   -0.42079  -0.41776  -0.41475  -0.41212  -0.41121
 Alpha  occ. eigenvalues --   -0.41008  -0.40846  -0.40599  -0.40575  -0.40429
 Alpha  occ. eigenvalues --   -0.40345  -0.40253  -0.39773  -0.39411  -0.38884
 Alpha  occ. eigenvalues --   -0.38834  -0.38385  -0.38258  -0.38027  -0.37717
 Alpha  occ. eigenvalues --   -0.37476  -0.37274  -0.37172  -0.36895  -0.36454
 Alpha  occ. eigenvalues --   -0.36435  -0.36414  -0.35772  -0.35684  -0.35586
 Alpha  occ. eigenvalues --   -0.35208  -0.35151  -0.34565  -0.34227  -0.33267
 Alpha  occ. eigenvalues --   -0.33135  -0.32549  -0.31625  -0.31060  -0.31036
 Alpha  occ. eigenvalues --   -0.30574  -0.30164  -0.27944  -0.27541  -0.22628
 Alpha  occ. eigenvalues --   -0.20963
 Alpha virt. eigenvalues --   -0.06992  -0.02729   0.01076   0.03605   0.04866
 Alpha virt. eigenvalues --    0.05299   0.05956   0.06543   0.06913   0.07584
 Alpha virt. eigenvalues --    0.08005   0.10226   0.11176   0.11586   0.11871

 Mulliken charges:
               1
     1  Mg   0.836756
     2  C    0.059029
     3  C   -0.192472
     4  C   -0.184759
     5  C   -0.191871
     6  N   -0.656067
     7  C    0.367668
     8  C   -0.197571
     9  C   -0.104572
    10  C    0.316288
    11  C   -0.285668
    12  C   -0.177200
    13  C   -0.270385
    14  C    0.623403
    15  O   -0.496300
    16  O   -0.502342
    17  N   -0.712220
    18  C    0.341133
    19  C   -0.021762
    20  C    0.054514
    21  C    0.270122
    22  C   -0.358541
    23  C   -0.093091
    24  C   -0.240510
    25  N   -0.675220
    26  C    0.297895
    27  C    0.028007
    28  C   -0.008263
    29  C    0.317489
    30  C   -0.355357
    31  C   -0.245315
    32  C   -0.321717
    33  N   -0.698050
    34  C    0.215246
    35  C    0.054617
    36  C    0.003716
    37  C    0.292072
    38  C   -0.396581
    39  C    0.365866
    40  O   -0.418761
    41  C   -0.356155
    42  C    0.649041
    43  O   -0.433014
    44  O   -0.452449
    45  C   -0.065825
    46  C    0.014575
    47  C   -0.150772
    48  C    0.114323
    49  C   -0.332948
    50  C   -0.233204
    51  C   -0.165735
    52  C   -0.170336
    53  C   -0.043340
    54  C   -0.311013
    55  C   -0.156571
    56  C   -0.190160
    57  C   -0.163018
    58  C   -0.067140
    59  C   -0.309203
    60  C   -0.187252
    61  C   -0.172143
    62  C   -0.169090
    63  C   -0.043165
    64  C   -0.307177
    65  C   -0.305071
    66  H    0.069812
    67  H    0.085143
    68  H    0.096092
    69  H    0.110408
    70  H    0.106357
    71  H    0.081795
    72  H    0.104234
    73  H    0.127005
    74  H    0.138421
    75  H    0.109578
    76  H    0.125332
    77  H    0.141605
    78  H    0.114443
    79  H    0.124919
    80  H    0.077674
    81  H    0.109495
    82  H    0.097779
    83  H    0.114292
    84  H    0.132698
    85  H    0.098445
    86  H    0.132291
    87  H    0.112615
    88  H    0.116217
    89  H    0.106486
    90  H    0.105125
    91  H    0.105793
    92  H    0.130406
    93  H    0.149435
    94  H    0.111366
    95  H    0.154827
    96  H    0.041078
    97  H    0.130190
    98  H    0.127751
    99  H    0.137008
   100  H    0.135081
   101  H    0.092157
   102  H    0.121436
   103  H    0.124306
   104  H    0.093279
   105  H    0.092847
   106  H    0.095134
   107  H    0.088885
   108  H    0.097440
   109  H    0.078699
   110  H    0.079273
   111  H    0.089253
   112  H    0.096964
   113  H    0.116322
   114  H    0.050956
   115  H    0.072236
   116  H    0.106159
   117  H    0.100840
   118  H    0.082866
   119  H    0.086076
   120  H    0.075452
   121  H    0.087046
   122  H    0.106294
   123  H    0.089811
   124  H    0.108659
   125  H    0.056378
   126  H    0.082574
   127  H    0.104121
   128  H    0.114113
   129  H    0.097282
   130  H    0.102432
   131  H    0.058948
   132  H    0.065049
   133  H    0.126597
   134  H    0.095938
   135  H    0.079628
   136  H    0.087338
   137  H    0.103638
 Sum of Mulliken charges =   0.00000

 Dipole moment (field-independent basis, Debye):
    X=              0.8609    Y=              4.1582    Z=             -1.0434  Tot=              4.3727
 Quadrupole moment (field-independent basis, Debye-Ang):
   XX=           -338.7764   YY=           -389.4930   ZZ=           -400.6956
   XY=            -15.6836   XZ=              8.2235   YZ=             -1.6918

 Normal termination of Gaussian 09 at Sat Jun 29 18:29:49 2019.
