 Gaussian 09, Revision D.01,
 Gaussian 09:  ES64L-G09RevD.01 24-Apr-2013

 -------------------------------------
 # td=(NStates=1) CAM-B3LYP/6-31G(d,p)
 -------------------------------------

 --
 TD
 --
 Symbolic Z-matrix:
 Charge =  0 Multiplicity = 1

                         Standard orientation:
 ---------------------------------------------------------------------
 Center     Atomic      Atomic             Coordinates (Angstroms)
 Number     Number       Type             X           Y           Z
 ---------------------------------------------------------------------
      1         12           0       -7.129519    0.650465    0.043069
      2          6           0       -4.876494   -1.878685    0.520269
      3          6           0       -4.788951    2.865813    1.099052
      4          6           0       -9.408748    3.044151   -0.473995
      5          6           0       -9.586921   -1.759582   -0.771777
      6          7           0       -5.074148    0.567334    0.637834
      7          6           0       -4.339525   -0.677704    0.770848
      8          6           0       -2.938781   -0.444878    1.235117
      9          6           0       -2.984304    1.158870    1.608130
     10          6           0       -4.313136    1.554025    1.074041
     11          6           0       -2.865717    1.396098    3.095620
     12          6           0       -1.831391   -0.683688    0.101397
     13          6           0       -0.439431   -0.420919    0.557822
     14          6           0        0.498228   -0.649345   -0.622854
     15          8           0        0.309977   -1.017009   -1.747282
     16          8           0        1.745277   -0.510470   -0.166062
     17          7           0       -7.011117    2.662302    0.229007
     18          6           0       -6.031404    3.356944    0.657085
     19          6           0       -6.366112    4.794063    0.826076
     20          6           0       -7.691354    4.864250    0.362924
     21          6           0       -8.235141    3.449586    0.092513
     22          6           0       -5.536713    5.890614    1.367111
     23          6           0       -8.633814    6.042543    0.395823
     24          6           0       -8.287355    7.220506    0.158470
     25          7           0       -9.148870    0.669294   -0.541169
     26          6           0       -9.910481    1.718332   -0.636075
     27          6           0      -11.231721    1.419812   -1.020787
     28          6           0      -11.301510   -0.012779   -1.200580
     29          6           0       -9.997669   -0.404805   -0.770740
     30          6           0      -12.229965    2.403572   -1.440508
     31          6           0      -12.482681   -0.649674   -1.761839
     32          6           0      -12.089222   -1.138960   -3.205934
     33          7           0       -7.257381   -1.436370   -0.065947
     34          6           0       -8.308655   -2.230604   -0.395203
     35          6           0       -7.902538   -3.646409   -0.561228
     36          6           0       -6.524711   -3.575082   -0.068683
     37          6           0       -6.239456   -2.218336    0.080781
     38          6           0       -8.740856   -4.870980   -0.852190
     39          6           0       -5.414761   -4.323901    0.272601
     40          8           0       -5.222814   -5.571325    0.248598
     41          6           0       -4.304876   -3.285003    0.564596
     42          6           0       -3.560892   -3.631017    1.894484
     43          8           0       -3.828023   -3.066184    2.914581
     44          8           0       -2.717635   -4.563918    1.745641
     45          6           0       -2.126895   -5.006117    2.974715
     46          6           0        2.771405   -0.738111   -1.194417
     47          6           0        4.120183   -0.497431   -0.530455
     48          6           0        5.149357    0.201281   -1.018473
     49          6           0        5.185256    1.031638   -2.292434
     50          6           0        6.433925    0.283376   -0.094341
     51          6           0        7.575031   -0.421972   -0.856045
     52          6           0        8.823383   -0.159831   -0.065179
     53          6           0       10.185025   -0.538907   -0.767561
     54          6           0       10.271415   -1.975200   -1.280192
     55          6           0       11.449169   -0.191703   -0.015740
     56          6           0       12.784499   -0.469900   -0.706803
     57          6           0       13.989517   -0.260173    0.293279
     58          6           0       15.397291   -0.234217   -0.476914
     59          6           0       15.676204   -1.647867   -0.890416
     60          6           0       16.511260    0.267837    0.434622
     61          6           0       17.900440    0.507386   -0.341307
     62          6           0       18.841768    1.234042    0.774985
     63          6           0       20.288124    1.439225    0.186395
     64          6           0       20.342069    2.175412   -1.157372
     65          6           0       21.054671    2.110829    1.252263
     66          1           0       -3.857141    3.485815    1.484245
     67          1           0      -10.019786    3.931968   -0.456180
     68          1           0      -10.412978   -2.410845   -0.999221
     69          1           0       -2.767774   -0.849257    2.231778
     70          1           0       -2.265155    1.706354    1.093554
     71          1           0       -1.853904    1.086577    3.610480
     72          1           0       -3.101843    2.624668    3.427879
     73          1           0       -3.555190    0.799636    3.787416
     74          1           0       -1.966306   -1.862371   -0.278023
     75          1           0       -2.110543   -0.262800   -0.874370
     76          1           0       -0.494468    0.449596    0.932734
     77          1           0       -0.256590   -1.024419    1.440877
     78          1           0       -4.725551    6.329455    0.814305
     79          1           0       -6.337967    6.682403    1.772729
     80          1           0       -4.854128    5.556351    2.200067
     81          1           0       -9.643616    5.968191    0.525545
     82          1           0       -9.081023    8.011605    0.382589
     83          1           0       -7.282506    7.694608   -0.413212
     84          1           0      -11.876122    2.875253   -2.445138
     85          1           0      -13.112111    1.874055   -1.629480
     86          1           0      -12.227514    3.290465   -0.730076
     87          1           0      -12.844160   -1.815590   -1.333305
     88          1           0      -13.313522    0.088244   -1.688682
     89          1           0      -12.919304   -1.771236   -3.620344
     90          1           0      -12.204229   -0.206061   -3.966753
     91          1           0      -11.245074   -1.857184   -3.262135
     92          1           0       -8.741634   -4.823136   -2.020656
     93          1           0       -8.313910   -5.831889   -0.470849
     94          1           0       -9.829988   -4.793478   -0.382767
     95          1           0       -3.517524   -3.498689   -0.251604
     96          1           0       -1.912014   -4.147016    3.489281
     97          1           0       -3.012984   -5.417623    3.501910
     98          1           0       -1.368118   -5.993175    2.731529
     99          1           0        2.628700   -1.876973   -1.513971
    100          1           0        2.505949    0.150359   -2.091600
    101          1           0        4.232091   -1.095356    0.531649
    102          1           0        4.116526    1.162317   -2.708311
    103          1           0        5.792850    1.919263   -2.144406
    104          1           0        5.754476    0.642093   -3.091287
    105          1           0        6.479957    1.383224    0.202618
    106          1           0        6.120779   -0.148527    0.851628
    107          1           0        7.219882   -1.413930   -0.973935
    108          1           0        7.625347    0.015862   -1.834335
    109          1           0        8.843351    0.830677    0.314667
    110          1           0        8.758787   -0.768419    0.942908
    111          1           0       10.354584    0.052923   -1.750404
    112          1           0        9.451680   -2.235813   -1.925281
    113          1           0       11.210777   -2.203830   -1.867236
    114          1           0       10.485098   -2.754779   -0.588508
    115          1           0       11.296724    0.907103    0.138805
    116          1           0       11.403280   -0.617483    1.040778
    117          1           0       12.879711   -1.442671   -1.018087
    118          1           0       12.767094    0.262756   -1.560698
    119          1           0       13.785294    0.716848    0.678591
    120          1           0       13.825838   -0.900122    1.213822
    121          1           0       15.164513    0.519739   -1.323169
    122          1           0       15.865605   -2.369521    0.129106
    123          1           0       15.026223   -2.116026   -1.571334
    124          1           0       16.577344   -1.808924   -1.644370
    125          1           0       16.120623    1.280957    0.951364
    126          1           0       16.657078   -0.411462    1.338857
    127          1           0       18.420041   -0.345150   -0.645597
    128          1           0       17.823844    1.387299   -1.065562
    129          1           0       18.131539    2.346616    1.058811
    130          1           0       18.967901    0.567232    1.715661
    131          1           0       20.512148    0.383088   -0.026496
    132          1           0       19.775146    3.298372   -1.005867
    133          1           0       21.241546    2.450439   -1.588834
    134          1           0       19.785484    1.394040   -1.767503
    135          1           0       20.800874    1.790853    2.257113
    136          1           0       22.180862    2.031501    1.041478
    137          1           0       20.779472    3.194156    1.310270
 ---------------------------------------------------------------------

 SCF Done:  E(RCAM-B3LYP) =  -2932.63313444     A.U. after   16 cycles

 Excitation energies and oscillator strengths:

 Excited State   1:      Singlet-A      2.2982 eV  539.48 nm  f=0.1890  <S**2>=0.000
     240 -> 242        0.10223
     240 -> 243        0.26430
     241 -> 242        0.63447
 This state for optimization and/or second-order correction.
 Total Energy, E(TD-HF/TD-KS) =  -2932.54867629
 Copying the excited state density for this state as the 1-particle RhoCI density.

 The electronic state is 1-A.
 Alpha  occ. eigenvalues --  -46.85312 -19.26590 -19.25498 -19.21006 -19.19308
 Alpha  occ. eigenvalues --  -19.17928 -14.40788 -14.39533 -14.39463 -14.39254
 Alpha  occ. eigenvalues --  -10.38974 -10.37786 -10.34176 -10.32956 -10.32111
 Alpha  occ. eigenvalues --  -10.30736 -10.30467 -10.30259 -10.29818 -10.29312
 Alpha  occ. eigenvalues --  -10.29210 -10.28989 -10.28785 -10.28766 -10.28602
 Alpha  occ. eigenvalues --  -10.28540 -10.28497 -10.28288 -10.28166 -10.28043
 Alpha  occ. eigenvalues --  -10.27917 -10.27886 -10.27747 -10.27555 -10.27486
 Alpha  occ. eigenvalues --  -10.27344 -10.27303 -10.27212 -10.27089 -10.27041
 Alpha  occ. eigenvalues --  -10.26998 -10.26854 -10.26684 -10.26632 -10.26339
 Alpha  occ. eigenvalues --  -10.26323 -10.26301 -10.26222 -10.26188 -10.26167
 Alpha  occ. eigenvalues --  -10.26118 -10.26118 -10.26005 -10.25936 -10.25839
 Alpha  occ. eigenvalues --  -10.25825 -10.25415 -10.25351 -10.25098 -10.25024
 Alpha  occ. eigenvalues --  -10.24966 -10.24632 -10.24265 -10.24029 -10.23586
 Alpha  occ. eigenvalues --   -3.14147  -1.88875  -1.88403  -1.88288  -1.21146
 Alpha  occ. eigenvalues --   -1.18762  -1.09538  -1.09050  -1.06838  -1.05307
 Alpha  occ. eigenvalues --   -1.04540  -1.03727  -1.02304  -0.92159  -0.90917
 Alpha  occ. eigenvalues --   -0.90268  -0.89997  -0.89662  -0.89634  -0.89007
 Alpha  occ. eigenvalues --   -0.88427  -0.87842  -0.87297  -0.86649  -0.86144
 Alpha  occ. eigenvalues --   -0.85114  -0.84890  -0.83747  -0.83434  -0.82146
 Alpha  occ. eigenvalues --   -0.81844  -0.80643  -0.80388  -0.79528  -0.77943
 Alpha  occ. eigenvalues --   -0.77386  -0.76775  -0.76232  -0.75658  -0.75233
 Alpha  occ. eigenvalues --   -0.74768  -0.74483  -0.73446  -0.72610  -0.72098
 Alpha  occ. eigenvalues --   -0.71391  -0.70072  -0.69555  -0.68445  -0.67910
 Alpha  occ. eigenvalues --   -0.67004  -0.66357  -0.65318  -0.65245  -0.64872
 Alpha  occ. eigenvalues --   -0.63833  -0.62738  -0.62609  -0.62415  -0.61671
 Alpha  occ. eigenvalues --   -0.60870  -0.60550  -0.60150  -0.59713  -0.58466
 Alpha  occ. eigenvalues --   -0.58211  -0.57997  -0.57683  -0.57073  -0.56641
 Alpha  occ. eigenvalues --   -0.56449  -0.55504  -0.55205  -0.55002  -0.54741
 Alpha  occ. eigenvalues --   -0.54238  -0.53823  -0.53687  -0.53598  -0.53230
 Alpha  occ. eigenvalues --   -0.52914  -0.52492  -0.52232  -0.51987  -0.51621
 Alpha  occ. eigenvalues --   -0.51256  -0.51121  -0.50774  -0.50386  -0.50244
 Alpha  occ. eigenvalues --   -0.50056  -0.49816  -0.49590  -0.49298  -0.49069
 Alpha  occ. eigenvalues --   -0.48952  -0.48730  -0.48588  -0.48554  -0.47904
 Alpha  occ. eigenvalues --   -0.47692  -0.47200  -0.47159  -0.47112  -0.47068
 Alpha  occ. eigenvalues --   -0.46682  -0.46278  -0.46124  -0.46090  -0.45509
 Alpha  occ. eigenvalues --   -0.45261  -0.45115  -0.44952  -0.44901  -0.44802
 Alpha  occ. eigenvalues --   -0.44648  -0.44464  -0.44327  -0.44298  -0.44123
 Alpha  occ. eigenvalues --   -0.43888  -0.43244  -0.42956  -0.42835  -0.42711
 Alpha  occ. eigenvalues --   -0.42439  -0.42348  -0.42301  -0.42217  -0.41879
 Alpha  occ. eigenvalues --   -0.41739  -0.41393  -0.41201  -0.41087  -0.41012
 Alpha  occ. eigenvalues --   -0.40977  -0.40748  -0.40452  -0.40135  -0.40067
 Alpha  occ. eigenvalues --   -0.39888  -0.39609  -0.39534  -0.39303  -0.38912
 Alpha  occ. eigenvalues --   -0.38884  -0.38412  -0.38248  -0.38185  -0.37961
 Alpha  occ. eigenvalues --   -0.37259  -0.37252  -0.36704  -0.36365  -0.36216
 Alpha  occ. eigenvalues --   -0.36077  -0.36049  -0.35970  -0.35821  -0.35506
 Alpha  occ. eigenvalues --   -0.35230  -0.34800  -0.34755  -0.34217  -0.33226
 Alpha  occ. eigenvalues --   -0.32719  -0.32474  -0.31899  -0.30766  -0.29941
 Alpha  occ. eigenvalues --   -0.28905  -0.28445  -0.28254  -0.27227  -0.22947
 Alpha  occ. eigenvalues --   -0.22174
 Alpha virt. eigenvalues --   -0.05981  -0.02744   0.01896   0.05089   0.05790
 Alpha virt. eigenvalues --    0.06469   0.06673   0.06904   0.06934   0.08358
 Alpha virt. eigenvalues --    0.08791   0.10029   0.10793   0.11115   0.11408

 Mulliken charges:
               1
     1  Mg   0.827167
     2  C    0.129245
     3  C   -0.225284
     4  C   -0.156432
     5  C   -0.134463
     6  N   -0.641684
     7  C    0.256775
     8  C   -0.168722
     9  C   -0.150853
    10  C    0.383984
    11  C   -0.307120
    12  C   -0.191214
    13  C   -0.242159
    14  C    0.609579
    15  O   -0.466515
    16  O   -0.477693
    17  N   -0.715096
    18  C    0.385182
    19  C    0.053781
    20  C   -0.030241
    21  C    0.240017
    22  C   -0.382444
    23  C   -0.054071
    24  C   -0.242167
    25  N   -0.667909
    26  C    0.340264
    27  C   -0.030485
    28  C    0.107915
    29  C    0.225482
    30  C   -0.355456
    31  C   -0.256549
    32  C   -0.304502
    33  N   -0.686609
    34  C    0.233642
    35  C    0.020916
    36  C    0.048425
    37  C    0.260299
    38  C   -0.362162
    39  C    0.324775
    40  O   -0.519513
    41  C   -0.348351
    42  C    0.608640
    43  O   -0.495291
    44  O   -0.400172
    45  C   -0.098458
    46  C    0.022757
    47  C   -0.134557
    48  C    0.105617
    49  C   -0.363092
    50  C   -0.237630
    51  C   -0.165796
    52  C   -0.167851
    53  C   -0.051018
    54  C   -0.323070
    55  C   -0.180210
    56  C   -0.174888
    57  C   -0.193639
    58  C   -0.045571
    59  C   -0.286610
    60  C   -0.159361
    61  C   -0.194728
    62  C   -0.155749
    63  C   -0.054014
    64  C   -0.284112
    65  C   -0.297583
    66  H    0.062079
    67  H    0.082115
    68  H    0.098625
    69  H    0.138754
    70  H    0.119125
    71  H    0.098337
    72  H    0.077156
    73  H    0.129566
    74  H    0.083842
    75  H    0.132290
    76  H    0.140080
    77  H    0.143986
    78  H    0.132152
    79  H    0.116323
    80  H    0.112271
    81  H    0.101247
    82  H    0.086522
    83  H    0.101561
    84  H    0.113831
    85  H    0.104674
    86  H    0.111760
    87  H    0.075008
    88  H    0.112428
    89  H    0.097581
    90  H    0.096888
    91  H    0.124885
    92  H    0.125633
    93  H    0.157910
    94  H    0.111142
    95  H    0.151534
    96  H    0.146711
    97  H    0.139068
    98  H    0.120273
    99  H    0.127931
   100  H    0.097397
   101  H    0.085225
   102  H    0.104620
   103  H    0.118116
   104  H    0.131423
   105  H    0.095695
   106  H    0.104329
   107  H    0.119604
   108  H    0.101400
   109  H    0.102297
   110  H    0.077412
   111  H    0.065384
   112  H    0.099013
   113  H    0.091235
   114  H    0.101445
   115  H    0.081281
   116  H    0.074017
   117  H    0.110804
   118  H    0.086229
   119  H    0.090925
   120  H    0.086457
   121  H    0.084768
   122  H    0.075473
   123  H    0.111875
   124  H    0.074063
   125  H    0.071171
   126  H    0.087131
   127  H    0.108607
   128  H    0.112326
   129  H    0.036409
   130  H    0.086716
   131  H    0.090265
   132  H    0.063540
   133  H    0.115686
   134  H    0.098299
   135  H    0.099614
   136  H    0.084173
   137  H    0.098926
 Sum of Mulliken charges =   0.00000

 Dipole moment (field-independent basis, Debye):
    X=              1.1361    Y=              4.7140    Z=             -0.1193  Tot=              4.8505
 Quadrupole moment (field-independent basis, Debye-Ang):
   XX=           -331.8533   YY=           -396.3833   ZZ=           -397.3001
   XY=            -29.9258   XZ=              8.4209   YZ=             -2.0812

 Normal termination of Gaussian 09 at Sat Jun 29 13:35:10 2019.
