 Gaussian 09, Revision D.01,
 Gaussian 09:  ES64L-G09RevD.01 24-Apr-2013

 -------------------------------------
 # td=(NStates=1) CAM-B3LYP/6-31G(d,p)
 -------------------------------------

 --
 TD
 --
 Symbolic Z-matrix:
 Charge =  0 Multiplicity = 1

                         Standard orientation:
 ---------------------------------------------------------------------
 Center     Atomic      Atomic             Coordinates (Angstroms)
 Number     Number       Type             X           Y           Z
 ---------------------------------------------------------------------
      1         12           0       -7.118212    0.596596    0.133158
      2          6           0       -4.778642   -1.888306    0.580601
      3          6           0       -4.856488    2.810088    1.173659
      4          6           0       -9.545524    2.984579   -0.223823
      5          6           0       -9.425409   -1.774244   -0.852792
      6          7           0       -5.036264    0.467733    0.654732
      7          6           0       -4.356719   -0.705779    0.767822
      8          6           0       -2.957251   -0.310769    1.221888
      9          6           0       -2.985398    1.150105    1.519599
     10          6           0       -4.396424    1.546737    1.024606
     11          6           0       -2.858463    1.388487    3.131194
     12          6           0       -1.970519   -0.636856    0.070081
     13          6           0       -0.499338   -0.421364    0.435916
     14          6           0        0.541030   -0.621605   -0.633290
     15          8           0        0.207336   -1.016259   -1.738723
     16          8           0        1.737658   -0.311804   -0.252253
     17          7           0       -7.121459    2.621796    0.498062
     18          6           0       -6.112296    3.337255    0.873907
     19          6           0       -6.505052    4.819546    0.912544
     20          6           0       -7.862379    4.823996    0.436692
     21          6           0       -8.328489    3.426463    0.254570
     22          6           0       -5.646715    5.939235    1.383353
     23          6           0       -8.719398    6.025865    0.227120
     24          6           0       -8.377667    7.332015    0.033421
     25          7           0       -9.160224    0.599090   -0.438618
     26          6           0       -9.923274    1.709426   -0.568392
     27          6           0      -11.250677    1.316871   -1.096626
     28          6           0      -11.215714   -0.060801   -1.264358
     29          6           0       -9.946716   -0.531332   -0.830822
     30          6           0      -12.301612    2.304697   -1.338264
     31          6           0      -12.318929   -0.954243   -1.761100
     32          6           0      -12.191623   -1.222336   -3.370028
     33          7           0       -7.144381   -1.428188   -0.161993
     34          6           0       -8.247977   -2.262986   -0.469909
     35          6           0       -7.791382   -3.592578   -0.410241
     36          6           0       -6.412063   -3.559485    0.031245
     37          6           0       -6.104317   -2.171682    0.154187
     38          6           0       -8.618388   -4.892037   -0.648396
     39          6           0       -5.189255   -4.332968    0.276039
     40          8           0       -5.000113   -5.522672    0.206673
     41          6           0       -4.058123   -3.220060    0.498734
     42          6           0       -3.430246   -3.597067    1.883235
     43          8           0       -3.695368   -3.122560    2.940325
     44          8           0       -2.588157   -4.674768    1.741312
     45          6           0       -2.050636   -5.192916    2.952092
     46          6           0        2.781433   -0.489213   -1.329033
     47          6           0        4.195918   -0.437153   -0.680469
     48          6           0        5.074139    0.457439   -0.962517
     49          6           0        5.030446    1.362398   -2.221809
     50          6           0        6.370245    0.519907   -0.368792
     51          6           0        7.582259   -0.183127   -1.095350
     52          6           0        8.841940   -0.195336   -0.236897
     53          6           0       10.143028   -0.551883   -0.971800
     54          6           0       10.187265   -1.981017   -1.308364
     55          6           0       11.360350   -0.178439   -0.087240
     56          6           0       12.753616   -0.425751   -0.731433
     57          6           0       13.944413   -0.143986    0.257872
     58          6           0       15.326188   -0.272864   -0.357629
     59          6           0       15.640368   -1.749434   -0.693936
     60          6           0       16.368530    0.413262    0.468289
     61          6           0       17.799541    0.534889   -0.114574
     62          6           0       18.792455    1.262216    0.812514
     63          6           0       20.291350    1.316081    0.287086
     64          6           0       20.310081    2.056639   -1.107875
     65          6           0       21.116586    1.952445    1.275496
     66          1           0       -3.929688    3.467144    1.317682
     67          1           0      -10.193305    3.830860   -0.405913
     68          1           0      -10.114621   -2.639400   -1.179108
     69          1           0       -2.758189   -0.760494    1.987668
     70          1           0       -2.089038    1.651255    0.922091
     71          1           0       -1.833029    1.242603    3.298774
     72          1           0       -3.144784    2.437093    3.520838
     73          1           0       -3.547273    0.740176    3.462068
     74          1           0       -2.145499   -1.651911   -0.522040
     75          1           0       -2.423280    0.228644   -0.705718
     76          1           0       -0.292345    0.353777    0.799583
     77          1           0       -0.298953   -1.295230    1.027562
     78          1           0       -4.966364    6.380605    0.556813
     79          1           0       -6.050318    6.751372    1.878034
     80          1           0       -5.009204    5.508857    2.059869
     81          1           0       -9.822189    5.836443    0.285891
     82          1           0       -9.141900    8.198608    0.210056
     83          1           0       -7.180768    7.314446   -0.099382
     84          1           0      -12.095365    2.931581   -1.982417
     85          1           0      -13.179196    1.747531   -1.861247
     86          1           0      -12.531727    3.008216   -0.596537
     87          1           0      -12.247647   -1.971850   -1.232022
     88          1           0      -13.230352   -0.394006   -1.660659
     89          1           0      -12.974919   -1.733879   -3.639855
     90          1           0      -12.082511   -0.141672   -3.915356
     91          1           0      -11.292934   -1.917438   -3.613009
     92          1           0       -9.089483   -4.753372   -1.582422
     93          1           0       -7.875717   -5.845407   -0.796345
     94          1           0       -9.391759   -5.048911    0.231469
     95          1           0       -3.440800   -3.378669   -0.469888
     96          1           0       -1.408450   -4.437813    3.408164
     97          1           0       -2.916000   -5.636103    3.659574
     98          1           0       -1.536546   -6.147640    2.522552
     99          1           0        2.476138   -1.618706   -1.688666
    100          1           0        2.656904    0.220968   -2.153338
    101          1           0        4.279736   -1.076071    0.224861
    102          1           0        4.091308    1.406469   -2.619062
    103          1           0        5.275996    2.409771   -2.030033
    104          1           0        5.466660    0.806489   -3.014344
    105          1           0        6.793410    1.521274    0.110735
    106          1           0        6.421726   -0.108857    0.563913
    107          1           0        7.215031   -1.186824   -1.374338
    108          1           0        7.784684    0.509767   -2.069194
    109          1           0        8.971164    0.936744    0.036164
    110          1           0        8.874146   -0.806875    0.571497
    111          1           0       10.247820   -0.036069   -1.982869
    112          1           0        9.448886   -1.900176   -1.909620
    113          1           0       10.989912   -2.394342   -1.919464
    114          1           0       10.125946   -2.542124   -0.368270
    115          1           0       11.125141    0.948310   -0.000141
    116          1           0       11.144095   -0.786501    1.026801
    117          1           0       13.002925   -1.480701   -1.137354
    118          1           0       12.867732    0.196528   -1.483215
    119          1           0       13.924792    0.958747    0.620868
    120          1           0       14.104476   -0.709362    1.193979
    121          1           0       15.336646    0.131187   -1.365916
    122          1           0       15.684841   -2.501004    0.129885
    123          1           0       14.899200   -2.491716   -1.281933
    124          1           0       16.666722   -1.674967   -1.075296
    125          1           0       15.798724    1.299580    0.800339
    126          1           0       16.423705   -0.112946    1.417211
    127          1           0       18.081787   -0.619106   -0.339104
    128          1           0       17.802516    1.064780   -1.112001
    129          1           0       18.432088    2.224662    0.980405
    130          1           0       18.728072    0.728016    1.790010
    131          1           0       20.600835    0.364421    0.109965
    132          1           0       19.949126    3.054749   -0.940232
    133          1           0       21.237671    1.994866   -1.455421
    134          1           0       19.619838    1.429149   -1.796073
    135          1           0       20.851897    1.522437    2.305920
    136          1           0       22.258478    2.078906    1.011039
    137          1           0       20.628889    3.167299    1.445664
 ---------------------------------------------------------------------

 SCF Done:  E(RCAM-B3LYP) =  -2932.57849974     A.U. after   16 cycles

 Excitation energies and oscillator strengths:

 Excited State   1:      Singlet-A      2.2482 eV  551.48 nm  f=0.2712  <S**2>=0.000
     240 -> 242        0.10951
     240 -> 243       -0.22242
     241 -> 242        0.64921
 This state for optimization and/or second-order correction.
 Total Energy, E(TD-HF/TD-KS) =  -2932.49587990
 Copying the excited state density for this state as the 1-particle RhoCI density.

 The electronic state is 1-A.
 Alpha  occ. eigenvalues --  -46.84591 -19.27019 -19.24969 -19.21157 -19.19716
 Alpha  occ. eigenvalues --  -19.18969 -14.40379 -14.39966 -14.39565 -14.38664
 Alpha  occ. eigenvalues --  -10.38976 -10.37871 -10.34561 -10.33903 -10.31865
 Alpha  occ. eigenvalues --  -10.31144 -10.31070 -10.30370 -10.29209 -10.29110
 Alpha  occ. eigenvalues --  -10.28916 -10.28808 -10.28709 -10.28413 -10.28411
 Alpha  occ. eigenvalues --  -10.28172 -10.28125 -10.28114 -10.28056 -10.27899
 Alpha  occ. eigenvalues --  -10.27796 -10.27782 -10.27614 -10.27498 -10.27478
 Alpha  occ. eigenvalues --  -10.27427 -10.27390 -10.27254 -10.27176 -10.26807
 Alpha  occ. eigenvalues --  -10.26711 -10.26685 -10.26358 -10.26311 -10.26246
 Alpha  occ. eigenvalues --  -10.25914 -10.25745 -10.25650 -10.25458 -10.25290
 Alpha  occ. eigenvalues --  -10.25253 -10.25234 -10.25209 -10.25174 -10.25075
 Alpha  occ. eigenvalues --  -10.25051 -10.24994 -10.24946 -10.24822 -10.24736
 Alpha  occ. eigenvalues --  -10.24464 -10.24361 -10.24148 -10.23857 -10.22076
 Alpha  occ. eigenvalues --   -3.13463  -1.88198  -1.87683  -1.87629  -1.18946
 Alpha  occ. eigenvalues --   -1.17696  -1.10797  -1.09489  -1.07919  -1.05152
 Alpha  occ. eigenvalues --   -1.03237  -1.03067  -1.01737  -0.92868  -0.92665
 Alpha  occ. eigenvalues --   -0.91203  -0.90508  -0.90327  -0.89741  -0.89076
 Alpha  occ. eigenvalues --   -0.88713  -0.88246  -0.87508  -0.86650  -0.86179
 Alpha  occ. eigenvalues --   -0.84836  -0.84485  -0.83666  -0.83380  -0.83260
 Alpha  occ. eigenvalues --   -0.81323  -0.81079  -0.80525  -0.80299  -0.78490
 Alpha  occ. eigenvalues --   -0.78381  -0.77716  -0.77628  -0.75861  -0.75576
 Alpha  occ. eigenvalues --   -0.75332  -0.75132  -0.74885  -0.73478  -0.72928
 Alpha  occ. eigenvalues --   -0.71667  -0.70362  -0.70092  -0.69117  -0.67798
 Alpha  occ. eigenvalues --   -0.66736  -0.66291  -0.65660  -0.65431  -0.64610
 Alpha  occ. eigenvalues --   -0.63728  -0.63490  -0.62903  -0.62661  -0.61761
 Alpha  occ. eigenvalues --   -0.61662  -0.60617  -0.60403  -0.59517  -0.59286
 Alpha  occ. eigenvalues --   -0.58634  -0.58315  -0.58074  -0.57609  -0.57431
 Alpha  occ. eigenvalues --   -0.56383  -0.55651  -0.55498  -0.55306  -0.54784
 Alpha  occ. eigenvalues --   -0.54332  -0.54227  -0.53792  -0.53388  -0.53219
 Alpha  occ. eigenvalues --   -0.52952  -0.52710  -0.52542  -0.51990  -0.51632
 Alpha  occ. eigenvalues --   -0.51445  -0.51103  -0.51002  -0.50858  -0.50776
 Alpha  occ. eigenvalues --   -0.50651  -0.50243  -0.50078  -0.49929  -0.49746
 Alpha  occ. eigenvalues --   -0.49533  -0.49212  -0.49149  -0.49090  -0.48742
 Alpha  occ. eigenvalues --   -0.48594  -0.48427  -0.48233  -0.47486  -0.47249
 Alpha  occ. eigenvalues --   -0.47016  -0.46885  -0.46689  -0.46418  -0.46099
 Alpha  occ. eigenvalues --   -0.45736  -0.45445  -0.45265  -0.45257  -0.45009
 Alpha  occ. eigenvalues --   -0.44923  -0.44798  -0.44472  -0.44320  -0.44312
 Alpha  occ. eigenvalues --   -0.44160  -0.43669  -0.43608  -0.43515  -0.43367
 Alpha  occ. eigenvalues --   -0.43281  -0.42989  -0.42831  -0.42360  -0.42192
 Alpha  occ. eigenvalues --   -0.41770  -0.41707  -0.41523  -0.41116  -0.40967
 Alpha  occ. eigenvalues --   -0.40864  -0.40494  -0.40398  -0.40303  -0.40215
 Alpha  occ. eigenvalues --   -0.40080  -0.39551  -0.39420  -0.39333  -0.39039
 Alpha  occ. eigenvalues --   -0.38963  -0.38736  -0.38505  -0.37906  -0.37724
 Alpha  occ. eigenvalues --   -0.37329  -0.37311  -0.36947  -0.36666  -0.36330
 Alpha  occ. eigenvalues --   -0.36155  -0.36099  -0.35829  -0.35677  -0.35505
 Alpha  occ. eigenvalues --   -0.35410  -0.35404  -0.35235  -0.33787  -0.33765
 Alpha  occ. eigenvalues --   -0.32767  -0.32649  -0.32298  -0.31613  -0.30546
 Alpha  occ. eigenvalues --   -0.29300  -0.28645  -0.27830  -0.27251  -0.23750
 Alpha  occ. eigenvalues --   -0.22127
 Alpha virt. eigenvalues --   -0.06550  -0.02577   0.02201   0.03744   0.05256
 Alpha virt. eigenvalues --    0.06222   0.06409   0.06643   0.07806   0.08683
 Alpha virt. eigenvalues --    0.09555   0.10537   0.11522   0.11797   0.12048

 Mulliken charges:
               1
     1  Mg   0.804227
     2  C    0.144455
     3  C   -0.209936
     4  C   -0.168095
     5  C   -0.176655
     6  N   -0.667638
     7  C    0.289351
     8  C   -0.094556
     9  C   -0.190550
    10  C    0.364265
    11  C   -0.303793
    12  C   -0.179209
    13  C   -0.196416
    14  C    0.574914
    15  O   -0.496461
    16  O   -0.462329
    17  N   -0.724990
    18  C    0.375169
    19  C    0.002308
    20  C   -0.004889
    21  C    0.279455
    22  C   -0.380473
    23  C   -0.070699
    24  C   -0.259458
    25  N   -0.703957
    26  C    0.339041
    27  C   -0.000007
    28  C    0.057622
    29  C    0.278966
    30  C   -0.365371
    31  C   -0.251063
    32  C   -0.299432
    33  N   -0.754374
    34  C    0.297699
    35  C   -0.013268
    36  C    0.000330
    37  C    0.292981
    38  C   -0.360992
    39  C    0.349162
    40  O   -0.455753
    41  C   -0.350162
    42  C    0.629999
    43  O   -0.452487
    44  O   -0.459356
    45  C   -0.076239
    46  C    0.000684
    47  C   -0.135785
    48  C    0.145007
    49  C   -0.367007
    50  C   -0.243131
    51  C   -0.172358
    52  C   -0.149788
    53  C   -0.101684
    54  C   -0.275829
    55  C   -0.145055
    56  C   -0.166994
    57  C   -0.175993
    58  C   -0.061271
    59  C   -0.316810
    60  C   -0.176865
    61  C   -0.182017
    62  C   -0.173351
    63  C   -0.051564
    64  C   -0.302223
    65  C   -0.272114
    66  H    0.081734
    67  H    0.089339
    68  H    0.091730
    69  H    0.101243
    70  H    0.089184
    71  H    0.119091
    72  H    0.099630
    73  H    0.138527
    74  H    0.111938
    75  H    0.070554
    76  H    0.103830
    77  H    0.137478
    78  H    0.114621
    79  H    0.140542
    80  H    0.128711
    81  H    0.082601
    82  H    0.123038
    83  H    0.097697
    84  H    0.138179
    85  H    0.092967
    86  H    0.120559
    87  H    0.102993
    88  H    0.111484
    89  H    0.123449
    90  H    0.092774
    91  H    0.097666
    92  H    0.125812
    93  H    0.132899
    94  H    0.121215
    95  H    0.168724
    96  H    0.126579
    97  H    0.115270
    98  H    0.120359
    99  H    0.124627
   100  H    0.134819
   101  H    0.098736
   102  H    0.107071
   103  H    0.121858
   104  H    0.139091
   105  H    0.089058
   106  H    0.091218
   107  H    0.107263
   108  H    0.077515
   109  H    0.080625
   110  H    0.104461
   111  H    0.069553
   112  H    0.108616
   113  H    0.097383
   114  H    0.087971
   115  H    0.080610
   116  H    0.047715
   117  H    0.090928
   118  H    0.112526
   119  H    0.065956
   120  H    0.092364
   121  H    0.086223
   122  H    0.089101
   123  H    0.083552
   124  H    0.098146
   125  H    0.087473
   126  H    0.091287
   127  H    0.075308
   128  H    0.093406
   129  H    0.103695
   130  H    0.084060
   131  H    0.099608
   132  H    0.105592
   133  H    0.109129
   134  H    0.089733
   135  H    0.100812
   136  H    0.093622
   137  H    0.039679
 Sum of Mulliken charges =   0.00000

 Dipole moment (field-independent basis, Debye):
    X=              1.4446    Y=              5.2795    Z=             -0.2541  Tot=              5.4795
 Quadrupole moment (field-independent basis, Debye-Ang):
   XX=           -329.2972   YY=           -392.9350   ZZ=           -400.1873
   XY=            -28.4259   XZ=              7.9288   YZ=             -0.1958

 Normal termination of Gaussian 09 at Fri Jun 28 16:58:04 2019.
