 Gaussian 09, Revision D.01,
 Gaussian 09:  ES64L-G09RevD.01 24-Apr-2013

 -------------------------------------
 # td=(NStates=1) CAM-B3LYP/6-31G(d,p)
 -------------------------------------

 --
 TD
 --
 Symbolic Z-matrix:
 Charge =  0 Multiplicity = 1

                         Standard orientation:
 ---------------------------------------------------------------------
 Center     Atomic      Atomic             Coordinates (Angstroms)
 Number     Number       Type             X           Y           Z
 ---------------------------------------------------------------------
      1         12           0       -7.097724    0.530346    0.077083
      2          6           0       -4.851695   -1.925310    0.489743
      3          6           0       -4.765242    2.817577    0.975585
      4          6           0       -9.451099    3.079066   -0.273843
      5          6           0       -9.535368   -1.750770   -0.777642
      6          7           0       -5.077977    0.402305    0.703310
      7          6           0       -4.284536   -0.762560    0.908627
      8          6           0       -2.908815   -0.454032    1.318155
      9          6           0       -2.976836    1.063037    1.704773
     10          6           0       -4.390478    1.475000    1.123445
     11          6           0       -2.969082    1.200615    3.177762
     12          6           0       -1.959912   -0.607597    0.122088
     13          6           0       -0.502960   -0.408354    0.416051
     14          6           0        0.473781   -0.639374   -0.817338
     15          8           0        0.092191   -1.042019   -1.858859
     16          8           0        1.773617   -0.421560   -0.366995
     17          7           0       -7.120525    2.612644    0.531207
     18          6           0       -6.002021    3.305638    0.775110
     19          6           0       -6.447872    4.740002    0.859937
     20          6           0       -7.745552    4.829339    0.464436
     21          6           0       -8.190474    3.436811    0.264478
     22          6           0       -5.514310    5.844056    1.313339
     23          6           0       -8.687111    5.916933    0.335871
     24          6           0       -8.388923    7.154063    0.012657
     25          7           0       -9.154696    0.680823   -0.666333
     26          6           0       -9.865669    1.784367   -0.604461
     27          6           0      -11.158290    1.505160   -0.954167
     28          6           0      -11.257944    0.086361   -1.172836
     29          6           0       -9.965217   -0.395037   -0.861266
     30          6           0      -12.175229    2.497460   -1.282802
     31          6           0      -12.424137   -0.704316   -1.551828
     32          6           0      -12.394480   -0.982796   -3.058090
     33          7           0       -7.224499   -1.424513   -0.155078
     34          6           0       -8.267276   -2.305366   -0.462895
     35          6           0       -7.779927   -3.606340   -0.521045
     36          6           0       -6.377325   -3.490766   -0.187251
     37          6           0       -6.148440   -2.102730    0.031157
     38          6           0       -8.713295   -4.849086   -1.001053
     39          6           0       -5.261781   -4.351792    0.156045
     40          8           0       -5.152758   -5.609262    0.159876
     41          6           0       -4.165782   -3.304279    0.502348
     42          6           0       -3.573321   -3.738584    1.926226
     43          8           0       -3.823643   -3.165113    2.898749
     44          8           0       -2.627998   -4.771777    1.648362
     45          6           0       -2.006191   -5.159883    2.848864
     46          6           0        2.739143   -0.662119   -1.369261
     47          6           0        4.032466   -0.476509   -0.584622
     48          6           0        5.054048    0.320534   -0.959739
     49          6           0        4.967304    1.319139   -2.072373
     50          6           0        6.329863    0.306901   -0.180132
     51          6           0        7.684340   -0.228042   -0.948435
     52          6           0        8.923343   -0.118979   -0.140492
     53          6           0       10.159186   -0.515553   -0.819567
     54          6           0       10.171429   -1.917365   -1.258857
     55          6           0       11.428699   -0.143931    0.043914
     56          6           0       12.733735   -0.455160   -0.582513
     57          6           0       13.977195   -0.002477    0.208421
     58          6           0       15.366240   -0.018712   -0.481514
     59          6           0       15.718057   -1.525430   -0.955723
     60          6           0       16.400512    0.510586    0.523358
     61          6           0       17.769714    0.457324   -0.028712
     62          6           0       18.829946    1.196117    0.802880
     63          6           0       20.245722    1.186776    0.200511
     64          6           0       20.332527    1.967787   -1.031563
     65          6           0       21.331145    1.916629    1.130057
     66          1           0       -3.919642    3.522477    1.264118
     67          1           0      -10.151015    3.915448   -0.500898
     68          1           0      -10.271799   -2.530120   -0.991881
     69          1           0       -2.741923   -1.218233    2.044938
     70          1           0       -2.158719    1.621337    1.307164
     71          1           0       -1.816707    1.060108    3.691047
     72          1           0       -3.159583    2.335051    3.392363
     73          1           0       -3.814576    0.676173    3.847034
     74          1           0       -2.179286   -1.618299   -0.469284
     75          1           0       -2.242719    0.055344   -0.805794
     76          1           0       -0.167378    0.578637    0.864332
     77          1           0       -0.085968   -1.113041    1.078539
     78          1           0       -4.757230    6.040577    0.659583
     79          1           0       -5.844426    6.836409    1.524111
     80          1           0       -5.113356    5.532693    2.143130
     81          1           0       -9.611225    5.705144    0.526268
     82          1           0       -9.157948    7.914994   -0.017194
     83          1           0       -7.497284    7.493905   -0.222602
     84          1           0      -12.023084    3.189336   -2.111450
     85          1           0      -13.149197    1.994533   -1.513456
     86          1           0      -12.266234    3.377100   -0.466831
     87          1           0      -12.561171   -1.603109   -1.037332
     88          1           0      -13.357895   -0.161046   -1.362513
     89          1           0      -13.331900   -1.681395   -3.172012
     90          1           0      -12.487509   -0.031569   -3.685010
     91          1           0      -11.485226   -1.418824   -3.440401
     92          1           0       -8.906173   -4.540211   -2.083757
     93          1           0       -8.213585   -5.781396   -0.938863
     94          1           0       -9.602062   -4.863200   -0.327736
     95          1           0       -3.438348   -3.256523   -0.268739
     96          1           0       -1.669214   -4.085350    3.309195
     97          1           0       -2.571999   -5.719545    3.614188
     98          1           0       -1.145612   -5.895146    2.824005
     99          1           0        2.574021   -1.751394   -1.815327
    100          1           0        2.468449    0.025783   -2.203068
    101          1           0        4.164666   -1.150864    0.146228
    102          1           0        3.923358    1.515559   -2.329202
    103          1           0        5.737264    2.239420   -1.886780
    104          1           0        5.349117    0.781402   -2.936913
    105          1           0        6.782796    1.406682   -0.157236
    106          1           0        6.317400   -0.032944    0.993923
    107          1           0        7.517830   -1.289832   -1.248423
    108          1           0        7.723884    0.477103   -1.860491
    109          1           0        9.065709    0.978406   -0.023157
    110          1           0        8.772938   -0.756786    0.715188
    111          1           0       10.204673    0.301692   -1.658937
    112          1           0        9.357440   -2.200885   -1.894432
    113          1           0       11.225548   -2.141160   -1.765159
    114          1           0       10.124067   -2.602122   -0.352718
    115          1           0       11.278256    0.887772    0.295544
    116          1           0       11.398674   -1.043398    0.838109
    117          1           0       12.711058   -1.533728   -0.927775
    118          1           0       12.749350    0.184790   -1.538394
    119          1           0       13.792390    0.985691    0.643930
    120          1           0       14.081519   -0.779516    1.017982
    121          1           0       15.582696    0.475355   -1.361078
    122          1           0       15.984760   -2.066214   -0.032954
    123          1           0       14.768449   -1.945781   -1.472022
    124          1           0       16.748729   -1.343392   -1.699820
    125          1           0       16.084928    1.572616    0.697165
    126          1           0       16.206039    0.155556    1.668697
    127          1           0       18.050347   -0.485181   -0.109810
    128          1           0       17.855032    0.870876   -1.197190
    129          1           0       18.543201    2.215514    0.990689
    130          1           0       19.000307    0.637034    1.751203
    131          1           0       20.833137    0.266668    0.030534
    132          1           0       20.180118    3.192682   -1.059417
    133          1           0       21.481316    1.882972   -1.487641
    134          1           0       19.519642    1.379037   -1.686092
    135          1           0       21.235304    1.437626    2.172725
    136          1           0       22.356944    2.080313    0.845850
    137          1           0       20.903092    2.771105    1.381284
 ---------------------------------------------------------------------

 SCF Done:  E(RCAM-B3LYP) =  -2932.68240579     A.U. after   17 cycles

 Excitation energies and oscillator strengths:

 Excited State   1:      Singlet-A      2.2280 eV  556.47 nm  f=0.1872  <S**2>=0.000
     240 -> 243       -0.27647
     241 -> 242        0.64065
 This state for optimization and/or second-order correction.
 Total Energy, E(TD-HF/TD-KS) =  -2932.60052713
 Copying the excited state density for this state as the 1-particle RhoCI density.

 The electronic state is 1-A.
 Alpha  occ. eigenvalues --  -46.85209 -19.26565 -19.26361 -19.23823 -19.22676
 Alpha  occ. eigenvalues --  -19.19128 -14.42122 -14.39385 -14.39110 -14.37967
 Alpha  occ. eigenvalues --  -10.40500 -10.39807 -10.34185 -10.32760 -10.32213
 Alpha  occ. eigenvalues --  -10.31920 -10.30540 -10.30250 -10.29932 -10.28955
 Alpha  occ. eigenvalues --  -10.28848 -10.28598 -10.28466 -10.28392 -10.28390
 Alpha  occ. eigenvalues --  -10.28372 -10.28302 -10.28219 -10.27829 -10.27827
 Alpha  occ. eigenvalues --  -10.27717 -10.27543 -10.27502 -10.27410 -10.27075
 Alpha  occ. eigenvalues --  -10.27075 -10.26984 -10.26962 -10.26941 -10.26909
 Alpha  occ. eigenvalues --  -10.26576 -10.26464 -10.26146 -10.26085 -10.26071
 Alpha  occ. eigenvalues --  -10.26034 -10.25956 -10.25938 -10.25903 -10.25837
 Alpha  occ. eigenvalues --  -10.25717 -10.25680 -10.25586 -10.25575 -10.25561
 Alpha  occ. eigenvalues --  -10.25549 -10.25474 -10.25457 -10.25277 -10.24820
 Alpha  occ. eigenvalues --  -10.24761 -10.24625 -10.24610 -10.23823 -10.23287
 Alpha  occ. eigenvalues --   -3.14045  -1.88770  -1.88273  -1.88213  -1.19476
 Alpha  occ. eigenvalues --   -1.18730  -1.12194  -1.11858  -1.07334  -1.05238
 Alpha  occ. eigenvalues --   -1.04244  -1.03998  -1.03040  -0.92768  -0.92272
 Alpha  occ. eigenvalues --   -0.90896  -0.90742  -0.90346  -0.90000  -0.88998
 Alpha  occ. eigenvalues --   -0.88689  -0.88191  -0.87631  -0.86626  -0.86078
 Alpha  occ. eigenvalues --   -0.85600  -0.84959  -0.83438  -0.83031  -0.82691
 Alpha  occ. eigenvalues --   -0.81794  -0.81033  -0.80099  -0.79920  -0.78789
 Alpha  occ. eigenvalues --   -0.78034  -0.76758  -0.76314  -0.75361  -0.75189
 Alpha  occ. eigenvalues --   -0.74827  -0.74611  -0.73970  -0.73517  -0.72952
 Alpha  occ. eigenvalues --   -0.71384  -0.70202  -0.69798  -0.69164  -0.68802
 Alpha  occ. eigenvalues --   -0.67537  -0.66909  -0.66197  -0.65003  -0.64488
 Alpha  occ. eigenvalues --   -0.63728  -0.63493  -0.62851  -0.62289  -0.62063
 Alpha  occ. eigenvalues --   -0.61527  -0.61392  -0.61092  -0.60124  -0.59378
 Alpha  occ. eigenvalues --   -0.58994  -0.58699  -0.58259  -0.57950  -0.56781
 Alpha  occ. eigenvalues --   -0.56562  -0.56248  -0.55892  -0.55437  -0.55153
 Alpha  occ. eigenvalues --   -0.54976  -0.54794  -0.54128  -0.53733  -0.53397
 Alpha  occ. eigenvalues --   -0.53096  -0.52636  -0.52591  -0.52316  -0.52094
 Alpha  occ. eigenvalues --   -0.51747  -0.51540  -0.51137  -0.50972  -0.50910
 Alpha  occ. eigenvalues --   -0.50529  -0.50434  -0.50121  -0.49875  -0.49799
 Alpha  occ. eigenvalues --   -0.49481  -0.49168  -0.49066  -0.48501  -0.48334
 Alpha  occ. eigenvalues --   -0.48269  -0.47901  -0.47774  -0.47440  -0.47245
 Alpha  occ. eigenvalues --   -0.47216  -0.46840  -0.46639  -0.46519  -0.46266
 Alpha  occ. eigenvalues --   -0.45932  -0.45816  -0.45789  -0.45567  -0.45497
 Alpha  occ. eigenvalues --   -0.45178  -0.44907  -0.44712  -0.44346  -0.44288
 Alpha  occ. eigenvalues --   -0.44272  -0.43888  -0.43776  -0.43449  -0.43371
 Alpha  occ. eigenvalues --   -0.43266  -0.43017  -0.42917  -0.42734  -0.42437
 Alpha  occ. eigenvalues --   -0.42431  -0.42370  -0.42215  -0.41610  -0.41378
 Alpha  occ. eigenvalues --   -0.41249  -0.41162  -0.41007  -0.40557  -0.40075
 Alpha  occ. eigenvalues --   -0.39980  -0.39920  -0.39732  -0.39447  -0.39362
 Alpha  occ. eigenvalues --   -0.39241  -0.39051  -0.38787  -0.38075  -0.37842
 Alpha  occ. eigenvalues --   -0.37748  -0.37554  -0.37327  -0.37191  -0.36896
 Alpha  occ. eigenvalues --   -0.36259  -0.36063  -0.35889  -0.35740  -0.35657
 Alpha  occ. eigenvalues --   -0.35293  -0.34893  -0.34631  -0.34238  -0.33711
 Alpha  occ. eigenvalues --   -0.33122  -0.32807  -0.32478  -0.31273  -0.29228
 Alpha  occ. eigenvalues --   -0.29114  -0.28998  -0.28040  -0.26406  -0.23411
 Alpha  occ. eigenvalues --   -0.21900
 Alpha virt. eigenvalues --   -0.06065  -0.03186   0.01285   0.04083   0.05152
 Alpha virt. eigenvalues --    0.05681   0.06192   0.06534   0.06871   0.07363
 Alpha virt. eigenvalues --    0.08128   0.10613   0.10832   0.11139   0.11459

 Mulliken charges:
               1
     1  Mg   0.815612
     2  C    0.015961
     3  C   -0.234464
     4  C   -0.176289
     5  C   -0.170654
     6  N   -0.641160
     7  C    0.283976
     8  C   -0.121266
     9  C   -0.132690
    10  C    0.356473
    11  C   -0.290256
    12  C   -0.187310
    13  C   -0.259074
    14  C    0.591815
    15  O   -0.431821
    16  O   -0.476746
    17  N   -0.727314
    18  C    0.378226
    19  C   -0.029753
    20  C    0.022727
    21  C    0.285443
    22  C   -0.368067
    23  C   -0.051048
    24  C   -0.226089
    25  N   -0.701277
    26  C    0.365728
    27  C    0.004523
    28  C    0.044000
    29  C    0.279771
    30  C   -0.386856
    31  C   -0.251619
    32  C   -0.302671
    33  N   -0.780373
    34  C    0.264590
    35  C   -0.006040
    36  C   -0.064958
    37  C    0.418004
    38  C   -0.351530
    39  C    0.370357
    40  O   -0.499289
    41  C   -0.311736
    42  C    0.623981
    43  O   -0.401229
    44  O   -0.453260
    45  C   -0.082824
    46  C   -0.006462
    47  C   -0.114068
    48  C    0.147137
    49  C   -0.363413
    50  C   -0.239501
    51  C   -0.187810
    52  C   -0.135334
    53  C   -0.050949
    54  C   -0.315671
    55  C   -0.148622
    56  C   -0.179514
    57  C   -0.164164
    58  C   -0.058050
    59  C   -0.307808
    60  C   -0.168455
    61  C   -0.173045
    62  C   -0.173983
    63  C   -0.075406
    64  C   -0.255573
    65  C   -0.324048
    66  H    0.084474
    67  H    0.094982
    68  H    0.095698
    69  H    0.129466
    70  H    0.117847
    71  H    0.082817
    72  H    0.090376
    73  H    0.122509
    74  H    0.107593
    75  H    0.110230
    76  H    0.122671
    77  H    0.143493
    78  H    0.126864
    79  H    0.118034
    80  H    0.128224
    81  H    0.087044
    82  H    0.095301
    83  H    0.097595
    84  H    0.125459
    85  H    0.104506
    86  H    0.085450
    87  H    0.114223
    88  H    0.107779
    89  H    0.085719
    90  H    0.103755
    91  H    0.117438
    92  H    0.127008
    93  H    0.153405
    94  H    0.123592
    95  H    0.168051
    96  H    0.090698
    97  H    0.123108
    98  H    0.117924
    99  H    0.114406
   100  H    0.114956
   101  H    0.092597
   102  H    0.121194
   103  H    0.101097
   104  H    0.133664
   105  H    0.076894
   106  H    0.088000
   107  H    0.093970
   108  H    0.082761
   109  H    0.082415
   110  H    0.092564
   111  H    0.059131
   112  H    0.114408
   113  H    0.090346
   114  H    0.093826
   115  H    0.091456
   116  H    0.065054
   117  H    0.090257
   118  H    0.071571
   119  H    0.091094
   120  H    0.088411
   121  H    0.100524
   122  H    0.107657
   123  H    0.100843
   124  H    0.069298
   125  H    0.086508
   126  H    0.072896
   127  H    0.120428
   128  H    0.066019
   129  H    0.101287
   130  H    0.095009
   131  H    0.105186
   132  H    0.079781
   133  H    0.068788
   134  H    0.071442
   135  H    0.069379
   136  H    0.109134
   137  H    0.113628
 Sum of Mulliken charges =   0.00000

 Dipole moment (field-independent basis, Debye):
    X=              2.2158    Y=              5.2992    Z=              0.7862  Tot=              5.7974
 Quadrupole moment (field-independent basis, Debye-Ang):
   XX=           -369.5860   YY=           -397.6680   ZZ=           -401.1635
   XY=            -21.8705   XZ=             11.2392   YZ=             -3.9340

 Normal termination of Gaussian 09 at Thu Jun 27 03:55:07 2019.
