 Gaussian 09, Revision D.01,
 Gaussian 09:  ES64L-G09RevD.01 24-Apr-2013

 -------------------------------------
 # td=(NStates=1) CAM-B3LYP/6-31G(d,p)
 -------------------------------------

 --
 TD
 --
 Symbolic Z-matrix:
 Charge =  0 Multiplicity = 1

                         Standard orientation:
 ---------------------------------------------------------------------
 Center     Atomic      Atomic             Coordinates (Angstroms)
 Number     Number       Type             X           Y           Z
 ---------------------------------------------------------------------
      1         12           0       -7.167123    0.524744    0.060922
      2          6           0       -4.871737   -1.999161    0.513526
      3          6           0       -4.840238    2.750192    1.240322
      4          6           0       -9.353017    3.057738   -0.284816
      5          6           0       -9.522862   -1.831421   -0.821385
      6          7           0       -5.106696    0.389041    0.747752
      7          6           0       -4.295158   -0.644717    0.768985
      8          6           0       -2.921939   -0.337180    1.227939
      9          6           0       -2.915221    1.087501    1.698059
     10          6           0       -4.293808    1.506635    1.167693
     11          6           0       -2.933068    1.238612    3.300795
     12          6           0       -1.953381   -0.551319    0.127206
     13          6           0       -0.522383   -0.364190    0.531995
     14          6           0        0.523810   -0.647903   -0.542555
     15          8           0        0.205140   -0.948638   -1.628683
     16          8           0        1.782240   -0.379012   -0.157231
     17          7           0       -7.094863    2.613846    0.381152
     18          6           0       -6.055279    3.313814    0.831862
     19          6           0       -6.373474    4.689435    0.932906
     20          6           0       -7.757051    4.865756    0.465892
     21          6           0       -8.144819    3.476731    0.208581
     22          6           0       -5.492415    5.832463    1.422111
     23          6           0       -8.638283    5.998124    0.400813
     24          6           0       -8.041698    7.271229    0.226563
     25          7           0       -9.137703    0.619249   -0.517522
     26          6           0       -9.851559    1.750007   -0.722135
     27          6           0      -11.199471    1.391306   -1.275171
     28          6           0      -11.260679    0.013699   -1.374055
     29          6           0       -9.898363   -0.453179   -0.866251
     30          6           0      -12.187782    2.446108   -1.459198
     31          6           0      -12.386582   -0.736632   -1.860772
     32          6           0      -12.177627   -1.117877   -3.367059
     33          7           0       -7.220845   -1.425935    0.003604
     34          6           0       -8.240693   -2.286745   -0.461531
     35          6           0       -7.795732   -3.643053   -0.441547
     36          6           0       -6.524711   -3.605545    0.027804
     37          6           0       -6.129868   -2.193964    0.062583
     38          6           0       -8.677366   -4.760753   -0.884550
     39          6           0       -5.324768   -4.322967    0.157429
     40          8           0       -5.149891   -5.552328    0.082043
     41          6           0       -4.177484   -3.331695    0.569929
     42          6           0       -3.558815   -3.678572    1.919005
     43          8           0       -3.729149   -3.173174    3.037665
     44          8           0       -2.707233   -4.765767    1.773278
     45          6           0       -2.061343   -5.290731    2.951280
     46          6           0        2.675211   -0.480053   -1.160907
     47          6           0        4.097164   -0.264990   -0.523508
     48          6           0        5.130919    0.495607   -0.926432
     49          6           0        5.065889    1.438639   -2.184272
     50          6           0        6.454302    0.470592   -0.149744
     51          6           0        7.552081   -0.089720   -1.025921
     52          6           0        8.902820   -0.028198   -0.121273
     53          6           0       10.118378   -0.503728   -1.002413
     54          6           0       10.101620   -1.901441   -1.546024
     55          6           0       11.275484   -0.191753   -0.090316
     56          6           0       12.729835   -0.370241   -0.846146
     57          6           0       13.836643   -0.016864    0.057601
     58          6           0       15.325922   -0.163881   -0.589461
     59          6           0       15.705242   -1.644244   -1.030916
     60          6           0       16.356448    0.346868    0.388761
     61          6           0       17.735305    0.549168   -0.195235
     62          6           0       18.839521    1.091934    0.890457
     63          6           0       20.171935    1.140403    0.358646
     64          6           0       20.307079    1.984103   -1.042046
     65          6           0       21.248153    1.678069    1.324178
     66          1           0       -4.117349    3.366211    1.431333
     67          1           0      -10.018102    3.791768   -0.569291
     68          1           0      -10.396190   -2.482437   -1.141803
     69          1           0       -2.641521   -1.036454    2.195309
     70          1           0       -2.161225    1.762434    1.271846
     71          1           0       -1.975599    1.006630    3.707123
     72          1           0       -2.945395    2.271575    3.424508
     73          1           0       -3.764406    0.564570    3.859495
     74          1           0       -2.031659   -1.571079   -0.369922
     75          1           0       -2.292703    0.297398   -0.706565
     76          1           0       -0.364128    0.749505    0.892530
     77          1           0       -0.325685   -0.955139    1.324406
     78          1           0       -4.514714    6.229279    0.811146
     79          1           0       -6.055374    6.747112    1.528660
     80          1           0       -5.038503    5.507523    2.239761
     81          1           0       -9.652091    6.029292    0.412671
     82          1           0       -8.720417    8.106138   -0.001513
     83          1           0       -6.939415    7.419167    0.027070
     84          1           0      -11.814984    3.183631   -2.223364
     85          1           0      -13.271186    2.049617   -2.137851
     86          1           0      -12.464048    2.959144   -0.375767
     87          1           0      -12.531664   -1.509316   -1.290539
     88          1           0      -13.453708   -0.235333   -1.939143
     89          1           0      -13.169703   -1.732424   -3.707717
     90          1           0      -12.218036   -0.167785   -3.801961
     91          1           0      -11.284014   -1.706001   -3.821882
     92          1           0       -9.366338   -4.341537   -1.748480
     93          1           0       -7.994743   -5.648452   -1.395570
     94          1           0       -9.417766   -5.238910   -0.209898
     95          1           0       -3.299509   -3.524175    0.040954
     96          1           0       -1.574829   -4.511994    3.580832
     97          1           0       -2.921104   -5.776260    3.522410
     98          1           0       -1.572568   -6.110983    2.776183
     99          1           0        2.649413   -1.488573   -1.429728
    100          1           0        2.335995    0.226509   -2.048079
    101          1           0        4.348381   -0.766669    0.401500
    102          1           0        3.945919    1.429526   -2.641775
    103          1           0        5.221166    2.465576   -2.062275
    104          1           0        5.674649    1.218139   -3.123285
    105          1           0        6.838559    1.581643    0.164118
    106          1           0        6.273552   -0.057094    0.808726
    107          1           0        7.495610   -1.094090   -1.409292
    108          1           0        7.829055    0.290212   -1.995932
    109          1           0        8.925940    0.937280    0.322392
    110          1           0        8.739267   -0.719639    0.633674
    111          1           0       10.118881    0.156369   -1.967476
    112          1           0        9.111876   -1.907070   -2.111284
    113          1           0       11.032904   -2.163249   -1.983405
    114          1           0        9.936621   -2.625166   -0.734353
    115          1           0       11.112964    0.790301    0.370762
    116          1           0       11.204822   -0.871893    0.767405
    117          1           0       13.081905   -1.358249   -1.025008
    118          1           0       12.729150   -0.021292   -1.902003
    119          1           0       13.709593    0.953127    0.564892
    120          1           0       13.655467   -0.717467    0.841393
    121          1           0       15.345887    0.386362   -1.491207
    122          1           0       16.029627   -2.225269   -0.080698
    123          1           0       14.726141   -2.241089   -1.426111
    124          1           0       16.474194   -1.753472   -1.756086
    125          1           0       16.357068    1.338798    0.922203
    126          1           0       16.513333   -0.292605    1.150170
    127          1           0       17.902016   -0.390842   -0.540124
    128          1           0       17.713656    1.198281   -0.992466
    129          1           0       18.441537    2.170132    1.198599
    130          1           0       18.747111    0.542136    1.838617
    131          1           0       20.463758   -0.057972    0.211058
    132          1           0       20.141029    2.956184   -0.531712
    133          1           0       21.353894    1.843026   -1.456288
    134          1           0       19.437147    1.592872   -1.605438
    135          1           0       21.262220    0.979080    2.323200
    136          1           0       22.326878    1.813310    0.737203
    137          1           0       21.168342    2.679011    1.696892
 ---------------------------------------------------------------------

 SCF Done:  E(RCAM-B3LYP) =  -2932.63509011     A.U. after   18 cycles

 Excitation energies and oscillator strengths:

 Excited State   1:      Singlet-A      1.9489 eV  636.17 nm  f=0.3305  <S**2>=0.000
     240 -> 243        0.22437
     241 -> 242        0.66375
 This state for optimization and/or second-order correction.
 Total Energy, E(TD-HF/TD-KS) =  -2932.56346866
 Copying the excited state density for this state as the 1-particle RhoCI density.

 The electronic state is 1-A.
 Alpha  occ. eigenvalues --  -46.84909 -19.26697 -19.25529 -19.21653 -19.20904
 Alpha  occ. eigenvalues --  -19.19691 -14.42479 -14.40010 -14.39377 -14.39302
 Alpha  occ. eigenvalues --  -10.39533 -10.39294 -10.34648 -10.32280 -10.32092
 Alpha  occ. eigenvalues --  -10.30609 -10.30277 -10.29910 -10.29772 -10.29351
 Alpha  occ. eigenvalues --  -10.29310 -10.29098 -10.28927 -10.28897 -10.28871
 Alpha  occ. eigenvalues --  -10.28688 -10.28436 -10.28403 -10.28230 -10.28221
 Alpha  occ. eigenvalues --  -10.28062 -10.27964 -10.27800 -10.27721 -10.27665
 Alpha  occ. eigenvalues --  -10.27658 -10.27256 -10.27234 -10.27209 -10.27190
 Alpha  occ. eigenvalues --  -10.26846 -10.26769 -10.26677 -10.26675 -10.26650
 Alpha  occ. eigenvalues --  -10.26573 -10.26566 -10.26463 -10.26453 -10.26224
 Alpha  occ. eigenvalues --  -10.26153 -10.26119 -10.26035 -10.25667 -10.25615
 Alpha  occ. eigenvalues --  -10.25398 -10.25341 -10.25116 -10.24679 -10.24599
 Alpha  occ. eigenvalues --  -10.24548 -10.24520 -10.24420 -10.23406 -10.23350
 Alpha  occ. eigenvalues --   -3.13933  -1.88635  -1.88173  -1.88110  -1.21711
 Alpha  occ. eigenvalues --   -1.16136  -1.12694  -1.09160  -1.07405  -1.05158
 Alpha  occ. eigenvalues --   -1.04025  -1.03773  -1.02596  -0.92990  -0.91745
 Alpha  occ. eigenvalues --   -0.90803  -0.90287  -0.89625  -0.89188  -0.89124
 Alpha  occ. eigenvalues --   -0.88402  -0.88002  -0.87937  -0.87371  -0.86274
 Alpha  occ. eigenvalues --   -0.85062  -0.84488  -0.83855  -0.83112  -0.82425
 Alpha  occ. eigenvalues --   -0.81699  -0.81179  -0.79855  -0.79541  -0.78482
 Alpha  occ. eigenvalues --   -0.77569  -0.76897  -0.76319  -0.76082  -0.75525
 Alpha  occ. eigenvalues --   -0.74930  -0.74673  -0.74292  -0.73309  -0.72608
 Alpha  occ. eigenvalues --   -0.71997  -0.70490  -0.70087  -0.69747  -0.68644
 Alpha  occ. eigenvalues --   -0.67560  -0.67451  -0.65945  -0.65635  -0.65150
 Alpha  occ. eigenvalues --   -0.64316  -0.64042  -0.63746  -0.62720  -0.61989
 Alpha  occ. eigenvalues --   -0.61492  -0.60881  -0.60532  -0.59979  -0.59665
 Alpha  occ. eigenvalues --   -0.59027  -0.58481  -0.58176  -0.57829  -0.57040
 Alpha  occ. eigenvalues --   -0.56716  -0.55912  -0.55490  -0.55458  -0.54994
 Alpha  occ. eigenvalues --   -0.54429  -0.54345  -0.54265  -0.54017  -0.53078
 Alpha  occ. eigenvalues --   -0.52964  -0.52179  -0.52090  -0.51774  -0.51680
 Alpha  occ. eigenvalues --   -0.51490  -0.51127  -0.50980  -0.50620  -0.50483
 Alpha  occ. eigenvalues --   -0.50368  -0.50114  -0.50029  -0.49876  -0.49651
 Alpha  occ. eigenvalues --   -0.49495  -0.48975  -0.48517  -0.48441  -0.48314
 Alpha  occ. eigenvalues --   -0.48285  -0.48030  -0.47658  -0.47427  -0.47401
 Alpha  occ. eigenvalues --   -0.47267  -0.46641  -0.46230  -0.45887  -0.45843
 Alpha  occ. eigenvalues --   -0.45740  -0.45484  -0.45284  -0.44873  -0.44820
 Alpha  occ. eigenvalues --   -0.44682  -0.44350  -0.43995  -0.43761  -0.43727
 Alpha  occ. eigenvalues --   -0.43547  -0.43492  -0.43392  -0.43250  -0.43118
 Alpha  occ. eigenvalues --   -0.43052  -0.42974  -0.42598  -0.42493  -0.42385
 Alpha  occ. eigenvalues --   -0.42251  -0.42091  -0.41974  -0.41872  -0.41646
 Alpha  occ. eigenvalues --   -0.41468  -0.41230  -0.40927  -0.40860  -0.40729
 Alpha  occ. eigenvalues --   -0.40456  -0.40373  -0.40226  -0.40122  -0.39831
 Alpha  occ. eigenvalues --   -0.39316  -0.38865  -0.38670  -0.38333  -0.38134
 Alpha  occ. eigenvalues --   -0.37677  -0.37414  -0.37349  -0.36982  -0.36691
 Alpha  occ. eigenvalues --   -0.36656  -0.36620  -0.36063  -0.35659  -0.35505
 Alpha  occ. eigenvalues --   -0.34942  -0.34881  -0.34458  -0.34170  -0.33987
 Alpha  occ. eigenvalues --   -0.33270  -0.32439  -0.32154  -0.30916  -0.30200
 Alpha  occ. eigenvalues --   -0.29829  -0.29666  -0.28306  -0.26070  -0.23666
 Alpha  occ. eigenvalues --   -0.20630
 Alpha virt. eigenvalues --   -0.06671  -0.03387   0.00842   0.02987   0.05092
 Alpha virt. eigenvalues --    0.05523   0.06313   0.06584   0.06767   0.07177
 Alpha virt. eigenvalues --    0.07776   0.09810   0.10543   0.10915   0.11496

 Mulliken charges:
               1
     1  Mg   0.834842
     2  C    0.053835
     3  C   -0.159523
     4  C   -0.161550
     5  C   -0.186793
     6  N   -0.595838
     7  C    0.355248
     8  C   -0.168140
     9  C   -0.139320
    10  C    0.262605
    11  C   -0.302272
    12  C   -0.162818
    13  C   -0.257579
    14  C    0.593414
    15  O   -0.437894
    16  O   -0.442068
    17  N   -0.702774
    18  C    0.349424
    19  C   -0.022728
    20  C    0.040338
    21  C    0.280983
    22  C   -0.361018
    23  C   -0.086134
    24  C   -0.253079
    25  N   -0.679472
    26  C    0.256045
    27  C    0.056017
    28  C    0.031558
    29  C    0.281821
    30  C   -0.371197
    31  C   -0.248935
    32  C   -0.304021
    33  N   -0.727727
    34  C    0.292820
    35  C    0.069414
    36  C    0.021844
    37  C    0.264551
    38  C   -0.380024
    39  C    0.351277
    40  O   -0.476968
    41  C   -0.303205
    42  C    0.609384
    43  O   -0.483837
    44  O   -0.474080
    45  C   -0.065473
    46  C    0.024401
    47  C   -0.155644
    48  C    0.131444
    49  C   -0.367494
    50  C   -0.225251
    51  C   -0.189390
    52  C   -0.193469
    53  C   -0.063136
    54  C   -0.298604
    55  C   -0.173448
    56  C   -0.191118
    57  C   -0.179659
    58  C   -0.061578
    59  C   -0.330881
    60  C   -0.176140
    61  C   -0.202048
    62  C   -0.165143
    63  C   -0.046696
    64  C   -0.309593
    65  C   -0.294988
    66  H    0.054197
    67  H    0.077232
    68  H    0.102624
    69  H    0.124851
    70  H    0.114872
    71  H    0.112121
    72  H    0.116888
    73  H    0.128271
    74  H    0.121374
    75  H    0.088306
    76  H    0.115987
    77  H    0.138864
    78  H    0.082822
    79  H    0.121509
    80  H    0.126288
    81  H    0.105718
    82  H    0.098842
    83  H    0.117144
    84  H    0.128741
    85  H    0.063637
    86  H    0.114133
    87  H    0.114273
    88  H    0.104231
    89  H    0.073138
    90  H    0.123917
    91  H    0.105258
    92  H    0.106416
    93  H    0.125175
    94  H    0.141497
    95  H    0.157572
    96  H    0.126973
    97  H    0.115177
    98  H    0.131058
    99  H    0.126743
   100  H    0.112236
   101  H    0.087274
   102  H    0.079632
   103  H    0.127785
   104  H    0.112371
   105  H    0.083528
   106  H    0.103701
   107  H    0.100154
   108  H    0.103356
   109  H    0.097889
   110  H    0.103366
   111  H    0.068898
   112  H    0.091362
   113  H    0.118726
   114  H    0.094819
   115  H    0.094312
   116  H    0.089556
   117  H    0.092938
   118  H    0.081786
   119  H    0.087098
   120  H    0.096272
   121  H    0.096150
   122  H    0.096512
   123  H    0.083419
   124  H    0.122890
   125  H    0.079893
   126  H    0.099307
   127  H    0.098359
   128  H    0.103868
   129  H    0.063824
   130  H    0.096445
   131  H    0.056162
   132  H    0.107952
   133  H    0.108391
   134  H    0.110865
   135  H    0.077874
   136  H    0.073558
   137  H    0.109103
 Sum of Mulliken charges =   0.00000

 Dipole moment (field-independent basis, Debye):
    X=              1.4901    Y=              3.9836    Z=              0.1570  Tot=              4.2561
 Quadrupole moment (field-independent basis, Debye-Ang):
   XX=           -361.9279   YY=           -397.8253   ZZ=           -399.6752
   XY=            -22.3716   XZ=             16.6613   YZ=             -3.1610

 Normal termination of Gaussian 09 at Sat Jun 29 04:30:19 2019.
