 Gaussian 09, Revision D.01,
 Gaussian 09:  ES64L-G09RevD.01 24-Apr-2013

 -------------------------------------
 # td=(NStates=1) CAM-B3LYP/6-31G(d,p)
 -------------------------------------

 --
 TD
 --
 Symbolic Z-matrix:
 Charge =  0 Multiplicity = 1

                         Standard orientation:
 ---------------------------------------------------------------------
 Center     Atomic      Atomic             Coordinates (Angstroms)
 Number     Number       Type             X           Y           Z
 ---------------------------------------------------------------------
      1         12           0       -7.198696    0.585429    0.093986
      2          6           0       -4.865826   -1.931401    0.341670
      3          6           0       -4.775498    2.815391    1.135878
      4          6           0       -9.480308    3.031024   -0.235918
      5          6           0       -9.547093   -1.788962   -0.894725
      6          7           0       -5.136592    0.475851    0.724696
      7          6           0       -4.322374   -0.746690    0.798008
      8          6           0       -2.932232   -0.465213    1.199874
      9          6           0       -3.049703    1.091767    1.581975
     10          6           0       -4.323430    1.489168    1.189563
     11          6           0       -2.859977    1.318062    3.126607
     12          6           0       -1.877137   -0.718453    0.040155
     13          6           0       -0.396172   -0.521676    0.465182
     14          6           0        0.536380   -0.657693   -0.689129
     15          8           0        0.228007   -0.940515   -1.853037
     16          8           0        1.816223   -0.493240   -0.344621
     17          7           0       -7.109339    2.562586    0.261541
     18          6           0       -6.098327    3.323095    0.749188
     19          6           0       -6.491393    4.742483    0.877642
     20          6           0       -7.764514    4.808213    0.465866
     21          6           0       -8.199524    3.402219    0.120704
     22          6           0       -5.555042    5.818052    1.380467
     23          6           0       -8.656641    6.041901    0.453828
     24          6           0       -8.146396    7.309650    0.123814
     25          7           0       -9.127468    0.719714   -0.617654
     26          6           0       -9.866491    1.796703   -0.644343
     27          6           0      -11.253149    1.464500   -1.038304
     28          6           0      -11.208900    0.138253   -1.239417
     29          6           0       -9.877303   -0.425007   -0.887511
     30          6           0      -12.331087    2.480952   -1.080156
     31          6           0      -12.331654   -0.818493   -1.613858
     32          6           0      -12.435283   -0.857833   -3.219652
     33          7           0       -7.220663   -1.391975   -0.099461
     34          6           0       -8.257562   -2.305856   -0.433956
     35          6           0       -7.784091   -3.633741   -0.591846
     36          6           0       -6.490164   -3.580833   -0.101323
     37          6           0       -6.185674   -2.116322    0.017058
     38          6           0       -8.812914   -4.747896   -0.610664
     39          6           0       -5.319495   -4.352127    0.103451
     40          8           0       -5.118370   -5.632457    0.066108
     41          6           0       -4.171810   -3.241536    0.570459
     42          6           0       -3.643262   -3.710479    1.912910
     43          8           0       -3.851452   -3.172402    2.956264
     44          8           0       -2.780820   -4.790970    1.857723
     45          6           0       -2.199933   -5.317875    3.012904
     46          6           0        2.887657   -0.692147   -1.293768
     47          6           0        4.157181   -0.417919   -0.662719
     48          6           0        5.129575    0.424632   -1.067583
     49          6           0        5.008375    1.196918   -2.393034
     50          6           0        6.520386    0.502146   -0.365121
     51          6           0        7.732707   -0.031281   -1.092947
     52          6           0        8.932342   -0.082351   -0.189021
     53          6           0       10.193081   -0.562295   -0.926179
     54          6           0       10.033533   -2.012567   -1.588401
     55          6           0       11.379921   -0.392618   -0.049833
     56          6           0       12.746481   -0.527756   -0.737878
     57          6           0       13.884459    0.057414    0.091283
     58          6           0       15.377611   -0.049692   -0.536351
     59          6           0       15.777449   -1.526359   -0.858949
     60          6           0       16.415261    0.388346    0.366486
     61          6           0       17.973380    0.489299   -0.138666
     62          6           0       18.765921    1.204678    0.779512
     63          6           0       20.191122    1.352210    0.408090
     64          6           0       20.484596    1.973361   -0.828035
     65          6           0       21.103165    1.894813    1.583962
     66          1           0       -4.209235    3.678380    1.383251
     67          1           0      -10.072326    3.968480   -0.367555
     68          1           0      -10.224380   -2.520297   -1.400067
     69          1           0       -2.515033   -1.120751    2.070738
     70          1           0       -2.317750    1.787505    1.106424
     71          1           0       -1.809921    0.857901    3.409799
     72          1           0       -2.926205    2.551890    3.335341
     73          1           0       -3.693707    0.815043    3.830722
     74          1           0       -1.867021   -1.693629   -0.291070
     75          1           0       -1.918006    0.152656   -0.627275
     76          1           0       -0.076539    0.526076    1.054579
     77          1           0       -0.040244   -1.220835    1.193820
     78          1           0       -4.794914    6.107253    0.639781
     79          1           0       -6.308081    6.584787    1.719145
     80          1           0       -5.030341    5.399049    2.421614
     81          1           0       -9.699039    6.047731    0.552916
     82          1           0       -8.862362    8.032486    0.162579
     83          1           0       -6.968507    7.382356   -0.235297
     84          1           0      -12.225026    3.405608   -1.762998
     85          1           0      -13.224885    1.997974   -1.328183
     86          1           0      -12.526151    2.910082   -0.063402
     87          1           0      -12.274582   -1.767177   -1.342971
     88          1           0      -13.397521   -0.419353   -1.147341
     89          1           0      -13.541127   -1.309909   -3.529269
     90          1           0      -12.256240    0.093611   -3.806551
     91          1           0      -11.642563   -1.558910   -3.515534
     92          1           0       -9.222904   -4.767649   -1.639679
     93          1           0       -8.527308   -5.764298   -0.640044
     94          1           0       -9.686373   -4.616751    0.326697
     95          1           0       -3.414763   -3.392572   -0.098226
     96          1           0       -1.303163   -4.678192    3.489924
     97          1           0       -2.840215   -5.498986    3.912652
     98          1           0       -1.696444   -6.244055    2.794554
     99          1           0        2.872762   -1.731846   -1.549475
    100          1           0        2.788058   -0.014489   -2.068259
    101          1           0        4.360860   -1.003079    0.206272
    102          1           0        3.820904    1.334767   -2.294595
    103          1           0        5.594175    2.256689   -2.018777
    104          1           0        5.535639    0.737743   -3.251451
    105          1           0        6.746904    1.518979   -0.140158
    106          1           0        6.397612    0.125948    0.823681
    107          1           0        7.557899   -1.090895   -1.274683
    108          1           0        7.973130    0.573010   -1.951993
    109          1           0        8.923059    0.882256    0.208893
    110          1           0        8.874053   -0.889442    0.628939
    111          1           0       10.404614    0.320583   -1.760773
    112          1           0        9.325816   -2.016924   -2.424425
    113          1           0       11.013995   -2.225200   -1.957044
    114          1           0        9.619009   -2.709288   -0.730882
    115          1           0       11.255917    0.639754    0.384118
    116          1           0       11.472399   -1.006990    0.824248
    117          1           0       12.995784   -1.615390   -0.923491
    118          1           0       12.619955   -0.199849   -1.745452
    119          1           0       13.795721    0.912639    0.464238
    120          1           0       13.927543   -0.370664    1.042165
    121          1           0       15.341364    0.706390   -1.352024
    122          1           0       15.833081   -1.947079    0.107323
    123          1           0       15.048122   -2.111171   -1.406988
    124          1           0       16.695415   -1.705137   -1.400854
    125          1           0       16.111358    1.476921    0.769399
    126          1           0       16.380139   -0.199649    1.391325
    127          1           0       18.415591   -0.565811   -0.244699
    128          1           0       17.805754    1.166322   -0.990297
    129          1           0       18.328028    2.190599    0.878384
    130          1           0       18.779687    0.664964    1.714524
    131          1           0       20.632514    0.249157    0.552772
    132          1           0       20.178242    2.948699   -0.774423
    133          1           0       21.598931    1.957589   -1.216016
    134          1           0       19.967219    1.681294   -1.723597
    135          1           0       20.934152    1.241744    2.527359
    136          1           0       22.111889    1.902238    1.532072
    137          1           0       20.948334    2.904321    1.740919
 ---------------------------------------------------------------------

 SCF Done:  E(RCAM-B3LYP) =  -2932.64482949     A.U. after   18 cycles

 Excitation energies and oscillator strengths:

 Excited State   1:      Singlet-A      2.0115 eV  616.39 nm  f=0.2789  <S**2>=0.000
     240 -> 242       -0.13858
     240 -> 243       -0.20880
     241 -> 242        0.64950
 This state for optimization and/or second-order correction.
 Total Energy, E(TD-HF/TD-KS) =  -2932.57090976
 Copying the excited state density for this state as the 1-particle RhoCI density.

 The electronic state is 1-A.
 Alpha  occ. eigenvalues --  -46.84216 -19.25557 -19.25167 -19.20250 -19.19926
 Alpha  occ. eigenvalues --  -19.18828 -14.41884 -14.40190 -14.40122 -14.39659
 Alpha  occ. eigenvalues --  -10.38983 -10.38972 -10.34480 -10.31249 -10.31219
 Alpha  occ. eigenvalues --  -10.31188 -10.30928 -10.30857 -10.30494 -10.29733
 Alpha  occ. eigenvalues --  -10.29324 -10.29219 -10.29143 -10.29093 -10.29018
 Alpha  occ. eigenvalues --  -10.28879 -10.28823 -10.28793 -10.28773 -10.28519
 Alpha  occ. eigenvalues --  -10.28478 -10.28429 -10.28420 -10.28120 -10.27936
 Alpha  occ. eigenvalues --  -10.27717 -10.27607 -10.27407 -10.27273 -10.27185
 Alpha  occ. eigenvalues --  -10.27159 -10.27021 -10.26961 -10.26697 -10.26499
 Alpha  occ. eigenvalues --  -10.26309 -10.26303 -10.26248 -10.26108 -10.26004
 Alpha  occ. eigenvalues --  -10.25981 -10.25929 -10.25878 -10.25466 -10.25218
 Alpha  occ. eigenvalues --  -10.25216 -10.25074 -10.25058 -10.24991 -10.24687
 Alpha  occ. eigenvalues --  -10.23639 -10.23562 -10.23384 -10.23376 -10.23330
 Alpha  occ. eigenvalues --   -3.13425  -1.88122  -1.87667  -1.87615  -1.17726
 Alpha  occ. eigenvalues --   -1.17371  -1.08979  -1.07539  -1.05866  -1.04828
 Alpha  occ. eigenvalues --   -1.04434  -1.03559  -1.02323  -0.92388  -0.91892
 Alpha  occ. eigenvalues --   -0.91667  -0.90595  -0.89718  -0.89554  -0.89184
 Alpha  occ. eigenvalues --   -0.89078  -0.88165  -0.87917  -0.87270  -0.86727
 Alpha  occ. eigenvalues --   -0.85634  -0.84372  -0.83689  -0.83286  -0.82750
 Alpha  occ. eigenvalues --   -0.82281  -0.80930  -0.80724  -0.80340  -0.78182
 Alpha  occ. eigenvalues --   -0.77648  -0.77084  -0.76841  -0.76226  -0.75833
 Alpha  occ. eigenvalues --   -0.75533  -0.75248  -0.74711  -0.73610  -0.72805
 Alpha  occ. eigenvalues --   -0.71884  -0.71067  -0.69706  -0.69308  -0.68219
 Alpha  occ. eigenvalues --   -0.67843  -0.67220  -0.65610  -0.65440  -0.65160
 Alpha  occ. eigenvalues --   -0.64258  -0.63133  -0.62731  -0.62040  -0.61986
 Alpha  occ. eigenvalues --   -0.61600  -0.60653  -0.60427  -0.59992  -0.59467
 Alpha  occ. eigenvalues --   -0.58913  -0.58318  -0.58078  -0.57858  -0.57424
 Alpha  occ. eigenvalues --   -0.56446  -0.56343  -0.55640  -0.55530  -0.55320
 Alpha  occ. eigenvalues --   -0.54757  -0.53842  -0.53712  -0.53300  -0.53049
 Alpha  occ. eigenvalues --   -0.52636  -0.52544  -0.52045  -0.51846  -0.51537
 Alpha  occ. eigenvalues --   -0.51212  -0.51190  -0.50817  -0.50770  -0.50759
 Alpha  occ. eigenvalues --   -0.50637  -0.50274  -0.49975  -0.49828  -0.49285
 Alpha  occ. eigenvalues --   -0.49139  -0.49042  -0.48792  -0.48516  -0.48330
 Alpha  occ. eigenvalues --   -0.48189  -0.48155  -0.47760  -0.47430  -0.46936
 Alpha  occ. eigenvalues --   -0.46850  -0.46632  -0.46404  -0.46284  -0.46069
 Alpha  occ. eigenvalues --   -0.45721  -0.45570  -0.45434  -0.45368  -0.45119
 Alpha  occ. eigenvalues --   -0.45023  -0.44889  -0.44526  -0.44443  -0.44128
 Alpha  occ. eigenvalues --   -0.43918  -0.43607  -0.43286  -0.43206  -0.43012
 Alpha  occ. eigenvalues --   -0.42809  -0.42735  -0.42564  -0.42379  -0.42200
 Alpha  occ. eigenvalues --   -0.42026  -0.41820  -0.41450  -0.41295  -0.41257
 Alpha  occ. eigenvalues --   -0.41143  -0.40945  -0.40856  -0.40588  -0.40452
 Alpha  occ. eigenvalues --   -0.40385  -0.40103  -0.39879  -0.39496  -0.39143
 Alpha  occ. eigenvalues --   -0.39055  -0.38854  -0.38339  -0.38149  -0.37728
 Alpha  occ. eigenvalues --   -0.37626  -0.37510  -0.37079  -0.36782  -0.36779
 Alpha  occ. eigenvalues --   -0.36294  -0.36286  -0.35938  -0.35784  -0.35721
 Alpha  occ. eigenvalues --   -0.35339  -0.34508  -0.33759  -0.33679  -0.33384
 Alpha  occ. eigenvalues --   -0.33057  -0.33030  -0.31957  -0.30846  -0.30152
 Alpha  occ. eigenvalues --   -0.29971  -0.29021  -0.28659  -0.28521  -0.23581
 Alpha  occ. eigenvalues --   -0.21169
 Alpha virt. eigenvalues --   -0.06826  -0.02744   0.00635   0.02965   0.05533
 Alpha virt. eigenvalues --    0.05691   0.05874   0.06432   0.06741   0.06987
 Alpha virt. eigenvalues --    0.07308   0.09937   0.10661   0.11296   0.11342

 Mulliken charges:
               1
     1  Mg   0.816443
     2  C    0.038583
     3  C   -0.213460
     4  C   -0.166722
     5  C   -0.163668
     6  N   -0.636988
     7  C    0.313996
     8  C   -0.171748
     9  C   -0.182235
    10  C    0.428277
    11  C   -0.287160
    12  C   -0.145926
    13  C   -0.292887
    14  C    0.611053
    15  O   -0.496374
    16  O   -0.484474
    17  N   -0.711449
    18  C    0.303458
    19  C    0.030367
    20  C    0.007938
    21  C    0.291549
    22  C   -0.372612
    23  C   -0.109409
    24  C   -0.228059
    25  N   -0.705925
    26  C    0.328545
    27  C    0.047222
    28  C    0.001094
    29  C    0.294349
    30  C   -0.379230
    31  C   -0.228595
    32  C   -0.307346
    33  N   -0.716963
    34  C    0.221832
    35  C    0.010497
    36  C    0.040751
    37  C    0.348635
    38  C   -0.353679
    39  C    0.307706
    40  O   -0.506047
    41  C   -0.310777
    42  C    0.617466
    43  O   -0.454049
    44  O   -0.451232
    45  C   -0.071352
    46  C    0.042637
    47  C   -0.117464
    48  C    0.082578
    49  C   -0.335613
    50  C   -0.228594
    51  C   -0.163940
    52  C   -0.164855
    53  C   -0.064334
    54  C   -0.314397
    55  C   -0.166117
    56  C   -0.183789
    57  C   -0.167493
    58  C   -0.060183
    59  C   -0.314225
    60  C   -0.181681
    61  C   -0.160977
    62  C   -0.140984
    63  C   -0.045613
    64  C   -0.316146
    65  C   -0.315335
    66  H    0.065907
    67  H    0.090967
    68  H    0.116416
    69  H    0.127255
    70  H    0.122318
    71  H    0.103290
    72  H    0.085003
    73  H    0.123198
    74  H    0.137213
    75  H    0.128526
    76  H    0.110519
    77  H    0.143757
    78  H    0.135895
    79  H    0.131287
    80  H    0.098989
    81  H    0.107176
    82  H    0.110641
    83  H    0.113733
    84  H    0.113106
    85  H    0.121193
    86  H    0.118208
    87  H    0.115828
    88  H    0.076674
    89  H    0.078328
    90  H    0.115237
    91  H    0.110816
    92  H    0.115102
    93  H    0.144044
    94  H    0.105135
    95  H    0.157687
    96  H    0.077527
    97  H    0.125626
    98  H    0.129009
    99  H    0.131658
   100  H    0.113025
   101  H    0.087687
   102  H    0.113727
   103  H    0.078301
   104  H    0.140738
   105  H    0.102083
   106  H    0.068243
   107  H    0.105624
   108  H    0.101176
   109  H    0.092477
   110  H    0.081972
   111  H    0.047964
   112  H    0.114772
   113  H    0.115426
   114  H    0.092736
   115  H    0.085509
   116  H    0.093074
   117  H    0.090923
   118  H    0.092493
   119  H    0.091295
   120  H    0.085367
   121  H    0.081431
   122  H    0.107868
   123  H    0.091652
   124  H    0.108506
   125  H    0.053613
   126  H    0.066297
   127  H    0.092688
   128  H    0.096494
   129  H    0.082587
   130  H    0.090236
   131  H    0.057139
   132  H    0.107698
   133  H    0.089367
   134  H    0.107177
   135  H    0.080836
   136  H    0.111084
   137  H    0.098578
 Sum of Mulliken charges =   0.00000

 Dipole moment (field-independent basis, Debye):
    X=              1.3370    Y=              6.9793    Z=              0.8430  Tot=              7.1560
 Quadrupole moment (field-independent basis, Debye-Ang):
   XX=           -332.0113   YY=           -395.2013   ZZ=           -402.6381
   XY=            -35.0582   XZ=              2.8819   YZ=             -1.0102

 Normal termination of Gaussian 09 at Sun Jun 30 07:27:09 2019.
