 Gaussian 09, Revision D.01,
 Gaussian 09:  ES64L-G09RevD.01 24-Apr-2013

 -------------------------------------
 # td=(NStates=1) CAM-B3LYP/6-31G(d,p)
 -------------------------------------

 --
 TD
 --
 Symbolic Z-matrix:
 Charge =  0 Multiplicity = 1

                         Standard orientation:
 ---------------------------------------------------------------------
 Center     Atomic      Atomic             Coordinates (Angstroms)
 Number     Number       Type             X           Y           Z
 ---------------------------------------------------------------------
      1         12           0       -7.122897    0.604991    0.139268
      2          6           0       -4.774055   -1.961550    0.552162
      3          6           0       -4.887477    2.750019    1.229938
      4          6           0       -9.458446    3.145133   -0.411105
      5          6           0       -9.405649   -1.786687   -0.978774
      6          7           0       -5.019941    0.563395    0.593744
      7          6           0       -4.311769   -0.658855    0.748629
      8          6           0       -2.911541   -0.257559    1.218279
      9          6           0       -3.011682    1.151834    1.688569
     10          6           0       -4.350217    1.580870    1.075862
     11          6           0       -2.874954    1.397697    3.157808
     12          6           0       -1.959809   -0.633330    0.153358
     13          6           0       -0.526853   -0.449374    0.499513
     14          6           0        0.418313   -0.766829   -0.727410
     15          8           0        0.147877   -1.122518   -1.811672
     16          8           0        1.739942   -0.517586   -0.269801
     17          7           0       -7.210889    2.545984    0.342926
     18          6           0       -6.100870    3.334411    0.825656
     19          6           0       -6.467716    4.769060    0.877521
     20          6           0       -7.728196    4.913414    0.418584
     21          6           0       -8.160783    3.484462    0.043917
     22          6           0       -5.718941    5.975421    1.337164
     23          6           0       -8.641881    5.945412    0.352527
     24          6           0       -8.305416    7.261081   -0.122516
     25          7           0       -9.125441    0.600857   -0.674662
     26          6           0       -9.862800    1.749392   -0.641325
     27          6           0      -11.145818    1.401388   -1.053973
     28          6           0      -11.205042    0.067157   -1.250070
     29          6           0       -9.931740   -0.438488   -0.875751
     30          6           0      -12.290148    2.369461   -1.345332
     31          6           0      -12.354053   -0.895545   -1.739145
     32          6           0      -12.262407   -1.145193   -3.271530
     33          7           0       -7.181101   -1.417745   -0.071555
     34          6           0       -8.178206   -2.318191   -0.639368
     35          6           0       -7.754324   -3.667546   -0.525428
     36          6           0       -6.392478   -3.601988   -0.030964
     37          6           0       -6.125985   -2.231327    0.120201
     38          6           0       -8.503353   -4.940771   -0.759371
     39          6           0       -5.290139   -4.301401    0.314492
     40          8           0       -5.111686   -5.507373    0.330695
     41          6           0       -4.084429   -3.220431    0.609153
     42          6           0       -3.480851   -3.518924    1.958995
     43          8           0       -3.739579   -2.956136    3.067929
     44          8           0       -2.533471   -4.575604    1.884750
     45          6           0       -1.866886   -4.976236    3.043054
     46          6           0        2.794545   -0.773216   -1.254458
     47          6           0        4.061410   -0.628954   -0.608090
     48          6           0        5.110838    0.289173   -0.918674
     49          6           0        5.005707    1.040898   -2.179633
     50          6           0        6.426924    0.281503   -0.132962
     51          6           0        7.620332   -0.292671   -0.896933
     52          6           0        8.875743   -0.162880   -0.068513
     53          6           0       10.205459   -0.620723   -0.871905
     54          6           0       10.086053   -2.228016   -1.089292
     55          6           0       11.399295   -0.216134   -0.076314
     56          6           0       12.731455   -0.505087   -0.787118
     57          6           0       13.957815   -0.056053    0.115764
     58          6           0       15.366190   -0.257402   -0.574242
     59          6           0       15.543474   -1.603429   -1.122778
     60          6           0       16.351490    0.367382    0.312999
     61          6           0       17.751994    0.622822   -0.314105
     62          6           0       18.711805    1.294535    0.773981
     63          6           0       20.202914    1.460993    0.280252
     64          6           0       20.282581    2.186856   -1.038432
     65          6           0       20.899917    2.117144    1.441422
     66          1           0       -4.206322    3.715700    1.505892
     67          1           0      -10.045602    4.048069   -0.474381
     68          1           0      -10.374586   -2.299872   -1.563555
     69          1           0       -2.509775   -0.786403    2.266726
     70          1           0       -2.105119    1.752811    1.269612
     71          1           0       -1.914772    0.947029    3.412746
     72          1           0       -3.019086    2.438297    3.493203
     73          1           0       -3.543040    0.844332    3.630641
     74          1           0       -2.117157   -1.677324   -0.131268
     75          1           0       -2.224815   -0.157345   -0.740760
     76          1           0       -0.375389    0.623450    0.678084
     77          1           0       -0.043006   -0.966601    1.562842
     78          1           0       -5.256871    6.639556    0.554700
     79          1           0       -6.424467    6.696401    1.860719
     80          1           0       -4.939150    5.630245    2.013487
     81          1           0       -9.643249    5.887995    0.668928
     82          1           0       -8.898682    7.959903   -0.220406
     83          1           0       -7.186456    7.625033   -0.271243
     84          1           0      -12.144796    2.924219   -2.344481
     85          1           0      -13.373614    1.757716   -1.270328
     86          1           0      -12.265139    3.115244   -0.606974
     87          1           0      -12.238582   -1.760024   -1.243245
     88          1           0      -13.321921   -0.382636   -1.245118
     89          1           0      -13.082093   -1.779747   -3.480747
     90          1           0      -12.320969   -0.297046   -3.934829
     91          1           0      -11.372745   -1.850078   -3.487128
     92          1           0       -9.096742   -4.988645   -1.835374
     93          1           0       -7.751662   -5.821815   -0.761956
     94          1           0       -9.199618   -5.189300   -0.052271
     95          1           0       -3.323596   -3.358886   -0.013019
     96          1           0       -1.488467   -4.170799    3.812409
     97          1           0       -2.843799   -5.387558    3.584717
     98          1           0       -1.019793   -5.644125    2.639680
     99          1           0        2.631114   -1.781378   -1.648590
    100          1           0        2.584176   -0.086822   -2.092216
    101          1           0        4.442981   -0.980471    0.190455
    102          1           0        4.124395    1.054536   -2.951078
    103          1           0        5.143012    2.193021   -2.122020
    104          1           0        5.737015    0.728893   -3.020176
    105          1           0        6.709077    1.298372    0.150304
    106          1           0        6.382312   -0.239016    0.781196
    107          1           0        7.232177   -1.257975   -1.236078
    108          1           0        7.661900    0.369877   -1.710650
    109          1           0        9.088165    0.941926   -0.238590
    110          1           0        9.005806   -0.646324    0.951581
    111          1           0       10.278644   -0.117784   -1.954171
    112          1           0        9.285715   -2.377156   -1.601519
    113          1           0       11.034478   -2.886283   -1.368280
    114          1           0        9.712376   -2.790320   -0.005877
    115          1           0       11.486241    0.932783    0.093955
    116          1           0       11.295279   -0.616002    1.130178
    117          1           0       12.904662   -1.522049   -1.022950
    118          1           0       12.761836   -0.105041   -1.694807
    119          1           0       13.692694    0.979374    0.504480
    120          1           0       13.961054   -0.685111    0.863498
    121          1           0       15.285375    0.369090   -1.403410
    122          1           0       15.266684   -2.290686   -0.144889
    123          1           0       14.731915   -1.695435   -2.144533
    124          1           0       16.597722   -1.601387   -1.255662
    125          1           0       16.157261    1.213825    0.737563
    126          1           0       16.603238   -0.328414    1.069031
    127          1           0       18.353706   -0.365026   -0.590708
    128          1           0       17.544180    1.483341   -1.032475
    129          1           0       18.380827    2.461429    1.037522
    130          1           0       18.617630    0.943415    1.568022
    131          1           0       20.758709    0.383126    0.189632
    132          1           0       19.507249    3.023017   -0.903598
    133          1           0       21.389578    2.483547   -1.340751
    134          1           0       20.123653    1.526370   -2.064424
    135          1           0       20.987041    1.548144    2.492856
    136          1           0       21.981088    2.286141    1.117811
    137          1           0       20.565767    3.134689    1.706745
 ---------------------------------------------------------------------

 SCF Done:  E(RCAM-B3LYP) =  -2932.45275343     A.U. after   17 cycles

 Excitation energies and oscillator strengths:

 Excited State   1:      Singlet-A      2.0879 eV  593.83 nm  f=0.2026  <S**2>=0.000
     240 -> 243        0.25816
     241 -> 242        0.64800
 This state for optimization and/or second-order correction.
 Total Energy, E(TD-HF/TD-KS) =  -2932.37602562
 Copying the excited state density for this state as the 1-particle RhoCI density.

 The electronic state is 1-A.
 Alpha  occ. eigenvalues --  -46.84710 -19.25052 -19.24246 -19.22437 -19.20677
 Alpha  occ. eigenvalues --  -19.19336 -14.41608 -14.40564 -14.40025 -14.38520
 Alpha  occ. eigenvalues --  -10.39432 -10.39430 -10.34109 -10.32309 -10.32021
 Alpha  occ. eigenvalues --  -10.31278 -10.31071 -10.30349 -10.30217 -10.30208
 Alpha  occ. eigenvalues --  -10.30022 -10.29921 -10.29342 -10.29065 -10.28926
 Alpha  occ. eigenvalues --  -10.28841 -10.28460 -10.28265 -10.27911 -10.27899
 Alpha  occ. eigenvalues --  -10.27870 -10.27831 -10.27826 -10.27669 -10.27560
 Alpha  occ. eigenvalues --  -10.27426 -10.27326 -10.27263 -10.27231 -10.27176
 Alpha  occ. eigenvalues --  -10.27124 -10.27105 -10.27078 -10.26956 -10.26889
 Alpha  occ. eigenvalues --  -10.26852 -10.26803 -10.26405 -10.26052 -10.25847
 Alpha  occ. eigenvalues --  -10.25737 -10.25656 -10.25651 -10.25641 -10.25120
 Alpha  occ. eigenvalues --  -10.24999 -10.24813 -10.24668 -10.24602 -10.24485
 Alpha  occ. eigenvalues --  -10.24469 -10.23929 -10.23609 -10.23312 -10.22707
 Alpha  occ. eigenvalues --   -3.13706  -1.88404  -1.87945  -1.87894  -1.17435
 Alpha  occ. eigenvalues --   -1.15120  -1.10187  -1.09202  -1.06498  -1.04851
 Alpha  occ. eigenvalues --   -1.04104  -1.02955  -1.02214  -0.93611  -0.91487
 Alpha  occ. eigenvalues --   -0.91385  -0.91141  -0.90810  -0.89034  -0.88955
 Alpha  occ. eigenvalues --   -0.88416  -0.87647  -0.87317  -0.87205  -0.86404
 Alpha  occ. eigenvalues --   -0.85729  -0.84730  -0.83833  -0.83165  -0.82396
 Alpha  occ. eigenvalues --   -0.81512  -0.81021  -0.80394  -0.79835  -0.78535
 Alpha  occ. eigenvalues --   -0.78182  -0.76900  -0.75758  -0.75662  -0.75521
 Alpha  occ. eigenvalues --   -0.74927  -0.74903  -0.74571  -0.73366  -0.73100
 Alpha  occ. eigenvalues --   -0.71909  -0.71194  -0.70379  -0.69938  -0.69310
 Alpha  occ. eigenvalues --   -0.67892  -0.66457  -0.66007  -0.65219  -0.64238
 Alpha  occ. eigenvalues --   -0.63186  -0.62849  -0.62392  -0.61884  -0.61479
 Alpha  occ. eigenvalues --   -0.61182  -0.60817  -0.60369  -0.60244  -0.59573
 Alpha  occ. eigenvalues --   -0.58740  -0.58455  -0.57639  -0.57389  -0.56980
 Alpha  occ. eigenvalues --   -0.56295  -0.55886  -0.55565  -0.55398  -0.55114
 Alpha  occ. eigenvalues --   -0.54549  -0.54228  -0.54036  -0.53843  -0.53631
 Alpha  occ. eigenvalues --   -0.53313  -0.52996  -0.52596  -0.52129  -0.51555
 Alpha  occ. eigenvalues --   -0.51332  -0.51149  -0.50805  -0.50712  -0.50297
 Alpha  occ. eigenvalues --   -0.50244  -0.49854  -0.49594  -0.49448  -0.49264
 Alpha  occ. eigenvalues --   -0.49041  -0.48823  -0.48563  -0.48492  -0.48309
 Alpha  occ. eigenvalues --   -0.48118  -0.47751  -0.47549  -0.47399  -0.47014
 Alpha  occ. eigenvalues --   -0.46685  -0.46470  -0.46334  -0.46020  -0.45843
 Alpha  occ. eigenvalues --   -0.45527  -0.45337  -0.45296  -0.45110  -0.44797
 Alpha  occ. eigenvalues --   -0.44668  -0.44553  -0.44485  -0.44252  -0.44142
 Alpha  occ. eigenvalues --   -0.43930  -0.43744  -0.43486  -0.43115  -0.42946
 Alpha  occ. eigenvalues --   -0.42613  -0.42456  -0.42402  -0.42357  -0.42313
 Alpha  occ. eigenvalues --   -0.42158  -0.41949  -0.41835  -0.41630  -0.41339
 Alpha  occ. eigenvalues --   -0.41025  -0.40673  -0.40622  -0.40537  -0.40516
 Alpha  occ. eigenvalues --   -0.40322  -0.40191  -0.40152  -0.39576  -0.39012
 Alpha  occ. eigenvalues --   -0.38951  -0.38312  -0.38203  -0.38176  -0.37908
 Alpha  occ. eigenvalues --   -0.37803  -0.37675  -0.37221  -0.36588  -0.36455
 Alpha  occ. eigenvalues --   -0.36138  -0.35974  -0.35546  -0.35088  -0.34908
 Alpha  occ. eigenvalues --   -0.34845  -0.34413  -0.34017  -0.33352  -0.33154
 Alpha  occ. eigenvalues --   -0.32893  -0.32645  -0.32539  -0.30999  -0.29641
 Alpha  occ. eigenvalues --   -0.29211  -0.28618  -0.28438  -0.27786  -0.23617
 Alpha  occ. eigenvalues --   -0.21959
 Alpha virt. eigenvalues --   -0.06898  -0.04104   0.00841   0.02514   0.04310
 Alpha virt. eigenvalues --    0.04830   0.05539   0.06451   0.07013   0.07231
 Alpha virt. eigenvalues --    0.07848   0.10297   0.10580   0.11100   0.11247

 Mulliken charges:
               1
     1  Mg   0.829256
     2  C    0.124716
     3  C   -0.228432
     4  C   -0.166336
     5  C   -0.167550
     6  N   -0.662103
     7  C    0.281647
     8  C   -0.157058
     9  C   -0.137456
    10  C    0.397764
    11  C   -0.302598
    12  C   -0.164145
    13  C   -0.264913
    14  C    0.609935
    15  O   -0.433030
    16  O   -0.521053
    17  N   -0.707141
    18  C    0.285155
    19  C    0.031255
    20  C    0.100024
    21  C    0.268266
    22  C   -0.378829
    23  C   -0.167216
    24  C   -0.204270
    25  N   -0.654843
    26  C    0.298853
    27  C   -0.007880
    28  C    0.022883
    29  C    0.249018
    30  C   -0.352790
    31  C   -0.228645
    32  C   -0.311078
    33  N   -0.716498
    34  C    0.232864
    35  C    0.079081
    36  C    0.086643
    37  C    0.291790
    38  C   -0.381744
    39  C    0.287961
    40  O   -0.474046
    41  C   -0.336020
    42  C    0.617069
    43  O   -0.493750
    44  O   -0.465672
    45  C   -0.070662
    46  C    0.028020
    47  C   -0.061050
    48  C    0.086538
    49  C   -0.386201
    50  C   -0.239540
    51  C   -0.177061
    52  C   -0.170899
    53  C   -0.074120
    54  C   -0.290534
    55  C   -0.141874
    56  C   -0.196200
    57  C   -0.179003
    58  C   -0.063263
    59  C   -0.277575
    60  C   -0.160727
    61  C   -0.198902
    62  C   -0.133804
    63  C   -0.041365
    64  C   -0.285923
    65  C   -0.302060
    66  H    0.064334
    67  H    0.089422
    68  H    0.088452
    69  H    0.101095
    70  H    0.090292
    71  H    0.107664
    72  H    0.111370
    73  H    0.137925
    74  H    0.119779
    75  H    0.128119
    76  H    0.137673
    77  H    0.116603
    78  H    0.125099
    79  H    0.125479
    80  H    0.111465
    81  H    0.122870
    82  H    0.104021
    83  H    0.094956
    84  H    0.114291
    85  H    0.084805
    86  H    0.117809
    87  H    0.119532
    88  H    0.087506
    89  H    0.114085
    90  H    0.125424
    91  H    0.100828
    92  H    0.097839
    93  H    0.146137
    94  H    0.149330
    95  H    0.162340
    96  H    0.112309
    97  H    0.120502
    98  H    0.123034
    99  H    0.124139
   100  H    0.119576
   101  H    0.063142
   102  H    0.110157
   103  H    0.100902
   104  H    0.109924
   105  H    0.101219
   106  H    0.107674
   107  H    0.100827
   108  H    0.109515
   109  H    0.099516
   110  H    0.104680
   111  H    0.071250
   112  H    0.124253
   113  H    0.097136
   114  H    0.046365
   115  H    0.076592
   116  H    0.053001
   117  H    0.098178
   118  H    0.098437
   119  H    0.072678
   120  H    0.103407
   121  H    0.087325
   122  H    0.074069
   123  H    0.084644
   124  H    0.111178
   125  H    0.103967
   126  H    0.084434
   127  H    0.087915
   128  H    0.096840
   129  H    0.039857
   130  H    0.088734
   131  H    0.063165
   132  H    0.101475
   133  H    0.089610
   134  H    0.091125
   135  H    0.090275
   136  H    0.086130
   137  H    0.101417
 Sum of Mulliken charges =   0.00000

 Dipole moment (field-independent basis, Debye):
    X=              0.7321    Y=              6.7823    Z=             -0.2852  Tot=              6.8277
 Quadrupole moment (field-independent basis, Debye-Ang):
   XX=           -331.7947   YY=           -389.4438   ZZ=           -399.3398
   XY=            -28.1233   XZ=              8.7377   YZ=              4.2993

 Normal termination of Gaussian 09 at Fri Jun 28 07:42:06 2019.
