 Gaussian 09, Revision D.01,
 Gaussian 09:  ES64L-G09RevD.01 24-Apr-2013

 -------------------------------------
 # td=(NStates=1) CAM-B3LYP/6-31G(d,p)
 -------------------------------------

 --
 TD
 --
 Symbolic Z-matrix:
 Charge =  0 Multiplicity = 1

                         Standard orientation:
 ---------------------------------------------------------------------
 Center     Atomic      Atomic             Coordinates (Angstroms)
 Number     Number       Type             X           Y           Z
 ---------------------------------------------------------------------
      1         12           0       -7.186583    0.630097    0.128872
      2          6           0       -4.892061   -1.969317    0.449684
      3          6           0       -4.733039    2.872898    1.083080
      4          6           0       -9.391017    3.149347   -0.291843
      5          6           0       -9.583518   -1.778376   -0.800712
      6          7           0       -5.133966    0.395779    0.680344
      7          6           0       -4.381461   -0.696610    0.600831
      8          6           0       -2.922699   -0.355843    1.052353
      9          6           0       -2.995041    1.022123    1.542457
     10          6           0       -4.186999    1.462612    0.937509
     11          6           0       -2.835258    1.289535    3.013129
     12          6           0       -1.846513   -0.658565   -0.039046
     13          6           0       -0.455497   -0.484567    0.426642
     14          6           0        0.502322   -0.676937   -0.658321
     15          8           0        0.166781   -0.940207   -1.759956
     16          8           0        1.761137   -0.505244   -0.256656
     17          7           0       -7.125544    2.631442    0.327176
     18          6           0       -6.030336    3.343821    0.786178
     19          6           0       -6.417491    4.774558    0.783287
     20          6           0       -7.707203    4.853763    0.498423
     21          6           0       -8.136191    3.491259    0.170051
     22          6           0       -5.640048    5.904549    1.355935
     23          6           0       -8.537714    5.989598    0.377102
     24          6           0       -8.197648    7.275449    0.070651
     25          7           0       -9.114907    0.677807   -0.416307
     26          6           0       -9.862163    1.791808   -0.590285
     27          6           0      -11.231895    1.408090   -0.994197
     28          6           0      -11.231378    0.119697   -1.169203
     29          6           0       -9.937647   -0.433963   -0.800795
     30          6           0      -12.290525    2.411388   -1.283730
     31          6           0      -12.434976   -0.779135   -1.697340
     32          6           0      -12.450546   -1.138635   -3.184718
     33          7           0       -7.268203   -1.387357   -0.104089
     34          6           0       -8.267844   -2.226659   -0.537225
     35          6           0       -7.826437   -3.504095   -0.445819
     36          6           0       -6.572308   -3.518454   -0.100508
     37          6           0       -6.174159   -2.171474    0.125304
     38          6           0       -8.602086   -4.940501   -0.804844
     39          6           0       -5.336553   -4.349888    0.206219
     40          8           0       -5.323406   -5.562142    0.208714
     41          6           0       -4.078456   -3.251872    0.486978
     42          6           0       -3.570670   -3.583007    1.786935
     43          8           0       -3.745003   -3.012200    2.914924
     44          8           0       -2.795416   -4.651428    1.778507
     45          6           0       -2.152619   -5.205718    2.814279
     46          6           0        2.874989   -0.723435   -1.307807
     47          6           0        4.143052   -0.519685   -0.615426
     48          6           0        5.101640    0.324131   -0.942810
     49          6           0        5.059184    1.409808   -2.006455
     50          6           0        6.427358    0.400267   -0.065130
     51          6           0        7.717307   -0.054432   -0.972762
     52          6           0        8.954898   -0.008772   -0.166245
     53          6           0       10.253654   -0.556120   -0.822793
     54          6           0       10.152804   -2.017175   -1.196758
     55          6           0       11.424956   -0.299465    0.143722
     56          6           0       12.758297   -0.612160   -0.595799
     57          6           0       13.952052   -0.177404    0.166965
     58          6           0       15.324300   -0.199265   -0.469713
     59          6           0       15.685703   -1.782119   -0.692550
     60          6           0       16.431035    0.369289    0.402318
     61          6           0       17.769827    0.512238   -0.179643
     62          6           0       18.814726    1.312773    0.705798
     63          6           0       20.286280    1.331003    0.149678
     64          6           0       20.333000    2.130039   -1.204050
     65          6           0       21.185571    1.961917    1.216760
     66          1           0       -3.818030    3.452991    1.272497
     67          1           0      -10.006423    4.036973   -0.598899
     68          1           0      -10.393649   -2.463559   -1.112480
     69          1           0       -2.642504   -1.076848    1.855627
     70          1           0       -2.289500    1.670052    1.052203
     71          1           0       -1.873858    0.753270    3.252747
     72          1           0       -3.029289    2.275785    3.431974
     73          1           0       -3.280744    0.591449    3.521330
     74          1           0       -1.995077   -1.792441   -0.321914
     75          1           0       -2.146107    0.158625   -0.879904
     76          1           0       -0.380078    0.420309    0.670881
     77          1           0       -0.237743   -1.003270    1.506574
     78          1           0       -4.882810    6.378874    0.696305
     79          1           0       -6.334223    6.564321    1.830841
     80          1           0       -4.929430    5.608851    2.372071
     81          1           0       -9.726924    6.071131    0.557009
     82          1           0       -8.729726    8.151831    0.350686
     83          1           0       -7.137232    7.575505   -0.044820
     84          1           0      -12.228129    2.853827   -2.318636
     85          1           0      -13.286917    1.921918   -1.548326
     86          1           0      -12.403236    3.072104   -0.279386
     87          1           0      -12.437476   -1.609285   -1.128202
     88          1           0      -13.309933   -0.347588   -1.396320
     89          1           0      -13.292656   -1.935833   -3.633387
     90          1           0      -12.444197   -0.285612   -4.019080
     91          1           0      -11.552381   -1.734968   -3.306525
     92          1           0       -9.020918   -5.096901   -1.934229
     93          1           0       -7.791451   -5.781649   -0.414677
     94          1           0       -9.469676   -5.001866   -0.207486
     95          1           0       -3.552221   -3.524063   -0.356508
     96          1           0       -1.176196   -4.730354    3.418946
     97          1           0       -2.895480   -5.360829    3.721392
     98          1           0       -1.815509   -6.181195    2.461120
     99          1           0        2.630930   -1.756739   -1.682952
    100          1           0        2.573698    0.134355   -2.031886
    101          1           0        4.227626   -1.382533    0.278166
    102          1           0        4.063664    1.576284   -2.265784
    103          1           0        5.579676    2.284029   -1.641030
    104          1           0        5.612830    0.984878   -2.897980
    105          1           0        6.542248    1.484472    0.391728
    106          1           0        6.322366   -0.238362    0.896649
    107          1           0        7.385976   -1.072027   -1.605668
    108          1           0        7.532626    0.827923   -1.778536
    109          1           0        9.082500    1.196851    0.129433
    110          1           0        8.739686   -0.608578    0.888702
    111          1           0       10.628311    0.081074   -1.711543
    112          1           0        9.287031   -2.173529   -1.794222
    113          1           0       11.037938   -2.286237   -1.697494
    114          1           0        9.863478   -2.774889   -0.321274
    115          1           0       11.362578    0.776309    0.500625
    116          1           0       11.315150   -0.899110    1.172355
    117          1           0       12.761457   -1.735970   -0.547134
    118          1           0       12.583245   -0.368814   -1.682509
    119          1           0       14.048894    0.844607    0.444973
    120          1           0       14.037525   -0.711786    0.971764
    121          1           0       15.314071    0.290801   -1.377987
    122          1           0       15.965439   -2.242850    0.163521
    123          1           0       14.711761   -2.308820   -1.322018
    124          1           0       16.596841   -1.981332   -1.312001
    125          1           0       16.087117    1.250494    0.687245
    126          1           0       16.618918   -0.209762    1.423717
    127          1           0       18.269469   -0.418844   -0.285501
    128          1           0       17.828697    0.974738   -1.074266
    129          1           0       18.355365    2.339487    0.791479
    130          1           0       18.776176    0.858302    1.623487
    131          1           0       20.734704    0.410070   -0.103765
    132          1           0       19.657204    3.201104   -1.010348
    133          1           0       21.306959    2.058664   -1.450591
    134          1           0       19.697544    1.700508   -1.884176
    135          1           0       21.154675    1.203190    2.080891
    136          1           0       22.125182    2.271065    0.635718
    137          1           0       20.856998    2.944463    1.591722
 ---------------------------------------------------------------------

 SCF Done:  E(RCAM-B3LYP) =  -2932.54279337     A.U. after   18 cycles

 Excitation energies and oscillator strengths:

 Excited State   1:      Singlet-A      1.9982 eV  620.48 nm  f=0.2417  <S**2>=0.000
     240 -> 242       -0.11392
     240 -> 243        0.23170
     241 -> 242        0.64859
     241 -> 243        0.10073
 This state for optimization and/or second-order correction.
 Total Energy, E(TD-HF/TD-KS) =  -2932.46936131
 Copying the excited state density for this state as the 1-particle RhoCI density.

 The electronic state is 1-A.
 Alpha  occ. eigenvalues --  -46.83498 -19.26704 -19.24701 -19.22014 -19.19807
 Alpha  occ. eigenvalues --  -19.19741 -14.42336 -14.39903 -14.39525 -14.38454
 Alpha  occ. eigenvalues --  -10.39686 -10.37701 -10.36824 -10.33272 -10.32621
 Alpha  occ. eigenvalues --  -10.31911 -10.31127 -10.30034 -10.29875 -10.29315
 Alpha  occ. eigenvalues --  -10.29285 -10.28982 -10.28686 -10.28680 -10.28576
 Alpha  occ. eigenvalues --  -10.28510 -10.28490 -10.28013 -10.27722 -10.27658
 Alpha  occ. eigenvalues --  -10.27638 -10.27511 -10.27494 -10.27369 -10.27311
 Alpha  occ. eigenvalues --  -10.27295 -10.27238 -10.27201 -10.27067 -10.27052
 Alpha  occ. eigenvalues --  -10.27046 -10.26887 -10.26656 -10.26613 -10.26355
 Alpha  occ. eigenvalues --  -10.26204 -10.26139 -10.26111 -10.26030 -10.25801
 Alpha  occ. eigenvalues --  -10.25783 -10.25768 -10.25397 -10.25390 -10.25378
 Alpha  occ. eigenvalues --  -10.25373 -10.25079 -10.24971 -10.24918 -10.24658
 Alpha  occ. eigenvalues --  -10.24563 -10.24304 -10.24006 -10.23153 -10.22970
 Alpha  occ. eigenvalues --   -3.12694  -1.87394  -1.86943  -1.86871  -1.20203
 Alpha  occ. eigenvalues --   -1.17519  -1.12275  -1.08785  -1.06419  -1.04940
 Alpha  occ. eigenvalues --   -1.04372  -1.03660  -1.01932  -0.93399  -0.91791
 Alpha  occ. eigenvalues --   -0.91544  -0.90989  -0.90378  -0.89905  -0.88890
 Alpha  occ. eigenvalues --   -0.88484  -0.88388  -0.87587  -0.86445  -0.85905
 Alpha  occ. eigenvalues --   -0.85519  -0.84951  -0.83937  -0.83230  -0.82702
 Alpha  occ. eigenvalues --   -0.82033  -0.81422  -0.80196  -0.79824  -0.79034
 Alpha  occ. eigenvalues --   -0.77689  -0.77224  -0.76185  -0.76087  -0.75902
 Alpha  occ. eigenvalues --   -0.75333  -0.74927  -0.74580  -0.73384  -0.72432
 Alpha  occ. eigenvalues --   -0.71883  -0.70334  -0.69849  -0.69263  -0.67942
 Alpha  occ. eigenvalues --   -0.67152  -0.66743  -0.65243  -0.64900  -0.64460
 Alpha  occ. eigenvalues --   -0.64104  -0.63678  -0.62980  -0.62372  -0.61765
 Alpha  occ. eigenvalues --   -0.61582  -0.60604  -0.60377  -0.60196  -0.59426
 Alpha  occ. eigenvalues --   -0.58937  -0.58768  -0.57913  -0.57430  -0.57011
 Alpha  occ. eigenvalues --   -0.56573  -0.56024  -0.55294  -0.55224  -0.54942
 Alpha  occ. eigenvalues --   -0.54715  -0.54463  -0.54212  -0.53763  -0.53051
 Alpha  occ. eigenvalues --   -0.52876  -0.52551  -0.52374  -0.52047  -0.52039
 Alpha  occ. eigenvalues --   -0.51697  -0.51612  -0.51027  -0.50572  -0.50512
 Alpha  occ. eigenvalues --   -0.50399  -0.50192  -0.50057  -0.49798  -0.49620
 Alpha  occ. eigenvalues --   -0.49437  -0.49183  -0.49118  -0.48977  -0.48372
 Alpha  occ. eigenvalues --   -0.48222  -0.48012  -0.47851  -0.47712  -0.47449
 Alpha  occ. eigenvalues --   -0.47194  -0.46834  -0.46282  -0.46056  -0.45923
 Alpha  occ. eigenvalues --   -0.45873  -0.45602  -0.45115  -0.45080  -0.44907
 Alpha  occ. eigenvalues --   -0.44810  -0.44464  -0.44280  -0.44276  -0.44112
 Alpha  occ. eigenvalues --   -0.43774  -0.43548  -0.43421  -0.43087  -0.42935
 Alpha  occ. eigenvalues --   -0.42821  -0.42662  -0.42536  -0.42479  -0.42096
 Alpha  occ. eigenvalues --   -0.41868  -0.41631  -0.41416  -0.41288  -0.40975
 Alpha  occ. eigenvalues --   -0.40518  -0.40493  -0.40045  -0.39882  -0.39733
 Alpha  occ. eigenvalues --   -0.39474  -0.39444  -0.39380  -0.38925  -0.38812
 Alpha  occ. eigenvalues --   -0.38668  -0.38505  -0.38231  -0.38070  -0.37785
 Alpha  occ. eigenvalues --   -0.37677  -0.37251  -0.37174  -0.36737  -0.36598
 Alpha  occ. eigenvalues --   -0.36545  -0.36461  -0.36281  -0.35977  -0.35560
 Alpha  occ. eigenvalues --   -0.35504  -0.34265  -0.34165  -0.33636  -0.33562
 Alpha  occ. eigenvalues --   -0.33309  -0.32750  -0.32657  -0.30936  -0.30785
 Alpha  occ. eigenvalues --   -0.30136  -0.29855  -0.28817  -0.28322  -0.23332
 Alpha  occ. eigenvalues --   -0.20527
 Alpha virt. eigenvalues --   -0.06168  -0.03229   0.01120   0.02952   0.04619
 Alpha virt. eigenvalues --    0.05170   0.05887   0.06564   0.07181   0.07849
 Alpha virt. eigenvalues --    0.08298   0.10862   0.11103   0.11373   0.12067

 Mulliken charges:
               1
     1  Mg   0.819130
     2  C    0.057138
     3  C   -0.203962
     4  C   -0.202795
     5  C   -0.166124
     6  N   -0.600129
     7  C    0.348397
     8  C   -0.210070
     9  C   -0.109762
    10  C    0.243603
    11  C   -0.297005
    12  C   -0.157321
    13  C   -0.246280
    14  C    0.615264
    15  O   -0.467652
    16  O   -0.516311
    17  N   -0.721923
    18  C    0.311996
    19  C    0.017372
    20  C    0.076119
    21  C    0.344136
    22  C   -0.375061
    23  C   -0.123991
    24  C   -0.250399
    25  N   -0.699801
    26  C    0.304074
    27  C    0.036013
    28  C    0.003461
    29  C    0.272787
    30  C   -0.375796
    31  C   -0.217711
    32  C   -0.299426
    33  N   -0.750695
    34  C    0.276008
    35  C   -0.052469
    36  C    0.057344
    37  C    0.312170
    38  C   -0.362466
    39  C    0.347819
    40  O   -0.432291
    41  C   -0.330205
    42  C    0.644047
    43  O   -0.520793
    44  O   -0.392344
    45  C   -0.077324
    46  C   -0.003845
    47  C   -0.104271
    48  C    0.098094
    49  C   -0.352358
    50  C   -0.225497
    51  C   -0.160416
    52  C   -0.144843
    53  C   -0.060637
    54  C   -0.303899
    55  C   -0.157270
    56  C   -0.199441
    57  C   -0.138566
    58  C   -0.075204
    59  C   -0.315377
    60  C   -0.162514
    61  C   -0.183953
    62  C   -0.180232
    63  C   -0.072885
    64  C   -0.294393
    65  C   -0.294965
    66  H    0.089495
    67  H    0.101822
    68  H    0.103423
    69  H    0.122633
    70  H    0.111358
    71  H    0.094774
    72  H    0.124086
    73  H    0.147897
    74  H    0.102493
    75  H    0.094996
    76  H    0.141396
    77  H    0.115448
    78  H    0.124139
    79  H    0.136988
    80  H    0.072642
    81  H    0.096350
    82  H    0.110450
    83  H    0.093169
    84  H    0.127896
    85  H    0.105394
    86  H    0.111311
    87  H    0.115532
    88  H    0.110280
    89  H    0.078632
    90  H    0.097346
    91  H    0.115428
    92  H    0.101374
    93  H    0.132585
    94  H    0.125978
    95  H    0.182847
    96  H    0.086078
    97  H    0.111723
    98  H    0.126621
    99  H    0.141945
   100  H    0.123689
   101  H    0.087658
   102  H    0.119894
   103  H    0.126734
   104  H    0.127530
   105  H    0.090373
   106  H    0.090708
   107  H    0.084923
   108  H    0.081823
   109  H    0.072686
   110  H    0.078428
   111  H    0.084437
   112  H    0.106864
   113  H    0.114614
   114  H    0.085232
   115  H    0.081274
   116  H    0.070438
   117  H    0.107460
   118  H    0.086875
   119  H    0.081842
   120  H    0.104727
   121  H    0.090877
   122  H    0.112988
   123  H    0.060618
   124  H    0.090346
   125  H    0.091622
   126  H    0.065945
   127  H    0.095035
   128  H    0.094877
   129  H    0.081832
   130  H    0.089996
   131  H    0.095270
   132  H    0.063306
   133  H    0.106550
   134  H    0.116381
   135  H    0.097733
   136  H    0.085378
   137  H    0.104208
 Sum of Mulliken charges =   0.00000

 Dipole moment (field-independent basis, Debye):
    X=              3.6996    Y=              4.6682    Z=             -0.2196  Tot=              5.9605
 Quadrupole moment (field-independent basis, Debye-Ang):
   XX=           -351.5420   YY=           -393.8817   ZZ=           -401.6389
   XY=            -25.4752   XZ=              5.8951   YZ=              2.6513

 Normal termination of Gaussian 09 at Fri Jun 28 04:03:23 2019.
