 Gaussian 09, Revision D.01,
 Gaussian 09:  ES64L-G09RevD.01 24-Apr-2013

 -------------------------------------
 # td=(NStates=1) CAM-B3LYP/6-31G(d,p)
 -------------------------------------

 --
 TD
 --
 Symbolic Z-matrix:
 Charge =  0 Multiplicity = 1

                         Standard orientation:
 ---------------------------------------------------------------------
 Center     Atomic      Atomic             Coordinates (Angstroms)
 Number     Number       Type             X           Y           Z
 ---------------------------------------------------------------------
      1         12           0       -7.180132    0.655275    0.152076
      2          6           0       -4.803473   -1.957239    0.442471
      3          6           0       -4.832475    2.839233    1.104666
      4          6           0       -9.469236    3.115069   -0.326482
      5          6           0       -9.585077   -1.741094   -0.849347
      6          7           0       -5.077038    0.463405    0.616279
      7          6           0       -4.330994   -0.678592    0.797102
      8          6           0       -2.927838   -0.472768    1.265203
      9          6           0       -2.979853    1.019736    1.712393
     10          6           0       -4.384465    1.542159    1.069712
     11          6           0       -3.012381    1.273805    3.254423
     12          6           0       -1.917173   -0.638324    0.197200
     13          6           0       -0.463719   -0.420821    0.580068
     14          6           0        0.534390   -0.815391   -0.555126
     15          8           0        0.218595   -1.151965   -1.619235
     16          8           0        1.744368   -0.504913   -0.131551
     17          7           0       -7.165703    2.547944    0.446594
     18          6           0       -6.077225    3.316171    0.798861
     19          6           0       -6.396057    4.723904    0.765788
     20          6           0       -7.721375    4.787662    0.283843
     21          6           0       -8.197845    3.416947    0.164439
     22          6           0       -5.483663    5.857651    1.316811
     23          6           0       -8.469595    6.087546    0.177292
     24          6           0       -8.155430    7.345735    0.079777
     25          7           0       -9.179736    0.720374   -0.427678
     26          6           0       -9.941413    1.835211   -0.661664
     27          6           0      -11.300318    1.472211   -1.052727
     28          6           0      -11.283640    0.073100   -1.164949
     29          6           0       -9.979606   -0.423131   -0.800557
     30          6           0      -12.188550    2.504713   -1.395881
     31          6           0      -12.414953   -0.758986   -1.643773
     32          6           0      -12.290265   -1.077961   -3.107207
     33          7           0       -7.185136   -1.333107   -0.131250
     34          6           0       -8.356952   -2.102863   -0.555803
     35          6           0       -7.877342   -3.592016   -0.475257
     36          6           0       -6.524263   -3.538858   -0.153238
     37          6           0       -6.235202   -2.175028    0.111137
     38          6           0       -8.705565   -4.794316   -0.868815
     39          6           0       -5.342167   -4.311604    0.130868
     40          8           0       -5.110807   -5.476430    0.208738
     41          6           0       -4.234423   -3.336279    0.465712
     42          6           0       -3.536641   -3.659648    1.719012
     43          8           0       -3.845929   -3.150338    2.803760
     44          8           0       -2.636138   -4.653818    1.578941
     45          6           0       -1.968651   -5.196682    2.746993
     46          6           0        2.789823   -0.743361   -1.069077
     47          6           0        4.100087   -0.562026   -0.446648
     48          6           0        5.135028    0.148246   -0.898275
     49          6           0        5.176598    0.919356   -2.290882
     50          6           0        6.416276    0.354198   -0.178853
     51          6           0        7.687823   -0.367843   -0.812941
     52          6           0        9.049936   -0.248482   -0.083570
     53          6           0       10.185187   -0.544684   -0.914340
     54          6           0       10.249044   -2.011677   -1.418290
     55          6           0       11.418840   -0.340664    0.016296
     56          6           0       12.820700   -0.459894   -0.698416
     57          6           0       14.020905   -0.097181    0.158654
     58          6           0       15.374317   -0.062365   -0.530353
     59          6           0       15.706501   -1.475476   -0.845033
     60          6           0       16.369497    0.594734    0.362328
     61          6           0       17.752988    0.676821   -0.191382
     62          6           0       18.704910    1.338828    0.681575
     63          6           0       20.149757    1.417695    0.201284
     64          6           0       20.388220    2.192786   -1.067576
     65          6           0       21.021114    1.941917    1.419245
     66          1           0       -4.064517    3.687750    1.499419
     67          1           0      -10.122022    4.086677   -0.377307
     68          1           0      -10.395853   -2.229399   -1.159184
     69          1           0       -2.774311   -1.147288    2.275234
     70          1           0       -2.467835    1.836115    1.306749
     71          1           0       -1.950208    0.919109    3.589976
     72          1           0       -3.159466    2.289004    3.690634
     73          1           0       -3.727529    0.417362    3.796090
     74          1           0       -2.088664   -1.722010   -0.061547
     75          1           0       -2.312590    0.021112   -0.624239
     76          1           0       -0.216461    0.522242    0.922573
     77          1           0       -0.322580   -1.321966    1.376962
     78          1           0       -4.803552    5.949305    0.399666
     79          1           0       -6.033599    6.755520    1.599451
     80          1           0       -4.917304    5.552483    1.994875
     81          1           0       -9.651774    6.000427   -0.198773
     82          1           0       -8.947973    8.154888   -0.271102
     83          1           0       -7.088540    7.833139   -0.023610
     84          1           0      -11.727427    3.135352   -2.210154
     85          1           0      -13.217129    2.135961   -1.700628
     86          1           0      -12.542544    3.313792   -0.513991
     87          1           0      -12.788674   -1.571114   -1.192922
     88          1           0      -13.234016    0.155346   -1.456287
     89          1           0      -13.037153   -1.884793   -3.293177
     90          1           0      -12.527226   -0.209383   -3.651061
     91          1           0      -11.214226   -1.438866   -3.303367
     92          1           0       -9.445885   -4.669997   -1.767571
     93          1           0       -8.093590   -5.655491   -1.199211
     94          1           0       -9.268832   -5.004383    0.217622
     95          1           0       -3.395293   -3.342522   -0.270317
     96          1           0       -1.433085   -4.451732    3.269261
     97          1           0       -2.797183   -5.676669    3.464367
     98          1           0       -1.381279   -5.976197    2.446807
     99          1           0        2.724558   -1.750590   -1.320048
    100          1           0        2.546461   -0.160294   -1.818588
    101          1           0        4.216864   -1.123875    0.305490
    102          1           0        4.078839    0.874263   -2.509103
    103          1           0        5.464949    1.932916   -2.240889
    104          1           0        5.860354    0.520277   -2.950857
    105          1           0        6.904165    1.382937   -0.005507
    106          1           0        6.428505   -0.256633    0.790757
    107          1           0        7.483667   -1.363701   -1.248880
    108          1           0        7.675499    0.083935   -1.871987
    109          1           0        9.083823    0.775574    0.290256
    110          1           0        8.940906   -0.879691    0.991288
    111          1           0       10.400365    0.021600   -1.778664
    112          1           0        9.371342   -2.124520   -1.997621
    113          1           0       11.210058   -2.228743   -1.916931
    114          1           0        9.958116   -2.798666   -0.474971
    115          1           0       11.714733    0.576544    0.404119
    116          1           0       11.221570   -0.977131    0.863875
    117          1           0       13.108537   -1.502654   -1.002778
    118          1           0       12.809051    0.059160   -1.612960
    119          1           0       13.800844    0.825391    0.829272
    120          1           0       14.001375   -0.689879    1.078540
    121          1           0       15.342134    0.466730   -1.448729
    122          1           0       15.773197   -2.053051   -0.055955
    123          1           0       15.040745   -1.849517   -1.755289
    124          1           0       16.692922   -1.605100   -1.306934
    125          1           0       16.183033    1.479143    0.661744
    126          1           0       16.397482    0.035483    1.317937
    127          1           0       18.151971   -0.379506   -0.438513
    128          1           0       17.792370    1.272981   -1.137846
    129          1           0       18.261218    2.397040    0.862972
    130          1           0       18.644928    0.761997    1.610734
    131          1           0       20.374803    0.537017   -0.044480
    132          1           0       20.017590    3.238920   -1.070009
    133          1           0       21.557400    2.081860   -1.559305
    134          1           0       19.684304    1.824009   -1.940683
    135          1           0       20.866058    1.037807    2.253342
    136          1           0       22.079032    1.913235    1.082640
    137          1           0       20.754030    2.885983    1.711432
 ---------------------------------------------------------------------

 SCF Done:  E(RCAM-B3LYP) =  -2932.58730007     A.U. after   18 cycles

 Excitation energies and oscillator strengths:

 Excited State   1:      Singlet-A      2.0516 eV  604.34 nm  f=0.1995  <S**2>=0.000
     240 -> 243       -0.25478
     241 -> 242        0.65145
 This state for optimization and/or second-order correction.
 Total Energy, E(TD-HF/TD-KS) =  -2932.51190689
 Copying the excited state density for this state as the 1-particle RhoCI density.

 The electronic state is 1-A.
 Alpha  occ. eigenvalues --  -46.83039 -19.26492 -19.26085 -19.21119 -19.20254
 Alpha  occ. eigenvalues --  -19.20210 -14.41370 -14.40095 -14.39209 -14.38768
 Alpha  occ. eigenvalues --  -10.39015 -10.38647 -10.34816 -10.31525 -10.30739
 Alpha  occ. eigenvalues --  -10.30693 -10.30125 -10.30072 -10.29893 -10.29754
 Alpha  occ. eigenvalues --  -10.29469 -10.29307 -10.28751 -10.28678 -10.28412
 Alpha  occ. eigenvalues --  -10.28185 -10.28042 -10.27731 -10.27728 -10.27667
 Alpha  occ. eigenvalues --  -10.27663 -10.27553 -10.27553 -10.27471 -10.27422
 Alpha  occ. eigenvalues --  -10.27243 -10.27196 -10.27086 -10.26998 -10.26798
 Alpha  occ. eigenvalues --  -10.26793 -10.26689 -10.26282 -10.26247 -10.26236
 Alpha  occ. eigenvalues --  -10.25987 -10.25779 -10.25773 -10.25740 -10.25578
 Alpha  occ. eigenvalues --  -10.25440 -10.25373 -10.25372 -10.25357 -10.25039
 Alpha  occ. eigenvalues --  -10.24965 -10.24960 -10.24937 -10.24643 -10.24622
 Alpha  occ. eigenvalues --  -10.24471 -10.24398 -10.24045 -10.23636 -10.22949
 Alpha  occ. eigenvalues --   -3.12352  -1.87036  -1.86600  -1.86550  -1.20558
 Alpha  occ. eigenvalues --   -1.17355  -1.12732  -1.12037  -1.07978  -1.04001
 Alpha  occ. eigenvalues --   -1.03212  -1.02493  -1.00527  -0.92756  -0.92357
 Alpha  occ. eigenvalues --   -0.91797  -0.90894  -0.90267  -0.89793  -0.89469
 Alpha  occ. eigenvalues --   -0.88559  -0.88274  -0.87873  -0.87053  -0.86347
 Alpha  occ. eigenvalues --   -0.85058  -0.84712  -0.84432  -0.83476  -0.83028
 Alpha  occ. eigenvalues --   -0.82329  -0.81923  -0.80754  -0.80152  -0.78498
 Alpha  occ. eigenvalues --   -0.78240  -0.77287  -0.76946  -0.76257  -0.76145
 Alpha  occ. eigenvalues --   -0.75137  -0.74865  -0.74317  -0.73836  -0.72220
 Alpha  occ. eigenvalues --   -0.70762  -0.70172  -0.69237  -0.69186  -0.68467
 Alpha  occ. eigenvalues --   -0.67027  -0.66304  -0.65464  -0.65047  -0.64915
 Alpha  occ. eigenvalues --   -0.64579  -0.64091  -0.63758  -0.63694  -0.63270
 Alpha  occ. eigenvalues --   -0.62462  -0.62184  -0.60498  -0.59245  -0.59140
 Alpha  occ. eigenvalues --   -0.58667  -0.58350  -0.58051  -0.57440  -0.57267
 Alpha  occ. eigenvalues --   -0.56471  -0.56047  -0.55718  -0.55559  -0.55441
 Alpha  occ. eigenvalues --   -0.55008  -0.54807  -0.54243  -0.53713  -0.53532
 Alpha  occ. eigenvalues --   -0.53190  -0.52750  -0.52472  -0.52331  -0.51951
 Alpha  occ. eigenvalues --   -0.51557  -0.51308  -0.51136  -0.50931  -0.50665
 Alpha  occ. eigenvalues --   -0.50445  -0.50420  -0.50159  -0.49635  -0.49354
 Alpha  occ. eigenvalues --   -0.49313  -0.49261  -0.48937  -0.48765  -0.48666
 Alpha  occ. eigenvalues --   -0.48526  -0.48297  -0.47709  -0.47596  -0.47233
 Alpha  occ. eigenvalues --   -0.46936  -0.46728  -0.46599  -0.46522  -0.46110
 Alpha  occ. eigenvalues --   -0.46053  -0.45984  -0.45920  -0.45671  -0.45402
 Alpha  occ. eigenvalues --   -0.45136  -0.44984  -0.44679  -0.44416  -0.44339
 Alpha  occ. eigenvalues --   -0.43936  -0.43870  -0.43718  -0.43501  -0.43153
 Alpha  occ. eigenvalues --   -0.43081  -0.42858  -0.42752  -0.42356  -0.42019
 Alpha  occ. eigenvalues --   -0.41935  -0.41820  -0.41465  -0.41443  -0.41183
 Alpha  occ. eigenvalues --   -0.40913  -0.40820  -0.40598  -0.40537  -0.40319
 Alpha  occ. eigenvalues --   -0.39908  -0.39660  -0.39536  -0.39405  -0.39012
 Alpha  occ. eigenvalues --   -0.38505  -0.38276  -0.38245  -0.37771  -0.37688
 Alpha  occ. eigenvalues --   -0.37454  -0.37349  -0.37111  -0.36800  -0.36644
 Alpha  occ. eigenvalues --   -0.36385  -0.36202  -0.36073  -0.35973  -0.35383
 Alpha  occ. eigenvalues --   -0.35239  -0.34394  -0.34165  -0.34026  -0.33686
 Alpha  occ. eigenvalues --   -0.33083  -0.32823  -0.32394  -0.30579  -0.30242
 Alpha  occ. eigenvalues --   -0.30132  -0.30000  -0.27700  -0.26896  -0.23107
 Alpha  occ. eigenvalues --   -0.20848
 Alpha virt. eigenvalues --   -0.05933  -0.03315   0.02063   0.04572   0.05289
 Alpha virt. eigenvalues --    0.05684   0.06398   0.06992   0.07459   0.08015
 Alpha virt. eigenvalues --    0.08603   0.10559   0.10817   0.10993   0.11654

 Mulliken charges:
               1
     1  Mg   0.816577
     2  C    0.064105
     3  C   -0.232554
     4  C   -0.172278
     5  C   -0.076921
     6  N   -0.622489
     7  C    0.304878
     8  C   -0.184600
     9  C   -0.121593
    10  C    0.319460
    11  C   -0.302108
    12  C   -0.136697
    13  C   -0.260395
    14  C    0.594100
    15  O   -0.437279
    16  O   -0.472807
    17  N   -0.762046
    18  C    0.354116
    19  C   -0.015090
    20  C   -0.020133
    21  C    0.334508
    22  C   -0.330951
    23  C   -0.041327
    24  C   -0.274057
    25  N   -0.696629
    26  C    0.281552
    27  C    0.097044
    28  C   -0.010038
    29  C    0.251032
    30  C   -0.402105
    31  C   -0.249711
    32  C   -0.293986
    33  N   -0.700545
    34  C    0.242452
    35  C   -0.013770
    36  C    0.031992
    37  C    0.300015
    38  C   -0.359599
    39  C    0.380897
    40  O   -0.447163
    41  C   -0.324292
    42  C    0.627775
    43  O   -0.495306
    44  O   -0.460429
    45  C   -0.074655
    46  C    0.030328
    47  C   -0.111742
    48  C    0.114080
    49  C   -0.358075
    50  C   -0.230571
    51  C   -0.212028
    52  C   -0.147363
    53  C   -0.060744
    54  C   -0.295709
    55  C   -0.170309
    56  C   -0.199358
    57  C   -0.191789
    58  C   -0.049643
    59  C   -0.302424
    60  C   -0.148719
    61  C   -0.179178
    62  C   -0.164557
    63  C   -0.028414
    64  C   -0.310888
    65  C   -0.294838
    66  H    0.072585
    67  H    0.094795
    68  H    0.083174
    69  H    0.129897
    70  H    0.109527
    71  H    0.093926
    72  H    0.115489
    73  H    0.103627
    74  H    0.097553
    75  H    0.113018
    76  H    0.138687
    77  H    0.108861
    78  H    0.118861
    79  H    0.129016
    80  H    0.126232
    81  H    0.070073
    82  H    0.097952
    83  H    0.098547
    84  H    0.129517
    85  H    0.103703
    86  H    0.090745
    87  H    0.117266
    88  H    0.071229
    89  H    0.095460
    90  H    0.123221
    91  H    0.100268
    92  H    0.116897
    93  H    0.147852
    94  H    0.119034
    95  H    0.165695
    96  H    0.133073
    97  H    0.119214
    98  H    0.137362
    99  H    0.128239
   100  H    0.119686
   101  H    0.078895
   102  H    0.099743
   103  H    0.121609
   104  H    0.134557
   105  H    0.107618
   106  H    0.088048
   107  H    0.097237
   108  H    0.067146
   109  H    0.099552
   110  H    0.071826
   111  H    0.099790
   112  H    0.108514
   113  H    0.113654
   114  H    0.064391
   115  H    0.097209
   116  H    0.089642
   117  H    0.090305
   118  H    0.094252
   119  H    0.058310
   120  H    0.093257
   121  H    0.087387
   122  H    0.113833
   123  H    0.086437
   124  H    0.094156
   125  H    0.096846
   126  H    0.075316
   127  H    0.073030
   128  H    0.080326
   129  H    0.066794
   130  H    0.085950
   131  H    0.099836
   132  H    0.101334
   133  H    0.073646
   134  H    0.085269
   135  H    0.072710
   136  H    0.095857
   137  H    0.118432
 Sum of Mulliken charges =   0.00000

 Dipole moment (field-independent basis, Debye):
    X=              3.1616    Y=              2.9264    Z=             -0.4054  Tot=              4.3271
 Quadrupole moment (field-independent basis, Debye-Ang):
   XX=           -357.2914   YY=           -388.5761   ZZ=           -400.1437
   XY=            -10.8192   XZ=              9.7022   YZ=             -3.9132

 Normal termination of Gaussian 09 at Thu Jun 27 20:19:13 2019.
