 Gaussian 09, Revision D.01,
 Gaussian 09:  ES64L-G09RevD.01 24-Apr-2013

 -------------------------------------
 # td=(NStates=1) CAM-B3LYP/6-31G(d,p)
 -------------------------------------

 --
 TD
 --
 Symbolic Z-matrix:
 Charge =  0 Multiplicity = 1

                         Standard orientation:
 ---------------------------------------------------------------------
 Center     Atomic      Atomic             Coordinates (Angstroms)
 Number     Number       Type             X           Y           Z
 ---------------------------------------------------------------------
      1         12           0       -7.197710    0.639481    0.069184
      2          6           0       -4.867702   -1.876313    0.528006
      3          6           0       -4.887640    2.786772    1.149615
      4          6           0       -9.502480    3.054780   -0.362567
      5          6           0       -9.477989   -1.704146   -0.925893
      6          7           0       -5.175223    0.404888    0.828994
      7          6           0       -4.288413   -0.687867    0.906218
      8          6           0       -2.921724   -0.390719    1.388624
      9          6           0       -3.048449    1.092995    1.721779
     10          6           0       -4.473381    1.464546    1.176419
     11          6           0       -2.838813    1.341255    3.184524
     12          6           0       -1.905549   -0.635754    0.147941
     13          6           0       -0.454597   -0.374469    0.522807
     14          6           0        0.522137   -0.524867   -0.491773
     15          8           0        0.156798   -0.779348   -1.669222
     16          8           0        1.763556   -0.343955   -0.143415
     17          7           0       -7.187241    2.592397    0.365129
     18          6           0       -6.157581    3.357314    0.819228
     19          6           0       -6.459456    4.770718    0.827621
     20          6           0       -7.833733    4.853828    0.544080
     21          6           0       -8.295496    3.444664    0.129125
     22          6           0       -5.522232    5.852009    1.274710
     23          6           0       -8.604649    6.012095    0.324749
     24          6           0       -8.297892    7.265163    0.097139
     25          7           0       -9.261800    0.692490   -0.536045
     26          6           0       -9.941001    1.789654   -0.628358
     27          6           0      -11.344348    1.388234   -1.084339
     28          6           0      -11.285613    0.041071   -1.254163
     29          6           0       -9.941619   -0.401898   -0.932750
     30          6           0      -12.399365    2.437570   -1.225725
     31          6           0      -12.418315   -0.869295   -1.844904
     32          6           0      -12.375803   -1.116447   -3.351466
     33          7           0       -7.251847   -1.398333   -0.264950
     34          6           0       -8.280016   -2.277059   -0.602763
     35          6           0       -7.734316   -3.639806   -0.541587
     36          6           0       -6.419087   -3.522957   -0.102303
     37          6           0       -6.173781   -2.160970    0.040942
     38          6           0       -8.579097   -4.891099   -0.795149
     39          6           0       -5.231860   -4.415881    0.187639
     40          8           0       -5.071064   -5.590616    0.067399
     41          6           0       -4.136797   -3.273386    0.532709
     42          6           0       -3.422422   -3.681828    1.845499
     43          8           0       -3.723916   -3.184370    2.897054
     44          8           0       -2.701149   -4.796611    1.688238
     45          6           0       -2.077232   -5.317246    2.849308
     46          6           0        2.746856   -0.558582   -1.107034
     47          6           0        4.098234   -0.464759   -0.458714
     48          6           0        5.099574    0.323587   -0.951831
     49          6           0        5.074742    1.205879   -2.197073
     50          6           0        6.380771    0.325528   -0.179111
     51          6           0        7.617654   -0.185964   -0.995677
     52          6           0        8.929528   -0.161997   -0.140652
     53          6           0       10.241325   -0.542069   -0.835204
     54          6           0       10.130140   -1.954436   -1.241986
     55          6           0       11.466770   -0.272237    0.082247
     56          6           0       12.850371   -0.564815   -0.630792
     57          6           0       14.096521   -0.143244    0.178988
     58          6           0       15.318712   -0.264935   -0.454473
     59          6           0       15.726832   -1.689476   -0.775851
     60          6           0       16.428661    0.510512    0.416155
     61          6           0       17.888625    0.501147   -0.215816
     62          6           0       18.856664    1.265077    0.685883
     63          6           0       20.245856    1.322006    0.126135
     64          6           0       20.507831    2.067874   -1.211698
     65          6           0       21.141601    2.103997    1.151714
     66          1           0       -4.055763    3.471534    1.482563
     67          1           0      -10.319309    3.715168   -0.574254
     68          1           0      -10.188777   -2.469012   -1.070604
     69          1           0       -2.530686   -0.766105    2.328630
     70          1           0       -2.214253    1.652338    1.044934
     71          1           0       -1.868824    0.955942    3.545924
     72          1           0       -2.855395    2.439753    3.354056
     73          1           0       -3.560929    0.836083    3.615887
     74          1           0       -2.350007   -1.713228   -0.133085
     75          1           0       -2.276494    0.091455   -0.470071
     76          1           0       -0.354835    0.736924    1.050185
     77          1           0       -0.250867   -1.135178    1.235175
     78          1           0       -5.011822    6.229901    0.387753
     79          1           0       -5.923378    6.706265    1.774853
     80          1           0       -4.618643    5.403804    1.807504
     81          1           0       -9.540445    5.776023    0.478609
     82          1           0       -9.033038    7.967295   -0.007212
     83          1           0       -7.219257    7.772560    0.253075
     84          1           0      -12.321398    3.022525   -2.015646
     85          1           0      -13.436569    1.722666   -1.120055
     86          1           0      -12.501491    3.162940   -0.390224
     87          1           0      -12.237938   -1.756460   -1.232492
     88          1           0      -13.478887   -0.559367   -1.528258
     89          1           0      -12.950192   -1.882759   -3.747669
     90          1           0      -12.749918    0.043432   -4.005445
     91          1           0      -11.207767   -1.419858   -3.688067
     92          1           0       -8.888787   -4.775752   -2.039531
     93          1           0       -7.975068   -5.830803   -0.884277
     94          1           0       -9.321190   -5.076805   -0.026677
     95          1           0       -3.291460   -3.230511   -0.307679
     96          1           0       -1.257227   -4.770209    3.359758
     97          1           0       -2.864753   -5.712232    3.397040
     98          1           0       -1.400576   -6.238845    2.538738
     99          1           0        2.542702   -1.695541   -1.408666
    100          1           0        2.633126    0.077812   -1.995451
    101          1           0        4.385865   -0.670571    0.544185
    102          1           0        4.227861    1.264437   -2.710611
    103          1           0        5.410100    2.354803   -2.111795
    104          1           0        5.905458    0.779330   -2.992701
    105          1           0        6.463154    1.337485    0.098085
    106          1           0        6.173805   -0.037854    0.822036
    107          1           0        7.457207   -1.268398   -1.378703
    108          1           0        7.648348    0.538962   -1.927580
    109          1           0        9.256525    0.968738    0.285485
    110          1           0        8.755560   -0.852337    0.907281
    111          1           0       10.356751    0.057529   -1.851230
    112          1           0        9.294165   -1.953539   -1.913822
    113          1           0       11.181072   -2.640904   -1.568227
    114          1           0        9.809938   -2.712124   -0.182701
    115          1           0       11.526679    0.832951    0.294232
    116          1           0       11.211965   -0.615279    1.154264
    117          1           0       12.822052   -1.623934   -0.827259
    118          1           0       12.779105    0.048954   -1.846075
    119          1           0       14.059318    0.955979    0.560095
    120          1           0       14.122333   -0.786277    1.114515
    121          1           0       15.372663    0.351812   -1.341877
    122          1           0       16.108711   -2.285874    0.136456
    123          1           0       14.880144   -2.151335   -1.164005
    124          1           0       16.560759   -1.591961   -1.364737
    125          1           0       15.968839    1.603492    0.580724
    126          1           0       16.522767   -0.052477    1.253882
    127          1           0       18.114582   -0.676741   -0.402317
    128          1           0       17.829225    1.012740   -1.108410
    129          1           0       18.494594    2.243947    0.830348
    130          1           0       18.872462    0.794276    1.647916
    131          1           0       20.666038    0.245390    0.033098
    132          1           0       20.376571    3.106222   -1.176644
    133          1           0       21.420534    1.963771   -1.777799
    134          1           0       19.619687    1.624564   -1.940987
    135          1           0       21.153326    1.483991    2.027435
    136          1           0       22.059360    2.302982    0.674811
    137          1           0       20.498355    3.058336    1.509855
 ---------------------------------------------------------------------

 SCF Done:  E(RCAM-B3LYP) =  -2932.59361067     A.U. after   17 cycles

 Excitation energies and oscillator strengths:

 Excited State   1:      Singlet-A      2.1296 eV  582.20 nm  f=0.2396  <S**2>=0.000
     240 -> 243       -0.25078
     241 -> 242        0.64618
 This state for optimization and/or second-order correction.
 Total Energy, E(TD-HF/TD-KS) =  -2932.51535043
 Copying the excited state density for this state as the 1-particle RhoCI density.

 The electronic state is 1-A.
 Alpha  occ. eigenvalues --  -46.85011 -19.27392 -19.26653 -19.21649 -19.20464
 Alpha  occ. eigenvalues --  -19.19432 -14.41673 -14.39930 -14.39015 -14.38821
 Alpha  occ. eigenvalues --  -10.39007 -10.38639 -10.36142 -10.33067 -10.31728
 Alpha  occ. eigenvalues --  -10.30700 -10.30586 -10.30575 -10.30241 -10.29228
 Alpha  occ. eigenvalues --  -10.28898 -10.28617 -10.28473 -10.28436 -10.28387
 Alpha  occ. eigenvalues --  -10.28327 -10.28257 -10.28224 -10.28071 -10.28035
 Alpha  occ. eigenvalues --  -10.27997 -10.27993 -10.27794 -10.27715 -10.27642
 Alpha  occ. eigenvalues --  -10.27595 -10.27593 -10.27296 -10.27241 -10.27135
 Alpha  occ. eigenvalues --  -10.27025 -10.26942 -10.26727 -10.26705 -10.26367
 Alpha  occ. eigenvalues --  -10.26364 -10.26321 -10.26309 -10.26192 -10.26100
 Alpha  occ. eigenvalues --  -10.25904 -10.25889 -10.25704 -10.25678 -10.25493
 Alpha  occ. eigenvalues --  -10.25393 -10.25200 -10.25125 -10.25064 -10.24958
 Alpha  occ. eigenvalues --  -10.24951 -10.24504 -10.24331 -10.24231 -10.23495
 Alpha  occ. eigenvalues --   -3.13910  -1.88623  -1.88142  -1.88088  -1.20700
 Alpha  occ. eigenvalues --   -1.18879  -1.12941  -1.09763  -1.07336  -1.04760
 Alpha  occ. eigenvalues --   -1.04367  -1.02880  -1.02227  -0.91743  -0.91625
 Alpha  occ. eigenvalues --   -0.91478  -0.90820  -0.89914  -0.89690  -0.89107
 Alpha  occ. eigenvalues --   -0.89071  -0.87755  -0.87254  -0.87037  -0.86034
 Alpha  occ. eigenvalues --   -0.84778  -0.84212  -0.83812  -0.83185  -0.82586
 Alpha  occ. eigenvalues --   -0.81668  -0.81400  -0.80568  -0.79757  -0.78569
 Alpha  occ. eigenvalues --   -0.77785  -0.77094  -0.76850  -0.76098  -0.75828
 Alpha  occ. eigenvalues --   -0.75283  -0.75044  -0.74285  -0.73658  -0.72370
 Alpha  occ. eigenvalues --   -0.71339  -0.70900  -0.69647  -0.69048  -0.68550
 Alpha  occ. eigenvalues --   -0.67578  -0.66639  -0.65296  -0.64943  -0.64357
 Alpha  occ. eigenvalues --   -0.64215  -0.63821  -0.62823  -0.62243  -0.61947
 Alpha  occ. eigenvalues --   -0.61088  -0.60622  -0.59856  -0.59759  -0.59468
 Alpha  occ. eigenvalues --   -0.58774  -0.58441  -0.58050  -0.57664  -0.56806
 Alpha  occ. eigenvalues --   -0.56622  -0.56035  -0.55374  -0.55106  -0.54878
 Alpha  occ. eigenvalues --   -0.54608  -0.54389  -0.54275  -0.53832  -0.53383
 Alpha  occ. eigenvalues --   -0.52824  -0.52546  -0.52385  -0.52242  -0.51866
 Alpha  occ. eigenvalues --   -0.51434  -0.51299  -0.51015  -0.50658  -0.50457
 Alpha  occ. eigenvalues --   -0.50363  -0.50037  -0.49818  -0.49674  -0.49474
 Alpha  occ. eigenvalues --   -0.49341  -0.49205  -0.48693  -0.48615  -0.48268
 Alpha  occ. eigenvalues --   -0.48237  -0.47959  -0.47808  -0.47410  -0.47276
 Alpha  occ. eigenvalues --   -0.47161  -0.46761  -0.46635  -0.46278  -0.46197
 Alpha  occ. eigenvalues --   -0.45779  -0.45692  -0.45435  -0.45385  -0.44930
 Alpha  occ. eigenvalues --   -0.44750  -0.44521  -0.44270  -0.44171  -0.44086
 Alpha  occ. eigenvalues --   -0.43955  -0.43762  -0.43623  -0.43382  -0.43291
 Alpha  occ. eigenvalues --   -0.42942  -0.42826  -0.42743  -0.42462  -0.42388
 Alpha  occ. eigenvalues --   -0.42144  -0.42013  -0.41660  -0.41480  -0.41122
 Alpha  occ. eigenvalues --   -0.40920  -0.40587  -0.40453  -0.40308  -0.40129
 Alpha  occ. eigenvalues --   -0.39911  -0.39615  -0.39557  -0.39026  -0.38906
 Alpha  occ. eigenvalues --   -0.38732  -0.37934  -0.37794  -0.37717  -0.37603
 Alpha  occ. eigenvalues --   -0.37352  -0.37317  -0.37069  -0.36813  -0.36701
 Alpha  occ. eigenvalues --   -0.36388  -0.36335  -0.36089  -0.35833  -0.35627
 Alpha  occ. eigenvalues --   -0.35355  -0.35029  -0.34734  -0.33497  -0.32947
 Alpha  occ. eigenvalues --   -0.32733  -0.32585  -0.32384  -0.30896  -0.30176
 Alpha  occ. eigenvalues --   -0.29411  -0.29257  -0.28453  -0.27675  -0.22951
 Alpha  occ. eigenvalues --   -0.21248
 Alpha virt. eigenvalues --   -0.06149  -0.02756   0.01643   0.04214   0.05061
 Alpha virt. eigenvalues --    0.05547   0.05924   0.06309   0.06831   0.07635
 Alpha virt. eigenvalues --    0.08285   0.10422   0.10529   0.11081   0.11448

 Mulliken charges:
               1
     1  Mg   0.826581
     2  C    0.028587
     3  C   -0.234763
     4  C   -0.169305
     5  C   -0.189564
     6  N   -0.637788
     7  C    0.296709
     8  C   -0.154360
     9  C   -0.156241
    10  C    0.382187
    11  C   -0.298613
    12  C   -0.136974
    13  C   -0.272842
    14  C    0.619806
    15  O   -0.512150
    16  O   -0.436538
    17  N   -0.742332
    18  C    0.344865
    19  C    0.047665
    20  C   -0.031821
    21  C    0.322006
    22  C   -0.382207
    23  C   -0.035392
    24  C   -0.244836
    25  N   -0.693956
    26  C    0.307764
    27  C    0.014296
    28  C   -0.004238
    29  C    0.313811
    30  C   -0.367039
    31  C   -0.218264
    32  C   -0.257922
    33  N   -0.729996
    34  C    0.279177
    35  C   -0.000912
    36  C   -0.017097
    37  C    0.322163
    38  C   -0.371100
    39  C    0.409220
    40  O   -0.423624
    41  C   -0.354696
    42  C    0.605391
    43  O   -0.460704
    44  O   -0.432399
    45  C   -0.084760
    46  C    0.016913
    47  C   -0.124234
    48  C    0.103116
    49  C   -0.353112
    50  C   -0.224871
    51  C   -0.176368
    52  C   -0.146460
    53  C   -0.044525
    54  C   -0.255928
    55  C   -0.178379
    56  C   -0.159141
    57  C   -0.147844
    58  C   -0.057861
    59  C   -0.309417
    60  C   -0.186104
    61  C   -0.188406
    62  C   -0.157504
    63  C   -0.056505
    64  C   -0.315413
    65  C   -0.297358
    66  H    0.069896
    67  H    0.080335
    68  H    0.085593
    69  H    0.126271
    70  H    0.074127
    71  H    0.106802
    72  H    0.104228
    73  H    0.138874
    74  H    0.096026
    75  H    0.127288
    76  H    0.121553
    77  H    0.141933
    78  H    0.132348
    79  H    0.133718
    80  H    0.111006
    81  H    0.084386
    82  H    0.105531
    83  H    0.085854
    84  H    0.139239
    85  H    0.084933
    86  H    0.116457
    87  H    0.107075
    88  H    0.098071
    89  H    0.125554
    90  H    0.050252
    91  H    0.084175
    92  H    0.091337
    93  H    0.142900
    94  H    0.137592
    95  H    0.149981
    96  H    0.124339
    97  H    0.143374
    98  H    0.105322
    99  H    0.109874
   100  H    0.132087
   101  H    0.092087
   102  H    0.124505
   103  H    0.105179
   104  H    0.096154
   105  H    0.112939
   106  H    0.094738
   107  H    0.106970
   108  H    0.094595
   109  H    0.063409
   110  H    0.069476
   111  H    0.080079
   112  H    0.111395
   113  H    0.074045
   114  H    0.037839
   115  H    0.086594
   116  H    0.089591
   117  H    0.107962
   118  H    0.036790
   119  H    0.073349
   120  H    0.083694
   121  H    0.086971
   122  H    0.081840
   123  H    0.108062
   124  H    0.114715
   125  H    0.067585
   126  H    0.100232
   127  H    0.073118
   128  H    0.106960
   129  H    0.098536
   130  H    0.097890
   131  H    0.076233
   132  H    0.111226
   133  H    0.112427
   134  H    0.062653
   135  H    0.101499
   136  H    0.106581
   137  H    0.075361
 Sum of Mulliken charges =   0.00000

 Dipole moment (field-independent basis, Debye):
    X=              2.7502    Y=              4.5986    Z=              1.7254  Tot=              5.6292
 Quadrupole moment (field-independent basis, Debye-Ang):
   XX=           -357.0286   YY=           -388.1534   ZZ=           -402.4918
   XY=            -16.9817   XZ=              4.0110   YZ=             -4.2423

 Normal termination of Gaussian 09 at Wed Jun 26 21:37:19 2019.
