 Gaussian 09, Revision D.01,
 Gaussian 09:  ES64L-G09RevD.01 24-Apr-2013

 -------------------------------------
 # td=(NStates=1) CAM-B3LYP/6-31G(d,p)
 -------------------------------------

 --
 TD
 --
 Symbolic Z-matrix:
 Charge =  0 Multiplicity = 1

                         Standard orientation:
 ---------------------------------------------------------------------
 Center     Atomic      Atomic             Coordinates (Angstroms)
 Number     Number       Type             X           Y           Z
 ---------------------------------------------------------------------
      1         12           0       -7.108571    0.601121   -0.006474
      2          6           0       -4.908466   -1.991303    0.503337
      3          6           0       -4.917101    2.716848    1.217801
      4          6           0       -9.467052    3.025883   -0.349066
      5          6           0       -9.564075   -1.654756   -0.866559
      6          7           0       -5.111738    0.396617    0.738916
      7          6           0       -4.333190   -0.756838    0.726361
      8          6           0       -2.879977   -0.440077    1.194439
      9          6           0       -3.050526    1.046601    1.617029
     10          6           0       -4.423408    1.401964    1.201540
     11          6           0       -2.685559    1.287261    3.152460
     12          6           0       -1.900971   -0.732364    0.017077
     13          6           0       -0.538741   -0.320419    0.418312
     14          6           0        0.498196   -0.596691   -0.667346
     15          8           0        0.184754   -1.105809   -1.826720
     16          8           0        1.779491   -0.344515   -0.263841
     17          7           0       -7.066428    2.599079    0.415887
     18          6           0       -6.072652    3.317663    0.851694
     19          6           0       -6.452885    4.733245    0.831124
     20          6           0       -7.813819    4.801687    0.520706
     21          6           0       -8.225808    3.466858    0.160801
     22          6           0       -5.547103    5.881428    1.509950
     23          6           0       -8.611439    6.096282    0.383557
     24          6           0       -8.080827    7.223901   -0.030867
     25          7           0       -9.144245    0.711145   -0.406199
     26          6           0       -9.887892    1.759969   -0.518083
     27          6           0      -11.263342    1.511263   -0.951270
     28          6           0      -11.329399    0.158050   -1.095555
     29          6           0       -9.959199   -0.364710   -0.812501
     30          6           0      -12.373561    2.406861   -1.119935
     31          6           0      -12.415294   -0.612493   -1.704869
     32          6           0      -12.290561   -0.807192   -3.184984
     33          7           0       -7.247125   -1.381515   -0.114930
     34          6           0       -8.293421   -2.222933   -0.555533
     35          6           0       -7.869186   -3.562096   -0.482788
     36          6           0       -6.538671   -3.568124   -0.033086
     37          6           0       -6.223360   -2.148680    0.150756
     38          6           0       -8.674762   -4.771844   -0.905520
     39          6           0       -5.435585   -4.428017    0.109417
     40          8           0       -5.230514   -5.620515    0.116182
     41          6           0       -4.217884   -3.366193    0.507468
     42          6           0       -3.527705   -3.767310    1.778482
     43          8           0       -3.731961   -3.334132    2.891582
     44          8           0       -2.617314   -4.855626    1.620697
     45          6           0       -2.222549   -5.418919    2.890835
     46          6           0        2.759629   -0.526433   -1.244796
     47          6           0        4.093898   -0.320332   -0.560989
     48          6           0        5.175486    0.377964   -1.172073
     49          6           0        5.090576    1.024193   -2.486122
     50          6           0        6.374984    0.535969   -0.344521
     51          6           0        7.724630   -0.177425   -1.077386
     52          6           0        8.940403    0.049012   -0.229101
     53          6           0       10.147015   -0.590481   -0.882360
     54          6           0       10.110835   -2.198914   -1.124887
     55          6           0       11.418936   -0.214035   -0.043363
     56          6           0       12.763391   -0.437835   -0.663192
     57          6           0       14.004588   -0.090631    0.253218
     58          6           0       15.301559   -0.070183   -0.361268
     59          6           0       15.701223   -1.456733   -0.831991
     60          6           0       16.460111    0.476252    0.567222
     61          6           0       17.789741    0.647444   -0.182819
     62          6           0       18.789347    1.384648    0.745718
     63          6           0       20.207513    1.262606    0.251972
     64          6           0       20.514084    2.034112   -0.967564
     65          6           0       21.243202    1.700457    1.373468
     66          1           0       -4.108283    3.364169    1.779677
     67          1           0      -10.298862    3.841801   -0.400534
     68          1           0      -10.277247   -2.343803   -1.328703
     69          1           0       -2.462727   -1.163473    2.021999
     70          1           0       -2.247963    1.584158    1.097882
     71          1           0       -1.490681    0.934083    3.410982
     72          1           0       -2.847995    2.279996    3.610721
     73          1           0       -3.410255    0.710697    3.714307
     74          1           0       -2.023073   -1.914313   -0.123838
     75          1           0       -2.111606   -0.218370   -0.828301
     76          1           0       -0.392715    0.725748    0.699317
     77          1           0       -0.196527   -1.038015    1.298487
     78          1           0       -4.894730    6.279472    0.671935
     79          1           0       -6.033627    6.651993    1.870104
     80          1           0       -4.757474    5.484247    2.160865
     81          1           0       -9.581792    5.825019    0.781963
     82          1           0       -8.601379    8.148015   -0.031778
     83          1           0       -7.028547    7.317958   -0.401003
     84          1           0      -12.198224    3.371030   -1.821475
     85          1           0      -13.315132    2.061280   -1.428626
     86          1           0      -12.607129    2.842169   -0.096534
     87          1           0      -12.650319   -1.560557   -1.301842
     88          1           0      -13.312008   -0.135860   -1.522094
     89          1           0      -13.213185   -1.250310   -3.526959
     90          1           0      -12.021711    0.069129   -3.907077
     91          1           0      -11.460894   -1.566560   -3.231425
     92          1           0       -8.914832   -4.417477   -1.963010
     93          1           0       -8.159262   -5.645761   -1.007938
     94          1           0       -9.574321   -4.806307   -0.142360
     95          1           0       -3.399000   -3.277673   -0.436730
     96          1           0       -1.565104   -4.723987    3.515442
     97          1           0       -3.256734   -5.773499    3.378935
     98          1           0       -1.467724   -6.190059    2.513329
     99          1           0        2.667087   -1.441786   -1.831679
    100          1           0        2.576568    0.183750   -1.967478
    101          1           0        4.053643   -0.549327    0.603174
    102          1           0        4.120479    1.398133   -2.776167
    103          1           0        5.769307    2.137489   -2.282762
    104          1           0        5.726680    0.555752   -3.328398
    105          1           0        6.702350    1.582295   -0.300708
    106          1           0        6.439998    0.277400    0.683132
    107          1           0        7.269138   -1.203774   -1.121572
    108          1           0        7.773793    0.316411   -2.059784
    109          1           0        8.955549    1.072533   -0.082775
    110          1           0        8.689447   -0.368772    0.733436
    111          1           0       10.537122   -0.182714   -1.824389
    112          1           0        9.239523   -2.481140   -1.711876
    113          1           0       11.053877   -2.603906   -1.675463
    114          1           0       10.219753   -2.846161   -0.117731
    115          1           0       11.420746    0.592802    0.456463
    116          1           0       11.374464   -0.853556    0.916436
    117          1           0       12.692016   -1.539372   -0.772913
    118          1           0       12.846331    0.018054   -1.785867
    119          1           0       13.927196    1.106490    0.517742
    120          1           0       13.974800   -0.698324    1.176372
    121          1           0       15.362293    0.549747   -1.324677
    122          1           0       15.957301   -2.176881   -0.076491
    123          1           0       14.869528   -2.063392   -1.348155
    124          1           0       16.432415   -1.421917   -1.745658
    125          1           0       16.122660    1.470251    1.049747
    126          1           0       16.573840   -0.151353    1.362747
    127          1           0       18.373418   -0.256724   -0.282461
    128          1           0       17.620265    0.997810   -1.267721
    129          1           0       18.489018    2.392361    0.726001
    130          1           0       18.614612    0.704405    1.725894
    131          1           0       20.643491    0.268892    0.295597
    132          1           0       20.207927    2.910748   -0.750980
    133          1           0       21.589267    2.250514   -1.303757
    134          1           0       19.964216    1.506387   -1.810732
    135          1           0       20.928095    1.262080    2.288268
    136          1           0       22.480245    1.275938    1.061787
    137          1           0       21.156277    2.851217    1.360398
 ---------------------------------------------------------------------

 SCF Done:  E(RCAM-B3LYP) =  -2932.65821436     A.U. after   17 cycles

 Excitation energies and oscillator strengths:

 Excited State   1:      Singlet-A      2.1528 eV  575.91 nm  f=0.2621  <S**2>=0.000
     240 -> 242       -0.13165
     240 -> 243        0.23470
     241 -> 242        0.64611
 This state for optimization and/or second-order correction.
 Total Energy, E(TD-HF/TD-KS) =  -2932.57909923
 Copying the excited state density for this state as the 1-particle RhoCI density.

 The electronic state is 1-A.
 Alpha  occ. eigenvalues --  -46.84696 -19.27467 -19.23984 -19.20922 -19.20632
 Alpha  occ. eigenvalues --  -19.19842 -14.41961 -14.39846 -14.39571 -14.39291
 Alpha  occ. eigenvalues --  -10.40285 -10.38579 -10.34784 -10.31366 -10.31196
 Alpha  occ. eigenvalues --  -10.30807 -10.30702 -10.30396 -10.29712 -10.29245
 Alpha  occ. eigenvalues --  -10.28996 -10.28976 -10.28851 -10.28714 -10.28609
 Alpha  occ. eigenvalues --  -10.28490 -10.28382 -10.28350 -10.28317 -10.28198
 Alpha  occ. eigenvalues --  -10.28112 -10.27979 -10.27784 -10.27759 -10.27622
 Alpha  occ. eigenvalues --  -10.27451 -10.27233 -10.27149 -10.27028 -10.26776
 Alpha  occ. eigenvalues --  -10.26684 -10.26647 -10.26644 -10.26641 -10.26485
 Alpha  occ. eigenvalues --  -10.26335 -10.26305 -10.26217 -10.26201 -10.26066
 Alpha  occ. eigenvalues --  -10.26036 -10.25986 -10.25878 -10.25865 -10.25727
 Alpha  occ. eigenvalues --  -10.25469 -10.25262 -10.25073 -10.24991 -10.24913
 Alpha  occ. eigenvalues --  -10.24890 -10.24531 -10.24507 -10.23479 -10.23281
 Alpha  occ. eigenvalues --   -3.13779  -1.88476  -1.88027  -1.87951  -1.18084
 Alpha  occ. eigenvalues --   -1.15373  -1.10611  -1.07147  -1.05949  -1.05596
 Alpha  occ. eigenvalues --   -1.04922  -1.03896  -1.03026  -0.92144  -0.91138
 Alpha  occ. eigenvalues --   -0.90899  -0.90747  -0.90581  -0.89753  -0.89580
 Alpha  occ. eigenvalues --   -0.88746  -0.88631  -0.87786  -0.86911  -0.86020
 Alpha  occ. eigenvalues --   -0.85104  -0.84786  -0.83730  -0.83176  -0.82843
 Alpha  occ. eigenvalues --   -0.82137  -0.81186  -0.79803  -0.79081  -0.78382
 Alpha  occ. eigenvalues --   -0.77611  -0.77498  -0.75965  -0.75635  -0.75493
 Alpha  occ. eigenvalues --   -0.74655  -0.74229  -0.74182  -0.73263  -0.72805
 Alpha  occ. eigenvalues --   -0.71805  -0.70818  -0.70240  -0.68845  -0.68621
 Alpha  occ. eigenvalues --   -0.67880  -0.66245  -0.65678  -0.65481  -0.64855
 Alpha  occ. eigenvalues --   -0.64186  -0.63997  -0.63528  -0.62950  -0.62050
 Alpha  occ. eigenvalues --   -0.61993  -0.60852  -0.60033  -0.59753  -0.59105
 Alpha  occ. eigenvalues --   -0.58659  -0.58403  -0.57884  -0.57115  -0.56203
 Alpha  occ. eigenvalues --   -0.55959  -0.55373  -0.55117  -0.54865  -0.54565
 Alpha  occ. eigenvalues --   -0.54405  -0.53906  -0.53804  -0.53613  -0.53234
 Alpha  occ. eigenvalues --   -0.52687  -0.52415  -0.52307  -0.51854  -0.51659
 Alpha  occ. eigenvalues --   -0.51476  -0.51424  -0.51031  -0.50924  -0.50711
 Alpha  occ. eigenvalues --   -0.50276  -0.50248  -0.50058  -0.49892  -0.49653
 Alpha  occ. eigenvalues --   -0.49277  -0.48960  -0.48616  -0.48492  -0.48247
 Alpha  occ. eigenvalues --   -0.48039  -0.47869  -0.47512  -0.47345  -0.47159
 Alpha  occ. eigenvalues --   -0.47067  -0.46989  -0.46470  -0.46307  -0.46111
 Alpha  occ. eigenvalues --   -0.45988  -0.45652  -0.45285  -0.45201  -0.45002
 Alpha  occ. eigenvalues --   -0.44847  -0.44816  -0.44366  -0.44293  -0.44173
 Alpha  occ. eigenvalues --   -0.44017  -0.43827  -0.43451  -0.43309  -0.43194
 Alpha  occ. eigenvalues --   -0.43039  -0.42959  -0.42555  -0.42169  -0.42011
 Alpha  occ. eigenvalues --   -0.41864  -0.41548  -0.41303  -0.41198  -0.40907
 Alpha  occ. eigenvalues --   -0.40804  -0.40653  -0.40455  -0.40074  -0.40055
 Alpha  occ. eigenvalues --   -0.39926  -0.39680  -0.39651  -0.39630  -0.39457
 Alpha  occ. eigenvalues --   -0.39207  -0.38949  -0.38381  -0.38228  -0.37935
 Alpha  occ. eigenvalues --   -0.37786  -0.37762  -0.37506  -0.36824  -0.36802
 Alpha  occ. eigenvalues --   -0.36536  -0.36473  -0.35808  -0.35638  -0.35557
 Alpha  occ. eigenvalues --   -0.34671  -0.34249  -0.34077  -0.34053  -0.33082
 Alpha  occ. eigenvalues --   -0.33008  -0.32928  -0.32268  -0.31300  -0.29736
 Alpha  occ. eigenvalues --   -0.29346  -0.28942  -0.28275  -0.27572  -0.23271
 Alpha  occ. eigenvalues --   -0.21626
 Alpha virt. eigenvalues --   -0.06669  -0.02382   0.01237   0.04076   0.04361
 Alpha virt. eigenvalues --    0.04519   0.04531   0.05704   0.06680   0.07375
 Alpha virt. eigenvalues --    0.08138   0.10260   0.10737   0.11340   0.11646

 Mulliken charges:
               1
     1  Mg   0.832203
     2  C    0.096310
     3  C   -0.246684
     4  C   -0.214489
     5  C   -0.188844
     6  N   -0.642879
     7  C    0.263828
     8  C   -0.157174
     9  C   -0.153962
    10  C    0.394430
    11  C   -0.309006
    12  C   -0.149490
    13  C   -0.265491
    14  C    0.601642
    15  O   -0.510946
    16  O   -0.466328
    17  N   -0.723739
    18  C    0.400880
    19  C   -0.015333
    20  C   -0.042382
    21  C    0.288038
    22  C   -0.352620
    23  C   -0.028408
    24  C   -0.255361
    25  N   -0.691377
    26  C    0.370816
    27  C    0.077491
    28  C    0.028222
    29  C    0.274899
    30  C   -0.400845
    31  C   -0.254004
    32  C   -0.294376
    33  N   -0.756506
    34  C    0.251298
    35  C    0.000687
    36  C    0.013415
    37  C    0.336997
    38  C   -0.344796
    39  C    0.345249
    40  O   -0.455864
    41  C   -0.351122
    42  C    0.631513
    43  O   -0.463085
    44  O   -0.486039
    45  C   -0.062709
    46  C    0.030782
    47  C   -0.161674
    48  C    0.140118
    49  C   -0.360912
    50  C   -0.249086
    51  C   -0.203876
    52  C   -0.162183
    53  C   -0.057338
    54  C   -0.319925
    55  C   -0.168043
    56  C   -0.176089
    57  C   -0.152952
    58  C   -0.053256
    59  C   -0.316943
    60  C   -0.165954
    61  C   -0.185094
    62  C   -0.163121
    63  C   -0.082271
    64  C   -0.289372
    65  C   -0.283830
    66  H    0.063531
    67  H    0.085875
    68  H    0.091572
    69  H    0.124419
    70  H    0.112735
    71  H    0.083156
    72  H    0.113279
    73  H    0.134013
    74  H    0.112806
    75  H    0.126031
    76  H    0.139700
    77  H    0.129738
    78  H    0.108799
    79  H    0.133081
    80  H    0.118289
    81  H    0.103842
    82  H    0.109175
    83  H    0.113627
    84  H    0.101687
    85  H    0.129611
    86  H    0.118664
    87  H    0.112786
    88  H    0.104814
    89  H    0.107656
    90  H    0.103873
    91  H    0.100370
    92  H    0.115668
    93  H    0.149696
    94  H    0.118714
    95  H    0.138875
    96  H    0.112505
    97  H    0.126227
    98  H    0.115990
    99  H    0.140306
   100  H    0.114681
   101  H    0.100306
   102  H    0.134206
   103  H    0.065922
   104  H    0.129539
   105  H    0.089267
   106  H    0.104093
   107  H    0.107051
   108  H    0.096119
   109  H    0.108168
   110  H    0.102380
   111  H    0.095959
   112  H    0.114504
   113  H    0.098700
   114  H    0.085374
   115  H    0.091592
   116  H    0.060193
   117  H    0.100669
   118  H    0.065632
   119  H    0.058463
   120  H    0.093551
   121  H    0.079732
   122  H    0.102255
   123  H    0.087134
   124  H    0.088916
   125  H    0.074837
   126  H    0.100314
   127  H    0.105425
   128  H    0.083530
   129  H    0.100361
   130  H    0.082517
   131  H    0.093622
   132  H    0.112509
   133  H    0.094700
   134  H    0.094923
   135  H    0.106657
   136  H    0.050260
   137  H    0.081786
 Sum of Mulliken charges =   0.00000

 Dipole moment (field-independent basis, Debye):
    X=             -1.0308    Y=              6.8575    Z=             -0.3096  Tot=              6.9415
 Quadrupole moment (field-independent basis, Debye-Ang):
   XX=           -336.9103   YY=           -401.0998   ZZ=           -399.2636
   XY=            -32.6324   XZ=             15.0551   YZ=             -0.4171

 Normal termination of Gaussian 09 at Fri Jun 28 05:48:29 2019.
