 Gaussian 09, Revision D.01,
 Gaussian 09:  ES64L-G09RevD.01 24-Apr-2013

 -------------------------------------
 # td=(NStates=1) CAM-B3LYP/6-31G(d,p)
 -------------------------------------

 --
 TD
 --
 Symbolic Z-matrix:
 Charge =  0 Multiplicity = 1

                         Standard orientation:
 ---------------------------------------------------------------------
 Center     Atomic      Atomic             Coordinates (Angstroms)
 Number     Number       Type             X           Y           Z
 ---------------------------------------------------------------------
      1         12           0       -7.187395    0.554752    0.128839
      2          6           0       -4.847666   -1.897864    0.568826
      3          6           0       -4.879864    2.905317    1.253278
      4          6           0       -9.486894    3.026292   -0.409653
      5          6           0       -9.517071   -1.769892   -0.806787
      6          7           0       -5.106649    0.451733    0.884287
      7          6           0       -4.311075   -0.658881    0.829506
      8          6           0       -2.950792   -0.348460    1.239533
      9          6           0       -3.000543    1.168853    1.669723
     10          6           0       -4.427136    1.622108    1.184655
     11          6           0       -2.678386    1.213239    3.170116
     12          6           0       -1.946643   -0.527185    0.090025
     13          6           0       -0.459151   -0.391076    0.554301
     14          6           0        0.532723   -0.572902   -0.668388
     15          8           0        0.217025   -0.876217   -1.788030
     16          8           0        1.661504   -0.477632   -0.134231
     17          7           0       -7.225061    2.496869    0.483538
     18          6           0       -6.219335    3.341969    0.744276
     19          6           0       -6.474193    4.715175    0.845477
     20          6           0       -7.842047    4.746170    0.376591
     21          6           0       -8.245758    3.394798    0.077205
     22          6           0       -5.542738    5.864907    1.183663
     23          6           0       -8.639172    5.955911   -0.011263
     24          6           0       -8.268677    7.242220   -0.131352
     25          7           0       -9.170264    0.612753   -0.479205
     26          6           0       -9.937787    1.743942   -0.481736
     27          6           0      -11.243531    1.402546   -0.957333
     28          6           0      -11.201643    0.058424   -1.110065
     29          6           0       -9.962134   -0.475463   -0.733773
     30          6           0      -12.331304    2.373214   -1.234800
     31          6           0      -12.423990   -0.928378   -1.546677
     32          6           0      -12.241087   -1.394890   -3.068456
     33          7           0       -7.256994   -1.342116   -0.158897
     34          6           0       -8.217262   -2.306941   -0.563279
     35          6           0       -7.731031   -3.624517   -0.496800
     36          6           0       -6.367544   -3.493109   -0.155151
     37          6           0       -6.093900   -2.088763    0.072979
     38          6           0       -8.448509   -4.906493   -0.955933
     39          6           0       -5.174072   -4.260052    0.112471
     40          8           0       -4.961411   -5.451204   -0.034479
     41          6           0       -4.176468   -3.229654    0.611638
     42          6           0       -3.521303   -3.480928    1.923914
     43          8           0       -3.715840   -2.880617    2.976584
     44          8           0       -2.713462   -4.536919    1.768872
     45          6           0       -2.196530   -5.169130    2.955815
     46          6           0        2.721534   -0.663592   -1.183838
     47          6           0        4.036160   -0.392752   -0.546485
     48          6           0        5.064675    0.416509   -1.033004
     49          6           0        4.983013    1.233516   -2.227306
     50          6           0        6.472559    0.393538   -0.355013
     51          6           0        7.653844   -0.195604   -1.147019
     52          6           0        8.887668   -0.202426   -0.208187
     53          6           0       10.203689   -0.549623   -0.941626
     54          6           0       10.078350   -2.075140   -1.395709
     55          6           0       11.368125   -0.235122    0.018490
     56          6           0       12.826091   -0.422478   -0.698465
     57          6           0       13.974744   -0.228899    0.173948
     58          6           0       15.310451   -0.134202   -0.465327
     59          6           0       15.884244   -1.601348   -0.906186
     60          6           0       16.422537    0.383723    0.521322
     61          6           0       17.736726    0.558087   -0.135675
     62          6           0       18.748721    1.244262    0.756585
     63          6           0       20.152350    1.247433    0.302751
     64          6           0       20.491688    2.119245   -0.992623
     65          6           0       21.208625    1.827895    1.456737
     66          1           0       -4.232514    3.800150    1.448183
     67          1           0      -10.070540    3.782861   -0.543186
     68          1           0      -10.328352   -2.548845   -1.070671
     69          1           0       -2.677351   -0.970860    2.097556
     70          1           0       -2.319099    1.866072    1.219603
     71          1           0       -1.585482    0.985771    3.359315
     72          1           0       -2.923540    2.351421    3.445087
     73          1           0       -3.394880    0.492330    3.683067
     74          1           0       -2.174087   -1.444408   -0.270828
     75          1           0       -2.156094    0.174282   -0.859331
     76          1           0       -0.118074    0.458249    1.064942
     77          1           0       -0.255279   -1.016909    1.357253
     78          1           0       -4.946545    6.128943    0.379938
     79          1           0       -6.230614    6.528743    1.726325
     80          1           0       -4.883020    5.466889    2.092916
     81          1           0       -9.867749    5.683564   -0.232733
     82          1           0       -9.146304    8.041157   -0.279449
     83          1           0       -7.364158    7.618763   -0.390319
     84          1           0      -12.349372    2.670713   -2.521458
     85          1           0      -13.253625    1.745174   -1.267310
     86          1           0      -12.433061    3.224731   -0.470215
     87          1           0      -12.301566   -1.939022   -0.815838
     88          1           0      -13.346283   -0.511445   -1.302956
     89          1           0      -13.038952   -2.075206   -3.493784
     90          1           0      -11.885713   -0.464281   -3.812410
     91          1           0      -11.292039   -2.038172   -3.133617
     92          1           0       -8.813327   -5.092417   -2.121007
     93          1           0       -7.725237   -5.688192   -0.716838
     94          1           0       -9.389644   -4.786719   -0.337549
     95          1           0       -3.358978   -3.430425   -0.105845
     96          1           0       -1.601088   -4.592109    3.560134
     97          1           0       -3.009153   -5.399274    3.577704
     98          1           0       -1.703022   -5.969912    2.412418
     99          1           0        2.736209   -1.692913   -1.575395
    100          1           0        2.563703   -0.070471   -2.036044
    101          1           0        4.102444   -0.936963    0.282331
    102          1           0        4.054128    1.504201   -2.613898
    103          1           0        5.305019    2.195139   -1.971449
    104          1           0        5.459963    0.912901   -3.183797
    105          1           0        6.681820    1.429531   -0.140066
    106          1           0        6.312836   -0.030547    0.669275
    107          1           0        7.428494   -1.124923   -1.507843
    108          1           0        7.770180    0.488198   -2.011127
    109          1           0        8.988255    0.573201    0.375288
    110          1           0        8.680459   -1.077239    0.638625
    111          1           0       10.343925    0.011609   -1.918686
    112          1           0        9.292161   -2.191685   -2.244913
    113          1           0       11.041575   -2.304975   -1.813437
    114          1           0        9.899481   -2.700634   -0.592871
    115          1           0       11.157068    0.830121    0.492492
    116          1           0       11.415769   -1.002133    0.719932
    117          1           0       13.102827   -1.442645   -1.003918
    118          1           0       12.826548    0.298801   -1.523522
    119          1           0       13.839802    0.741836    0.746797
    120          1           0       13.979319   -0.827861    1.038028
    121          1           0       15.394361    0.504612   -1.463865
    122          1           0       16.001832   -2.110471   -0.130416
    123          1           0       15.011254   -2.054010   -1.560290
    124          1           0       16.766184   -1.469902   -1.595404
    125          1           0       15.984082    1.481050    0.676909
    126          1           0       16.415928   -0.230173    1.421986
    127          1           0       18.038379   -0.459725   -0.416021
    128          1           0       17.694623    1.203166   -1.037778
    129          1           0       18.207052    2.300530    0.833560
    130          1           0       18.801061    0.727529    1.774648
    131          1           0       20.265941    0.229765   -0.058722
    132          1           0       20.252613    3.188768   -0.607564
    133          1           0       21.713499    1.967313   -1.224089
    134          1           0       19.705166    1.775189   -1.680401
    135          1           0       21.052000    1.183469    2.333951
    136          1           0       22.077007    1.947810    0.859502
    137          1           0       20.951070    2.928738    1.649735
 ---------------------------------------------------------------------

 SCF Done:  E(RCAM-B3LYP) =  -2932.64940940     A.U. after   17 cycles

 Excitation energies and oscillator strengths:

 Excited State   1:      Singlet-A      1.9707 eV  629.13 nm  f=0.3133  <S**2>=0.000
     240 -> 242       -0.10801
     240 -> 243        0.22776
     241 -> 242        0.65267
 This state for optimization and/or second-order correction.
 Total Energy, E(TD-HF/TD-KS) =  -2932.57698702
 Copying the excited state density for this state as the 1-particle RhoCI density.

 The electronic state is 1-A.
 Alpha  occ. eigenvalues --  -46.82797 -19.27885 -19.26341 -19.21084 -19.20127
 Alpha  occ. eigenvalues --  -19.20119 -14.40932 -14.39480 -14.39005 -14.38429
 Alpha  occ. eigenvalues --  -10.39227 -10.38368 -10.34704 -10.31819 -10.30258
 Alpha  occ. eigenvalues --  -10.30202 -10.30099 -10.29504 -10.29502 -10.29441
 Alpha  occ. eigenvalues --  -10.29042 -10.28858 -10.28740 -10.28543 -10.28454
 Alpha  occ. eigenvalues --  -10.28296 -10.28166 -10.28066 -10.27828 -10.27824
 Alpha  occ. eigenvalues --  -10.27744 -10.27707 -10.27594 -10.27191 -10.26906
 Alpha  occ. eigenvalues --  -10.26814 -10.26716 -10.26681 -10.26577 -10.26533
 Alpha  occ. eigenvalues --  -10.26341 -10.26222 -10.26212 -10.26026 -10.25912
 Alpha  occ. eigenvalues --  -10.25869 -10.25857 -10.25851 -10.25834 -10.25799
 Alpha  occ. eigenvalues --  -10.25657 -10.25654 -10.25621 -10.25583 -10.25558
 Alpha  occ. eigenvalues --  -10.25534 -10.25524 -10.25361 -10.25302 -10.25294
 Alpha  occ. eigenvalues --  -10.24988 -10.24778 -10.24570 -10.24215 -10.24207
 Alpha  occ. eigenvalues --   -3.12104  -1.86784  -1.86383  -1.86275  -1.21522
 Alpha  occ. eigenvalues --   -1.18321  -1.10798  -1.09833  -1.09043  -1.03997
 Alpha  occ. eigenvalues --   -1.03017  -1.02861  -1.01441  -0.93679  -0.91345
 Alpha  occ. eigenvalues --   -0.91060  -0.89577  -0.89484  -0.88912  -0.88327
 Alpha  occ. eigenvalues --   -0.88218  -0.87327  -0.86713  -0.86275  -0.85979
 Alpha  occ. eigenvalues --   -0.85127  -0.84646  -0.83856  -0.83080  -0.82686
 Alpha  occ. eigenvalues --   -0.81883  -0.81193  -0.80033  -0.79990  -0.78121
 Alpha  occ. eigenvalues --   -0.77871  -0.77341  -0.76336  -0.75880  -0.75760
 Alpha  occ. eigenvalues --   -0.74911  -0.74754  -0.73837  -0.73250  -0.72821
 Alpha  occ. eigenvalues --   -0.71231  -0.70375  -0.69346  -0.68586  -0.68507
 Alpha  occ. eigenvalues --   -0.67651  -0.66892  -0.65336  -0.65264  -0.64973
 Alpha  occ. eigenvalues --   -0.64536  -0.64380  -0.63665  -0.62726  -0.62590
 Alpha  occ. eigenvalues --   -0.61803  -0.61397  -0.60512  -0.60284  -0.58746
 Alpha  occ. eigenvalues --   -0.58204  -0.57719  -0.57440  -0.57301  -0.56991
 Alpha  occ. eigenvalues --   -0.56114  -0.55825  -0.54928  -0.54678  -0.54368
 Alpha  occ. eigenvalues --   -0.54209  -0.53959  -0.53778  -0.53334  -0.53290
 Alpha  occ. eigenvalues --   -0.53035  -0.52596  -0.52160  -0.52045  -0.51656
 Alpha  occ. eigenvalues --   -0.51575  -0.51347  -0.50954  -0.50745  -0.50705
 Alpha  occ. eigenvalues --   -0.50229  -0.50020  -0.49736  -0.49722  -0.49558
 Alpha  occ. eigenvalues --   -0.49081  -0.48703  -0.48594  -0.48361  -0.48214
 Alpha  occ. eigenvalues --   -0.48153  -0.48073  -0.47431  -0.47338  -0.47216
 Alpha  occ. eigenvalues --   -0.46874  -0.46730  -0.46605  -0.46304  -0.45811
 Alpha  occ. eigenvalues --   -0.45674  -0.45482  -0.45340  -0.45195  -0.45128
 Alpha  occ. eigenvalues --   -0.44788  -0.44595  -0.44497  -0.44369  -0.44145
 Alpha  occ. eigenvalues --   -0.43940  -0.43664  -0.43585  -0.43430  -0.43238
 Alpha  occ. eigenvalues --   -0.43122  -0.42900  -0.42727  -0.42485  -0.42473
 Alpha  occ. eigenvalues --   -0.42239  -0.42106  -0.41915  -0.41892  -0.41571
 Alpha  occ. eigenvalues --   -0.41218  -0.41026  -0.40845  -0.40466  -0.40175
 Alpha  occ. eigenvalues --   -0.39922  -0.39695  -0.39531  -0.39024  -0.39004
 Alpha  occ. eigenvalues --   -0.38952  -0.38572  -0.38453  -0.37951  -0.37859
 Alpha  occ. eigenvalues --   -0.37505  -0.37423  -0.37274  -0.37000  -0.36895
 Alpha  occ. eigenvalues --   -0.36163  -0.36125  -0.36060  -0.35562  -0.35199
 Alpha  occ. eigenvalues --   -0.34518  -0.34263  -0.33867  -0.33859  -0.33221
 Alpha  occ. eigenvalues --   -0.32678  -0.32571  -0.32167  -0.30781  -0.30179
 Alpha  occ. eigenvalues --   -0.29361  -0.29295  -0.27830  -0.27207  -0.23148
 Alpha  occ. eigenvalues --   -0.21327
 Alpha virt. eigenvalues --   -0.07203  -0.02982   0.01412   0.04136   0.04831
 Alpha virt. eigenvalues --    0.05502   0.06480   0.07410   0.07612   0.08128
 Alpha virt. eigenvalues --    0.08797   0.10432   0.10991   0.11049   0.11574

 Mulliken charges:
               1
     1  Mg   0.812430
     2  C    0.094820
     3  C   -0.195723
     4  C   -0.099088
     5  C   -0.210699
     6  N   -0.640371
     7  C    0.333906
     8  C   -0.198279
     9  C   -0.131331
    10  C    0.328652
    11  C   -0.296007
    12  C   -0.153293
    13  C   -0.288361
    14  C    0.613962
    15  O   -0.491427
    16  O   -0.424167
    17  N   -0.674586
    18  C    0.285680
    19  C    0.014381
    20  C   -0.013386
    21  C    0.271866
    22  C   -0.363746
    23  C   -0.060380
    24  C   -0.263795
    25  N   -0.689882
    26  C    0.285552
    27  C    0.045916
    28  C   -0.007294
    29  C    0.347225
    30  C   -0.365714
    31  C   -0.216880
    32  C   -0.300347
    33  N   -0.761470
    34  C    0.274949
    35  C    0.023967
    36  C   -0.026997
    37  C    0.309547
    38  C   -0.342399
    39  C    0.360371
    40  O   -0.466033
    41  C   -0.335924
    42  C    0.634589
    43  O   -0.491329
    44  O   -0.455622
    45  C   -0.084292
    46  C   -0.020602
    47  C   -0.129544
    48  C    0.101725
    49  C   -0.383697
    50  C   -0.234639
    51  C   -0.165748
    52  C   -0.149542
    53  C   -0.064222
    54  C   -0.317792
    55  C   -0.179876
    56  C   -0.181978
    57  C   -0.172395
    58  C   -0.066596
    59  C   -0.312539
    60  C   -0.159961
    61  C   -0.182841
    62  C   -0.141119
    63  C   -0.075559
    64  C   -0.302905
    65  C   -0.309559
    66  H    0.078735
    67  H    0.053936
    68  H    0.091823
    69  H    0.135262
    70  H    0.100540
    71  H    0.104689
    72  H    0.080858
    73  H    0.125815
    74  H    0.114445
    75  H    0.099919
    76  H    0.125601
    77  H    0.129482
    78  H    0.145645
    79  H    0.141368
    80  H    0.104127
    81  H    0.069703
    82  H    0.090151
    83  H    0.118291
    84  H    0.086261
    85  H    0.118669
    86  H    0.121187
    87  H    0.074382
    88  H    0.110844
    89  H    0.106590
    90  H    0.090452
    91  H    0.104803
    92  H    0.111705
    93  H    0.154062
    94  H    0.119932
    95  H    0.175798
    96  H    0.133763
    97  H    0.137131
    98  H    0.137005
    99  H    0.141737
   100  H    0.138231
   101  H    0.089565
   102  H    0.118355
   103  H    0.122167
   104  H    0.121914
   105  H    0.101514
   106  H    0.093959
   107  H    0.115199
   108  H    0.096352
   109  H    0.094086
   110  H    0.057939
   111  H    0.078659
   112  H    0.093741
   113  H    0.104997
   114  H    0.111290
   115  H    0.084714
   116  H    0.104229
   117  H    0.098799
   118  H    0.094211
   119  H    0.071126
   120  H    0.094664
   121  H    0.068978
   122  H    0.114163
   123  H    0.072888
   124  H    0.106529
   125  H    0.069346
   126  H    0.094651
   127  H    0.090315
   128  H    0.093524
   129  H    0.066244
   130  H    0.077035
   131  H    0.088769
   132  H    0.094312
   133  H    0.086087
   134  H    0.103380
   135  H    0.108524
   136  H    0.108781
   137  H    0.096445
 Sum of Mulliken charges =   0.00000

 Dipole moment (field-independent basis, Debye):
    X=              3.4950    Y=              3.2773    Z=              0.0400  Tot=              4.7913
 Quadrupole moment (field-independent basis, Debye-Ang):
   XX=           -360.1457   YY=           -389.5540   ZZ=           -400.4907
   XY=            -20.3821   XZ=             11.0616   YZ=             -8.7800

 Normal termination of Gaussian 09 at Thu Jun 27 05:37:06 2019.
