 Gaussian 09, Revision D.01,
 Gaussian 09:  ES64L-G09RevD.01 24-Apr-2013

 -------------------------------------
 # td=(NStates=1) CAM-B3LYP/6-31G(d,p)
 -------------------------------------

 --
 TD
 --
 Symbolic Z-matrix:
 Charge =  0 Multiplicity = 1

                         Standard orientation:
 ---------------------------------------------------------------------
 Center     Atomic      Atomic             Coordinates (Angstroms)
 Number     Number       Type             X           Y           Z
 ---------------------------------------------------------------------
      1         12           0       -7.158710    0.530236    0.140770
      2          6           0       -4.866026   -1.925965    0.507070
      3          6           0       -4.791211    2.878892    1.106679
      4          6           0       -9.487546    3.063410   -0.418440
      5          6           0       -9.483950   -1.709196   -0.801408
      6          7           0       -5.179952    0.424301    0.560450
      7          6           0       -4.360104   -0.616772    0.692510
      8          6           0       -2.938107   -0.392852    1.271388
      9          6           0       -3.141721    1.114179    1.705040
     10          6           0       -4.440227    1.546666    1.131064
     11          6           0       -2.981340    1.257473    3.269193
     12          6           0       -1.967661   -0.697527    0.084091
     13          6           0       -0.454195   -0.556709    0.553820
     14          6           0        0.527817   -0.688409   -0.544891
     15          8           0        0.338690   -1.029167   -1.660592
     16          8           0        1.732820   -0.322869   -0.101862
     17          7           0       -7.106850    2.584146    0.233422
     18          6           0       -6.087178    3.365180    0.725521
     19          6           0       -6.512437    4.754114    0.862651
     20          6           0       -7.772611    4.839805    0.477028
     21          6           0       -8.164423    3.443401    0.109406
     22          6           0       -5.527387    5.837235    1.433511
     23          6           0       -8.656163    5.990977    0.165686
     24          6           0       -8.234134    7.279536    0.189624
     25          7           0       -9.046172    0.690032   -0.592244
     26          6           0       -9.916315    1.783290   -0.644928
     27          6           0      -11.147370    1.422795   -1.106194
     28          6           0      -11.172510    0.079362   -1.216980
     29          6           0       -9.871212   -0.335539   -0.887051
     30          6           0      -12.304945    2.426017   -1.462465
     31          6           0      -12.375158   -0.781856   -1.632900
     32          6           0      -12.153900   -1.186727   -3.122910
     33          7           0       -7.288464   -1.405836   -0.204457
     34          6           0       -8.222968   -2.311602   -0.593764
     35          6           0       -7.809515   -3.610121   -0.583467
     36          6           0       -6.490095   -3.533100   -0.154680
     37          6           0       -6.211416   -2.165830    0.084046
     38          6           0       -8.617043   -4.839864   -0.777309
     39          6           0       -5.273800   -4.334066    0.154463
     40          8           0       -5.174429   -5.554629    0.163039
     41          6           0       -4.117084   -3.346130    0.595893
     42          6           0       -3.519832   -3.713504    1.874984
     43          8           0       -3.771217   -3.054579    2.983835
     44          8           0       -2.688445   -4.707062    1.728644
     45          6           0       -2.089619   -5.139506    2.933918
     46          6           0        2.762338   -0.608064   -1.134142
     47          6           0        4.175200   -0.380972   -0.566087
     48          6           0        5.157478    0.513888   -1.004221
     49          6           0        5.065462    1.263321   -2.251828
     50          6           0        6.502723    0.522802   -0.229546
     51          6           0        7.690541   -0.155695   -0.958855
     52          6           0        8.916578   -0.131669   -0.062360
     53          6           0       10.177173   -0.755582   -0.904893
     54          6           0       10.084294   -2.203818   -1.241694
     55          6           0       11.387598   -0.423504   -0.067872
     56          6           0       12.744647   -0.501756   -0.718197
     57          6           0       13.965150   -0.133600    0.159318
     58          6           0       15.379835   -0.073962   -0.599822
     59          6           0       15.693532   -1.488605   -1.115923
     60          6           0       16.413042    0.483033    0.413498
     61          6           0       17.823489    0.555151   -0.230926
     62          6           0       18.738395    1.275063    0.741930
     63          6           0       20.243233    1.324531    0.275970
     64          6           0       20.288520    2.288756   -0.972594
     65          6           0       21.164781    1.829904    1.421396
     66          1           0       -4.225238    3.680310    1.642357
     67          1           0      -10.322738    3.788331   -0.832499
     68          1           0      -10.296276   -2.445435   -0.967944
     69          1           0       -2.648260   -0.898526    1.991113
     70          1           0       -2.376694    1.759655    1.225356
     71          1           0       -2.147213    0.786531    3.630824
     72          1           0       -3.147688    2.363732    3.579408
     73          1           0       -3.807014    0.720594    3.690986
     74          1           0       -2.197294   -1.645491   -0.464748
     75          1           0       -2.234228    0.170592   -0.473593
     76          1           0       -0.527456    0.442453    0.875828
     77          1           0       -0.132021   -1.198277    1.421224
     78          1           0       -4.822436    6.276342    0.798152
     79          1           0       -6.146349    6.551717    1.948541
     80          1           0       -4.864085    5.662081    2.158638
     81          1           0       -9.716657    5.666087    0.245126
     82          1           0       -9.030710    7.924486    0.153348
     83          1           0       -7.239169    7.696050    0.072723
     84          1           0      -11.956689    3.361551   -2.125809
     85          1           0      -13.187081    1.764760   -2.130850
     86          1           0      -13.120842    2.933031   -0.444707
     87          1           0      -12.216773   -1.577530   -1.109301
     88          1           0      -13.228430   -0.235873   -1.396882
     89          1           0      -13.002644   -1.519891   -3.715355
     90          1           0      -11.787861   -0.262050   -3.595197
     91          1           0      -11.211683   -1.907705   -3.149629
     92          1           0       -9.290722   -4.803869   -1.669976
     93          1           0       -7.951146   -5.742693   -0.769143
     94          1           0       -9.224414   -5.073984    0.155110
     95          1           0       -3.459555   -3.560693   -0.358106
     96          1           0       -1.428084   -4.444823    3.327025
     97          1           0       -2.903636   -5.466382    3.565501
     98          1           0       -1.360666   -5.921236    2.707314
     99          1           0        2.817161   -1.639542   -1.330932
    100          1           0        2.493008   -0.108830   -2.157160
    101          1           0        4.213972   -0.890482    0.360884
    102          1           0        4.009514    1.319008   -2.486733
    103          1           0        5.262284    2.311228   -1.691665
    104          1           0        5.766394    0.870512   -3.000967
    105          1           0        6.745342    1.695577   -0.077395
    106          1           0        6.556407    0.020493    0.601680
    107          1           0        7.584174   -1.133307   -1.380062
    108          1           0        7.968486    0.338555   -1.768841
    109          1           0        9.019986    0.798859    0.382169
    110          1           0        8.638735   -0.800690    0.717928
    111          1           0       10.302980   -0.219994   -1.922605
    112          1           0        8.849827   -2.282606   -1.523461
    113          1           0       10.740849   -2.555116   -2.087522
    114          1           0       10.285627   -2.808337   -0.319604
    115          1           0       11.310763    0.464354    0.500652
    116          1           0       11.422327   -1.051233    0.679851
    117          1           0       13.030528   -1.630638   -1.149788
    118          1           0       12.755769    0.134919   -1.621134
    119          1           0       13.666951    0.674227    0.669160
    120          1           0       14.076801   -1.294519    0.755925
    121          1           0       15.227452    0.569289   -1.328119
    122          1           0       15.934401   -2.155079   -0.275001
    123          1           0       15.110317   -1.972185   -1.847589
    124          1           0       16.554222   -1.523827   -1.698936
    125          1           0       16.249630    1.572705    1.056416
    126          1           0       16.273263   -0.080064    1.422167
    127          1           0       18.045157   -0.378594   -0.548206
    128          1           0       17.627105    1.105672   -1.003871
    129          1           0       18.305360    2.202656    1.007765
    130          1           0       18.746397    0.504342    1.800900
    131          1           0       20.762414    0.373080   -0.069972
    132          1           0       19.698560    3.162347   -0.694993
    133          1           0       21.504320    2.612390   -1.207893
    134          1           0       19.788675    1.811305   -1.871985
    135          1           0       21.080037    1.043234    2.193346
    136          1           0       22.257087    1.896737    1.117766
    137          1           0       20.828959    2.757173    1.638938
 ---------------------------------------------------------------------

 SCF Done:  E(RCAM-B3LYP) =  -2932.55883359     A.U. after   18 cycles

 Excitation energies and oscillator strengths:

 Excited State   1:      Singlet-A      1.9551 eV  634.16 nm  f=0.2636  <S**2>=0.000
     240 -> 243       -0.23697
     241 -> 242        0.66037
 This state for optimization and/or second-order correction.
 Total Energy, E(TD-HF/TD-KS) =  -2932.48698515
 Copying the excited state density for this state as the 1-particle RhoCI density.

 The electronic state is 1-A.
 Alpha  occ. eigenvalues --  -46.83348 -19.28421 -19.25819 -19.20684 -19.20369
 Alpha  occ. eigenvalues --  -19.20103 -14.42153 -14.40013 -14.38641 -14.38632
 Alpha  occ. eigenvalues --  -10.39984 -10.38110 -10.35767 -10.31729 -10.31615
 Alpha  occ. eigenvalues --  -10.31110 -10.31095 -10.30848 -10.30003 -10.29756
 Alpha  occ. eigenvalues --  -10.29706 -10.28575 -10.28575 -10.28291 -10.28273
 Alpha  occ. eigenvalues --  -10.27918 -10.27855 -10.27814 -10.27679 -10.27618
 Alpha  occ. eigenvalues --  -10.27416 -10.27246 -10.27000 -10.26972 -10.26905
 Alpha  occ. eigenvalues --  -10.26735 -10.26735 -10.26695 -10.26671 -10.26669
 Alpha  occ. eigenvalues --  -10.26605 -10.26538 -10.26468 -10.26427 -10.26342
 Alpha  occ. eigenvalues --  -10.26116 -10.25955 -10.25910 -10.25880 -10.25846
 Alpha  occ. eigenvalues --  -10.25832 -10.25738 -10.25691 -10.25629 -10.25541
 Alpha  occ. eigenvalues --  -10.25474 -10.25300 -10.24907 -10.24731 -10.24712
 Alpha  occ. eigenvalues --  -10.24037 -10.23794 -10.23613 -10.23022 -10.22662
 Alpha  occ. eigenvalues --   -3.12673  -1.87343  -1.86924  -1.86881  -1.20384
 Alpha  occ. eigenvalues --   -1.18850  -1.10858  -1.09381  -1.05321  -1.05043
 Alpha  occ. eigenvalues --   -1.03951  -1.03419  -1.02550  -0.91406  -0.91344
 Alpha  occ. eigenvalues --   -0.90362  -0.90094  -0.89470  -0.89035  -0.88799
 Alpha  occ. eigenvalues --   -0.88187  -0.87778  -0.87640  -0.87288  -0.86056
 Alpha  occ. eigenvalues --   -0.85438  -0.84852  -0.83817  -0.83230  -0.82300
 Alpha  occ. eigenvalues --   -0.81801  -0.81488  -0.80799  -0.79944  -0.78752
 Alpha  occ. eigenvalues --   -0.78119  -0.77113  -0.76301  -0.76159  -0.75954
 Alpha  occ. eigenvalues --   -0.75004  -0.74223  -0.73647  -0.73194  -0.72303
 Alpha  occ. eigenvalues --   -0.71466  -0.70602  -0.69888  -0.69203  -0.68655
 Alpha  occ. eigenvalues --   -0.67599  -0.67373  -0.65647  -0.64921  -0.64883
 Alpha  occ. eigenvalues --   -0.64533  -0.63698  -0.63421  -0.62696  -0.62266
 Alpha  occ. eigenvalues --   -0.61933  -0.60824  -0.60407  -0.59861  -0.59339
 Alpha  occ. eigenvalues --   -0.58392  -0.58158  -0.57990  -0.57750  -0.57041
 Alpha  occ. eigenvalues --   -0.56674  -0.56231  -0.55710  -0.55413  -0.55211
 Alpha  occ. eigenvalues --   -0.54834  -0.54430  -0.54208  -0.53562  -0.53268
 Alpha  occ. eigenvalues --   -0.52857  -0.52782  -0.52725  -0.52507  -0.51821
 Alpha  occ. eigenvalues --   -0.51788  -0.51072  -0.51019  -0.50670  -0.50426
 Alpha  occ. eigenvalues --   -0.50358  -0.50032  -0.49816  -0.49438  -0.49369
 Alpha  occ. eigenvalues --   -0.49291  -0.49204  -0.48877  -0.48744  -0.48509
 Alpha  occ. eigenvalues --   -0.48007  -0.47627  -0.47558  -0.47316  -0.47009
 Alpha  occ. eigenvalues --   -0.46973  -0.46578  -0.46293  -0.45639  -0.45524
 Alpha  occ. eigenvalues --   -0.45359  -0.44973  -0.44880  -0.44699  -0.44486
 Alpha  occ. eigenvalues --   -0.44333  -0.44185  -0.44116  -0.43931  -0.43823
 Alpha  occ. eigenvalues --   -0.43638  -0.43534  -0.43464  -0.43447  -0.43251
 Alpha  occ. eigenvalues --   -0.43011  -0.42708  -0.42628  -0.42422  -0.42276
 Alpha  occ. eigenvalues --   -0.42134  -0.41943  -0.41715  -0.41662  -0.41608
 Alpha  occ. eigenvalues --   -0.41292  -0.41123  -0.40897  -0.40705  -0.40613
 Alpha  occ. eigenvalues --   -0.40451  -0.40029  -0.39858  -0.39563  -0.39349
 Alpha  occ. eigenvalues --   -0.39312  -0.38852  -0.38813  -0.38572  -0.38381
 Alpha  occ. eigenvalues --   -0.37484  -0.37359  -0.37254  -0.36692  -0.36603
 Alpha  occ. eigenvalues --   -0.36471  -0.36425  -0.36387  -0.35682  -0.35599
 Alpha  occ. eigenvalues --   -0.35466  -0.34675  -0.34316  -0.34053  -0.33557
 Alpha  occ. eigenvalues --   -0.32790  -0.32691  -0.31970  -0.31039  -0.30119
 Alpha  occ. eigenvalues --   -0.29649  -0.28696  -0.28502  -0.28022  -0.22692
 Alpha  occ. eigenvalues --   -0.21103
 Alpha virt. eigenvalues --   -0.06836  -0.02885   0.01830   0.03532   0.04314
 Alpha virt. eigenvalues --    0.05438   0.05825   0.06566   0.07628   0.08076
 Alpha virt. eigenvalues --    0.08626   0.09587   0.11031   0.11180   0.11267

 Mulliken charges:
               1
     1  Mg   0.822358
     2  C    0.018157
     3  C   -0.183591
     4  C   -0.189104
     5  C   -0.214155
     6  N   -0.644407
     7  C    0.298433
     8  C   -0.086513
     9  C   -0.181656
    10  C    0.312468
    11  C   -0.309713
    12  C   -0.188190
    13  C   -0.281875
    14  C    0.615837
    15  O   -0.463668
    16  O   -0.477905
    17  N   -0.658500
    18  C    0.282113
    19  C   -0.008497
    20  C    0.028787
    21  C    0.240628
    22  C   -0.382272
    23  C   -0.071668
    24  C   -0.239327
    25  N   -0.681041
    26  C    0.288222
    27  C    0.055480
    28  C   -0.015841
    29  C    0.319388
    30  C   -0.335790
    31  C   -0.190551
    32  C   -0.317122
    33  N   -0.741338
    34  C    0.277010
    35  C    0.056182
    36  C   -0.017862
    37  C    0.336065
    38  C   -0.386891
    39  C    0.350768
    40  O   -0.459396
    41  C   -0.310121
    42  C    0.651691
    43  O   -0.538387
    44  O   -0.410620
    45  C   -0.084164
    46  C   -0.000121
    47  C   -0.151185
    48  C    0.086731
    49  C   -0.336055
    50  C   -0.195764
    51  C   -0.188072
    52  C   -0.200397
    53  C   -0.059268
    54  C   -0.288460
    55  C   -0.158217
    56  C   -0.183857
    57  C   -0.154024
    58  C   -0.049957
    59  C   -0.333346
    60  C   -0.182070
    61  C   -0.153549
    62  C   -0.160322
    63  C   -0.067604
    64  C   -0.296217
    65  C   -0.294784
    66  H    0.088106
    67  H    0.097270
    68  H    0.080852
    69  H    0.104811
    70  H    0.106455
    71  H    0.123295
    72  H    0.097478
    73  H    0.133428
    74  H    0.123150
    75  H    0.120031
    76  H    0.144221
    77  H    0.130664
    78  H    0.124825
    79  H    0.122024
    80  H    0.120803
    81  H    0.099269
    82  H    0.100271
    83  H    0.120541
    84  H    0.117598
    85  H    0.085144
    86  H    0.066356
    87  H    0.117846
    88  H    0.109495
    89  H    0.108526
    90  H    0.116354
    91  H    0.094834
    92  H    0.118741
    93  H    0.147899
    94  H    0.128604
    95  H    0.165598
    96  H    0.132722
    97  H    0.145476
    98  H    0.121042
    99  H    0.134220
   100  H    0.119836
   101  H    0.090642
   102  H    0.121649
   103  H    0.099459
   104  H    0.135419
   105  H    0.071591
   106  H    0.106353
   107  H    0.098616
   108  H    0.104207
   109  H    0.105259
   110  H    0.097918
   111  H    0.073147
   112  H    0.062898
   113  H    0.114747
   114  H    0.102235
   115  H    0.084837
   116  H    0.101699
   117  H    0.056417
   118  H    0.075985
   119  H    0.093683
   120  H    0.045230
   121  H    0.097434
   122  H    0.109818
   123  H    0.115492
   124  H    0.103496
   125  H    0.046976
   126  H    0.084028
   127  H    0.110968
   128  H    0.110310
   129  H    0.104475
   130  H    0.040690
   131  H    0.083386
   132  H    0.100727
   133  H    0.064828
   134  H    0.102033
   135  H    0.101963
   136  H    0.087854
   137  H    0.108864
 Sum of Mulliken charges =   0.00000

 Dipole moment (field-independent basis, Debye):
    X=              2.0560    Y=              3.1074    Z=              0.8740  Tot=              3.8272
 Quadrupole moment (field-independent basis, Debye-Ang):
   XX=           -355.7813   YY=           -388.4220   ZZ=           -399.1552
   XY=            -19.4346   XZ=             -2.0904   YZ=             -0.1204

 Normal termination of Gaussian 09 at Sat Jun 29 05:37:00 2019.
