 Gaussian 09, Revision D.01,
 Gaussian 09:  ES64L-G09RevD.01 24-Apr-2013

 -------------------------------------
 # td=(NStates=1) CAM-B3LYP/6-31G(d,p)
 -------------------------------------

 --
 TD
 --
 Symbolic Z-matrix:
 Charge =  0 Multiplicity = 1

                         Standard orientation:
 ---------------------------------------------------------------------
 Center     Atomic      Atomic             Coordinates (Angstroms)
 Number     Number       Type             X           Y           Z
 ---------------------------------------------------------------------
      1         12           0       -7.085283    0.534034    0.077381
      2          6           0       -4.798569   -1.854789    0.482967
      3          6           0       -4.804772    2.942636    1.085440
      4          6           0       -9.459395    3.022399   -0.457465
      5          6           0       -9.531754   -1.774656   -0.727382
      6          7           0       -5.060020    0.488866    0.710626
      7          6           0       -4.332940   -0.640652    0.781177
      8          6           0       -2.919605   -0.322834    1.193818
      9          6           0       -2.988346    1.078192    1.653272
     10          6           0       -4.429770    1.597965    1.042482
     11          6           0       -3.016942    1.276898    3.145420
     12          6           0       -1.961333   -0.499978    0.001628
     13          6           0       -0.448903   -0.365738    0.494708
     14          6           0        0.555811   -0.568680   -0.599981
     15          8           0        0.215028   -0.950560   -1.722634
     16          8           0        1.828006   -0.351033   -0.183152
     17          7           0       -7.151620    2.520846    0.319076
     18          6           0       -6.111854    3.381830    0.779908
     19          6           0       -6.533565    4.761703    0.823301
     20          6           0       -7.791923    4.773650    0.304943
     21          6           0       -8.154036    3.478481    0.009720
     22          6           0       -5.656951    5.886094    1.425485
     23          6           0       -8.752456    5.948046    0.367783
     24          6           0       -8.378816    7.270768    0.065142
     25          7           0       -9.122269    0.612002   -0.511811
     26          6           0       -9.910248    1.731181   -0.702316
     27          6           0      -11.272166    1.350488   -1.089917
     28          6           0      -11.332299   -0.010360   -1.188890
     29          6           0       -9.932337   -0.469878   -0.818505
     30          6           0      -12.432920    2.295962   -1.283984
     31          6           0      -12.354804   -0.854184   -1.610590
     32          6           0      -12.242874   -1.200974   -3.104288
     33          7           0       -7.294101   -1.412895   -0.123125
     34          6           0       -8.291590   -2.312190   -0.388326
     35          6           0       -7.780260   -3.671829   -0.530086
     36          6           0       -6.422798   -3.556694   -0.214146
     37          6           0       -6.184006   -2.174825    0.065646
     38          6           0       -8.786842   -4.959039   -0.742067
     39          6           0       -5.258597   -4.346972    0.150684
     40          8           0       -5.085617   -5.575848    0.298447
     41          6           0       -4.184481   -3.230197    0.523740
     42          6           0       -3.555132   -3.578484    1.852597
     43          8           0       -3.758257   -2.994699    2.871190
     44          8           0       -2.703771   -4.581099    1.674922
     45          6           0       -2.049924   -5.184222    2.852886
     46          6           0        2.808300   -0.615476   -1.217110
     47          6           0        4.171286   -0.366589   -0.447938
     48          6           0        5.081186    0.479630   -0.865383
     49          6           0        5.130790    1.284995   -2.129895
     50          6           0        6.419446    0.474274   -0.071944
     51          6           0        7.640480   -0.153257   -0.961391
     52          6           0        8.974440   -0.088243   -0.195337
     53          6           0       10.251411   -0.486406   -0.958301
     54          6           0       10.113748   -1.987003   -1.405976
     55          6           0       11.452650   -0.357468    0.060127
     56          6           0       12.854568   -0.580451   -0.675395
     57          6           0       14.049900    0.028106    0.122652
     58          6           0       15.388296   -0.252577   -0.443592
     59          6           0       15.669531   -1.748251   -0.750640
     60          6           0       16.508287    0.311135    0.473848
     61          6           0       17.901162    0.448806   -0.170084
     62          6           0       18.841041    1.249269    0.746047
     63          6           0       20.257261    1.279091    0.286139
     64          6           0       20.335122    2.107868   -1.010540
     65          6           0       21.120939    2.013264    1.279075
     66          1           0       -3.998030    3.582593    1.431218
     67          1           0      -10.080032    3.898185   -0.655348
     68          1           0      -10.192247   -2.480837   -1.104311
     69          1           0       -2.618341   -1.201460    1.699654
     70          1           0       -2.459808    1.699198    1.154444
     71          1           0       -2.129793    0.755378    3.722222
     72          1           0       -2.957334    2.347782    3.481181
     73          1           0       -3.877721    0.813943    3.472813
     74          1           0       -2.044937   -1.511829   -0.429348
     75          1           0       -1.967967    0.185235   -0.646668
     76          1           0       -0.326204    0.776311    0.839676
     77          1           0        0.008833   -1.063808    1.332291
     78          1           0       -5.133618    6.282459    0.566678
     79          1           0       -6.439403    6.501289    1.781813
     80          1           0       -4.962566    5.510507    2.025758
     81          1           0       -9.893573    5.807023    0.573515
     82          1           0       -9.439421    7.819285    0.089398
     83          1           0       -7.356510    7.468256   -0.492320
     84          1           0      -12.452269    2.874547   -2.130760
     85          1           0      -13.463372    1.903362   -1.293686
     86          1           0      -12.580048    2.979232   -0.424615
     87          1           0      -12.348500   -1.905408   -1.155299
     88          1           0      -13.473858   -0.187425   -1.393595
     89          1           0      -12.952322   -1.800813   -3.508529
     90          1           0      -12.371247   -0.258249   -3.851828
     91          1           0      -11.337336   -1.644655   -3.239489
     92          1           0       -9.305008   -4.836871   -1.737529
     93          1           0       -7.906241   -5.674338   -0.915886
     94          1           0       -9.380173   -4.951973    0.374253
     95          1           0       -3.296367   -3.603418   -0.322538
     96          1           0       -1.357793   -4.397953    3.301596
     97          1           0       -2.861099   -5.473259    3.648451
     98          1           0       -1.497090   -5.921950    2.458622
     99          1           0        3.016856   -1.581059   -1.626244
    100          1           0        2.527770    0.061535   -2.070751
    101          1           0        4.513914   -1.193522    0.413914
    102          1           0        4.094139    1.107558   -2.781399
    103          1           0        5.301193    2.335608   -1.996306
    104          1           0        5.950425    1.055419   -2.878073
    105          1           0        6.487174    1.557635    0.221994
    106          1           0        6.314023   -0.357009    0.628906
    107          1           0        7.434250   -1.326031   -1.255943
    108          1           0        7.887101    0.368505   -2.079675
    109          1           0        9.217035    0.783148    0.525223
    110          1           0        9.000221   -1.000562    0.579881
    111          1           0       10.528423    0.295339   -1.939036
    112          1           0        9.153380   -2.181639   -2.093707
    113          1           0       10.881629   -2.231887   -2.008913
    114          1           0        9.835401   -2.462382   -0.475165
    115          1           0       11.408967    0.683701    0.444770
    116          1           0       11.293035   -1.053912    0.704338
    117          1           0       12.896448   -1.666191   -1.076059
    118          1           0       12.941974   -0.036845   -1.724653
    119          1           0       13.939340    1.024495    0.511088
    120          1           0       14.030914   -0.592688    1.138746
    121          1           0       15.449071    0.384108   -1.209289
    122          1           0       15.544012   -2.477366    0.083461
    123          1           0       15.059832   -2.159030   -1.570246
    124          1           0       16.790554   -1.809557   -1.185801
    125          1           0       16.177080    1.369506    0.762469
    126          1           0       16.507726   -0.270218    1.474852
    127          1           0       18.543588   -0.557358   -0.668962
    128          1           0       17.507768    0.784398   -1.322329
    129          1           0       18.462116    2.333052    0.762688
    130          1           0       18.694600    0.711151    1.662912
    131          1           0       20.739968    0.393568    0.004528
    132          1           0       19.748041    3.105155   -0.760168
    133          1           0       21.235661    2.263168   -1.651209
    134          1           0       19.765857    1.554834   -1.809174
    135          1           0       21.428914    1.431090    2.192305
    136          1           0       21.957395    2.270031    0.873573
    137          1           0       20.867285    2.990704    1.488497
 ---------------------------------------------------------------------

 SCF Done:  E(RCAM-B3LYP) =  -2932.54254373     A.U. after   18 cycles

 Excitation energies and oscillator strengths:

 Excited State   1:      Singlet-A      1.9713 eV  628.94 nm  f=0.2846  <S**2>=0.000
     240 -> 243       -0.21428
     241 -> 242        0.66988
 This state for optimization and/or second-order correction.
 Total Energy, E(TD-HF/TD-KS) =  -2932.47009956
 Copying the excited state density for this state as the 1-particle RhoCI density.

 The electronic state is 1-A.
 Alpha  occ. eigenvalues --  -46.84002 -19.26844 -19.25650 -19.20555 -19.20193
 Alpha  occ. eigenvalues --  -19.20139 -14.41376 -14.39618 -14.39520 -14.39415
 Alpha  occ. eigenvalues --  -10.38885 -10.38238 -10.35363 -10.32314 -10.31808
 Alpha  occ. eigenvalues --  -10.30980 -10.30239 -10.29683 -10.29624 -10.29535
 Alpha  occ. eigenvalues --  -10.29497 -10.29441 -10.29431 -10.29251 -10.29159
 Alpha  occ. eigenvalues --  -10.28922 -10.28826 -10.28784 -10.28755 -10.28361
 Alpha  occ. eigenvalues --  -10.28356 -10.28117 -10.27719 -10.27272 -10.27213
 Alpha  occ. eigenvalues --  -10.27192 -10.27168 -10.27164 -10.26966 -10.26939
 Alpha  occ. eigenvalues --  -10.26905 -10.26864 -10.26799 -10.26741 -10.26426
 Alpha  occ. eigenvalues --  -10.26394 -10.26313 -10.26017 -10.25940 -10.25889
 Alpha  occ. eigenvalues --  -10.25605 -10.25582 -10.25553 -10.25455 -10.25430
 Alpha  occ. eigenvalues --  -10.25376 -10.25269 -10.25199 -10.25186 -10.25165
 Alpha  occ. eigenvalues --  -10.24967 -10.24769 -10.24652 -10.24617 -10.21902
 Alpha  occ. eigenvalues --   -3.13124  -1.87820  -1.87377  -1.87306  -1.17972
 Alpha  occ. eigenvalues --   -1.17661  -1.09414  -1.08814  -1.08405  -1.05173
 Alpha  occ. eigenvalues --   -1.03696  -1.02375  -1.01475  -0.92231  -0.90868
 Alpha  occ. eigenvalues --   -0.90579  -0.90291  -0.89871  -0.89695  -0.88696
 Alpha  occ. eigenvalues --   -0.88681  -0.88124  -0.87563  -0.86048  -0.85389
 Alpha  occ. eigenvalues --   -0.84165  -0.83646  -0.83606  -0.82442  -0.82375
 Alpha  occ. eigenvalues --   -0.81302  -0.81233  -0.80348  -0.79088  -0.78738
 Alpha  occ. eigenvalues --   -0.77708  -0.77565  -0.76134  -0.76069  -0.75812
 Alpha  occ. eigenvalues --   -0.75180  -0.74977  -0.74298  -0.73145  -0.72457
 Alpha  occ. eigenvalues --   -0.71680  -0.70797  -0.70093  -0.69027  -0.68466
 Alpha  occ. eigenvalues --   -0.67315  -0.65690  -0.65254  -0.65015  -0.64118
 Alpha  occ. eigenvalues --   -0.63848  -0.63145  -0.62997  -0.62701  -0.61378
 Alpha  occ. eigenvalues --   -0.60680  -0.60136  -0.59578  -0.59343  -0.58917
 Alpha  occ. eigenvalues --   -0.58583  -0.57813  -0.57493  -0.56162  -0.55903
 Alpha  occ. eigenvalues --   -0.55528  -0.55342  -0.55299  -0.54878  -0.54828
 Alpha  occ. eigenvalues --   -0.54359  -0.54001  -0.53760  -0.53366  -0.53114
 Alpha  occ. eigenvalues --   -0.52773  -0.52691  -0.52273  -0.51873  -0.51679
 Alpha  occ. eigenvalues --   -0.51180  -0.50995  -0.50623  -0.50505  -0.50412
 Alpha  occ. eigenvalues --   -0.49803  -0.49677  -0.49540  -0.49303  -0.49070
 Alpha  occ. eigenvalues --   -0.48812  -0.48615  -0.48389  -0.48271  -0.48036
 Alpha  occ. eigenvalues --   -0.47872  -0.47612  -0.47548  -0.47446  -0.47193
 Alpha  occ. eigenvalues --   -0.46874  -0.46814  -0.46493  -0.45979  -0.45764
 Alpha  occ. eigenvalues --   -0.45630  -0.45482  -0.45095  -0.44984  -0.44840
 Alpha  occ. eigenvalues --   -0.44791  -0.44576  -0.44190  -0.44118  -0.44062
 Alpha  occ. eigenvalues --   -0.43873  -0.43813  -0.43570  -0.43371  -0.43309
 Alpha  occ. eigenvalues --   -0.42964  -0.42805  -0.42628  -0.42541  -0.42045
 Alpha  occ. eigenvalues --   -0.41677  -0.41615  -0.41139  -0.41020  -0.40920
 Alpha  occ. eigenvalues --   -0.40590  -0.40559  -0.40333  -0.40225  -0.39976
 Alpha  occ. eigenvalues --   -0.39943  -0.39667  -0.39499  -0.39395  -0.39289
 Alpha  occ. eigenvalues --   -0.38828  -0.38598  -0.38513  -0.37738  -0.37552
 Alpha  occ. eigenvalues --   -0.37203  -0.37022  -0.36852  -0.36763  -0.36462
 Alpha  occ. eigenvalues --   -0.36198  -0.35822  -0.35671  -0.35438  -0.35052
 Alpha  occ. eigenvalues --   -0.35019  -0.34634  -0.33784  -0.33350  -0.33175
 Alpha  occ. eigenvalues --   -0.33131  -0.32767  -0.31864  -0.30926  -0.30173
 Alpha  occ. eigenvalues --   -0.29970  -0.29649  -0.28563  -0.27904  -0.23269
 Alpha  occ. eigenvalues --   -0.21117
 Alpha virt. eigenvalues --   -0.07020  -0.02320   0.01495   0.03399   0.05694
 Alpha virt. eigenvalues --    0.06164   0.06386   0.06953   0.07204   0.07554
 Alpha virt. eigenvalues --    0.08519   0.10371   0.10731   0.10896   0.11128

 Mulliken charges:
               1
     1  Mg   0.808157
     2  C    0.099903
     3  C   -0.197263
     4  C   -0.193056
     5  C   -0.188089
     6  N   -0.652835
     7  C    0.333051
     8  C   -0.128511
     9  C   -0.122201
    10  C    0.281065
    11  C   -0.288772
    12  C   -0.155711
    13  C   -0.278747
    14  C    0.613114
    15  O   -0.488788
    16  O   -0.464914
    17  N   -0.694864
    18  C    0.299023
    19  C   -0.013711
    20  C    0.019134
    21  C    0.275474
    22  C   -0.331398
    23  C   -0.113714
    24  C   -0.244431
    25  N   -0.669359
    26  C    0.314018
    27  C    0.028428
    28  C    0.121716
    29  C    0.295129
    30  C   -0.391378
    31  C   -0.280220
    32  C   -0.296017
    33  N   -0.712497
    34  C    0.261043
    35  C   -0.037266
    36  C    0.007221
    37  C    0.275997
    38  C   -0.339558
    39  C    0.373780
    40  O   -0.481500
    41  C   -0.358263
    42  C    0.639740
    43  O   -0.473682
    44  O   -0.458731
    45  C   -0.075942
    46  C    0.007530
    47  C   -0.167117
    48  C    0.147741
    49  C   -0.354094
    50  C   -0.216849
    51  C   -0.167988
    52  C   -0.149703
    53  C   -0.068962
    54  C   -0.296719
    55  C   -0.153654
    56  C   -0.186918
    57  C   -0.169546
    58  C   -0.042582
    59  C   -0.305823
    60  C   -0.181576
    61  C   -0.152033
    62  C   -0.141856
    63  C   -0.070491
    64  C   -0.312881
    65  C   -0.299671
    66  H    0.086868
    67  H    0.084140
    68  H    0.072256
    69  H    0.118342
    70  H    0.094100
    71  H    0.094456
    72  H    0.096904
    73  H    0.136107
    74  H    0.124212
    75  H    0.115151
    76  H    0.115463
    77  H    0.123491
    78  H    0.126069
    79  H    0.137784
    80  H    0.122366
    81  H    0.108981
    82  H    0.104284
    83  H    0.124982
    84  H    0.133305
    85  H    0.111679
    86  H    0.113517
    87  H    0.108113
    88  H    0.065462
    89  H    0.116485
    90  H    0.082148
    91  H    0.119548
    92  H    0.130071
    93  H    0.152124
    94  H    0.131403
    95  H    0.142046
    96  H    0.118841
    97  H    0.134640
    98  H    0.141302
    99  H    0.138521
   100  H    0.125884
   101  H    0.083871
   102  H    0.080112
   103  H    0.120701
   104  H    0.126507
   105  H    0.110462
   106  H    0.109320
   107  H    0.086284
   108  H    0.067039
   109  H    0.087668
   110  H    0.058147
   111  H    0.041637
   112  H    0.078364
   113  H    0.118068
   114  H    0.106236
   115  H    0.092554
   116  H    0.105615
   117  H    0.094363
   118  H    0.067302
   119  H    0.097251
   120  H    0.058848
   121  H    0.095971
   122  H    0.106437
   123  H    0.100554
   124  H    0.083871
   125  H    0.082673
   126  H    0.077532
   127  H    0.054340
   128  H    0.059571
   129  H    0.091881
   130  H    0.110857
   131  H    0.096705
   132  H    0.079921
   133  H    0.101018
   134  H    0.094932
   135  H    0.085970
   136  H    0.107042
   137  H    0.097948
 Sum of Mulliken charges =   0.00000

 Dipole moment (field-independent basis, Debye):
    X=              1.4230    Y=              4.0566    Z=             -0.2281  Tot=              4.3049
 Quadrupole moment (field-independent basis, Debye-Ang):
   XX=           -336.6503   YY=           -392.1191   ZZ=           -400.1599
   XY=            -23.8317   XZ=             12.5493   YZ=             -2.8767

 Normal termination of Gaussian 09 at Sat Jun 29 07:49:51 2019.
