 Gaussian 09, Revision D.01,
 Gaussian 09:  ES64L-G09RevD.01 24-Apr-2013

 -------------------------------------
 # td=(NStates=1) CAM-B3LYP/6-31G(d,p)
 -------------------------------------

 --
 TD
 --
 Symbolic Z-matrix:
 Charge =  0 Multiplicity = 1

                         Standard orientation:
 ---------------------------------------------------------------------
 Center     Atomic      Atomic             Coordinates (Angstroms)
 Number     Number       Type             X           Y           Z
 ---------------------------------------------------------------------
      1         12           0       -7.198063    0.569690    0.157983
      2          6           0       -4.858682   -1.882138    0.456912
      3          6           0       -4.834461    2.899461    1.193744
      4          6           0       -9.482378    3.141199   -0.424695
      5          6           0       -9.617841   -1.801109   -0.737508
      6          7           0       -5.142689    0.431495    0.710764
      7          6           0       -4.352733   -0.597790    0.741622
      8          6           0       -2.936350   -0.425014    1.182631
      9          6           0       -3.013489    1.075771    1.584811
     10          6           0       -4.423664    1.599433    1.131879
     11          6           0       -2.854248    1.252466    3.268186
     12          6           0       -1.899272   -0.543218    0.005316
     13          6           0       -0.424747   -0.479038    0.509352
     14          6           0        0.505344   -0.636667   -0.670466
     15          8           0        0.158949   -0.872935   -1.851652
     16          8           0        1.854309   -0.440650   -0.355657
     17          7           0       -7.226013    2.611659    0.345750
     18          6           0       -6.194617    3.343875    0.843623
     19          6           0       -6.465188    4.752457    0.896196
     20          6           0       -7.779063    4.946449    0.407183
     21          6           0       -8.233480    3.484485    0.175696
     22          6           0       -5.606578    5.810404    1.415066
     23          6           0       -8.700885    5.993813    0.427353
     24          6           0       -8.255956    7.173247   -0.087303
     25          7           0       -9.139680    0.700029   -0.410297
     26          6           0       -9.937411    1.778219   -0.600445
     27          6           0      -11.296381    1.463186   -1.049943
     28          6           0      -11.340375    0.058548   -1.175419
     29          6           0       -9.992469   -0.424561   -0.817422
     30          6           0      -12.395758    2.397403   -1.395509
     31          6           0      -12.444492   -0.789862   -1.555004
     32          6           0      -12.355425   -1.213857   -3.054171
     33          7           0       -7.261938   -1.475307   -0.196806
     34          6           0       -8.360834   -2.316771   -0.508954
     35          6           0       -7.823116   -3.737233   -0.482122
     36          6           0       -6.457425   -3.691270   -0.081494
     37          6           0       -6.183524   -2.236125    0.012309
     38          6           0       -8.590240   -4.968751   -0.812857
     39          6           0       -5.272373   -4.311961    0.360671
     40          8           0       -5.084846   -5.568024    0.383808
     41          6           0       -4.294139   -3.262338    0.570121
     42          6           0       -3.516538   -3.557072    1.891229
     43          8           0       -3.524098   -3.029151    2.997633
     44          8           0       -2.712496   -4.567246    1.646012
     45          6           0       -2.001510   -5.207208    2.867570
     46          6           0        2.823376   -0.543328   -1.311009
     47          6           0        4.143184   -0.384485   -0.670123
     48          6           0        5.191217    0.332249   -1.107714
     49          6           0        5.061741    1.217482   -2.355001
     50          6           0        6.513625    0.489614   -0.319194
     51          6           0        7.682066   -0.184749   -0.995376
     52          6           0        8.954032   -0.144928   -0.151356
     53          6           0       10.256520   -0.597583   -1.004587
     54          6           0       10.043515   -2.074634   -1.503062
     55          6           0       11.426563   -0.332468    0.012200
     56          6           0       12.761198   -0.527503   -0.728959
     57          6           0       14.031825   -0.080497    0.202983
     58          6           0       15.430869   -0.251686   -0.479105
     59          6           0       15.778061   -1.696748   -0.806219
     60          6           0       16.438093    0.280260    0.513549
     61          6           0       17.795202    0.477388   -0.153392
     62          6           0       18.792515    1.322398    0.778246
     63          6           0       20.159904    1.393074    0.339262
     64          6           0       20.357781    2.350519   -0.905200
     65          6           0       21.114553    1.990110    1.486139
     66          1           0       -4.022837    3.609195    1.201067
     67          1           0      -10.070044    4.049252   -0.715770
     68          1           0      -10.466979   -2.415037   -1.218929
     69          1           0       -2.433823   -1.122152    1.924582
     70          1           0       -2.055487    1.766393    1.205222
     71          1           0       -1.757337    0.966778    3.570979
     72          1           0       -3.028387    2.368937    3.502393
     73          1           0       -3.587461    0.401566    3.821336
     74          1           0       -2.023001   -1.393947   -0.609304
     75          1           0       -2.240574    0.368090   -0.574715
     76          1           0        0.173934    0.364771    0.957705
     77          1           0       -0.267714   -1.353306    0.934382
     78          1           0       -4.900785    6.211077    0.668564
     79          1           0       -6.135752    6.837893    1.660389
     80          1           0       -5.202136    5.437699    2.309492
     81          1           0       -9.685753    5.839520    0.545613
     82          1           0       -9.018650    7.994388   -0.307893
     83          1           0       -7.173047    7.412991   -0.493946
     84          1           0      -11.888223    3.207435   -2.189650
     85          1           0      -13.342748    1.982881   -1.614590
     86          1           0      -12.345376    3.102937   -0.409066
     87          1           0      -12.527148   -1.775841   -1.012109
     88          1           0      -13.426381   -0.472811   -1.358938
     89          1           0      -13.259166   -1.690372   -3.350964
     90          1           0      -12.341916   -0.167614   -3.595292
     91          1           0      -11.545508   -1.678161   -3.400590
     92          1           0       -8.824241   -4.932229   -1.788932
     93          1           0       -7.863401   -5.795504   -0.851031
     94          1           0       -9.388798   -5.318411   -0.298858
     95          1           0       -3.506991   -3.333971   -0.111198
     96          1           0       -1.364520   -4.369061    3.268363
     97          1           0       -2.769352   -5.487693    3.660964
     98          1           0       -1.451191   -5.991827    2.411701
     99          1           0        2.816677   -1.645776   -1.705572
    100          1           0        2.650771    0.059313   -2.059610
    101          1           0        4.136875   -0.855953    0.391091
    102          1           0        4.088039    0.988666   -2.813631
    103          1           0        5.227551    2.387466   -2.419690
    104          1           0        5.888742    0.806648   -3.091474
    105          1           0        6.609721    1.492880    0.160744
    106          1           0        6.510173   -0.049654    0.702037
    107          1           0        7.477263   -1.283546   -1.310225
    108          1           0        7.786087    0.211550   -1.961851
    109          1           0        9.227511    0.918536    0.019374
    110          1           0        8.803386   -0.929145    0.556133
    111          1           0       10.302711    0.066774   -1.882597
    112          1           0        9.349072   -2.123723   -2.177404
    113          1           0       11.123676   -2.353168   -1.985068
    114          1           0       10.094644   -2.795597   -0.695467
    115          1           0       11.302975    0.621086    0.425275
    116          1           0       11.380458   -1.005338    1.008339
    117          1           0       13.061481   -1.726721   -1.013814
    118          1           0       12.793631    0.045043   -1.657202
    119          1           0       13.980427    0.965180    0.474873
    120          1           0       14.036072   -0.718084    1.009742
    121          1           0       15.393664    0.369546   -1.306633
    122          1           0       15.717590   -2.458203    0.123811
    123          1           0       15.371488   -2.393892   -1.605787
    124          1           0       16.788866   -1.704679   -1.201878
    125          1           0       16.088767    1.219870    0.922021
    126          1           0       16.386786   -0.300972    1.450239
    127          1           0       18.327042   -0.467769   -0.459794
    128          1           0       17.832632    0.900409   -1.131253
    129          1           0       18.280884    2.399790    0.742465
    130          1           0       18.813512    1.030402    1.880751
    131          1           0       20.573147    0.481670   -0.075138
    132          1           0       19.780916    3.249663   -0.703358
    133          1           0       21.474505    2.430204   -1.064217
    134          1           0       19.791316    1.783245   -1.832966
    135          1           0       21.209224    1.129368    2.083397
    136          1           0       22.169688    2.147550    0.828314
    137          1           0       20.934017    2.858598    2.050794
 ---------------------------------------------------------------------

 SCF Done:  E(RCAM-B3LYP) =  -2932.63925689     A.U. after   15 cycles

 Excitation energies and oscillator strengths:

 Excited State   1:      Singlet-A      1.9206 eV  645.55 nm  f=0.2858  <S**2>=0.000
     240 -> 242       -0.10927
     240 -> 243        0.22320
     241 -> 242        0.65193
 This state for optimization and/or second-order correction.
 Total Energy, E(TD-HF/TD-KS) =  -2932.56867620
 Copying the excited state density for this state as the 1-particle RhoCI density.

 The electronic state is 1-A.
 Alpha  occ. eigenvalues --  -46.84985 -19.26037 -19.25412 -19.21038 -19.19814
 Alpha  occ. eigenvalues --  -19.18784 -14.41966 -14.40533 -14.40012 -14.39266
 Alpha  occ. eigenvalues --  -10.39978 -10.38456 -10.33917 -10.32449 -10.31586
 Alpha  occ. eigenvalues --  -10.31077 -10.30813 -10.30576 -10.30077 -10.29891
 Alpha  occ. eigenvalues --  -10.29810 -10.29771 -10.29559 -10.29496 -10.29010
 Alpha  occ. eigenvalues --  -10.28760 -10.28485 -10.28349 -10.28323 -10.28288
 Alpha  occ. eigenvalues --  -10.28197 -10.27889 -10.27586 -10.27527 -10.27518
 Alpha  occ. eigenvalues --  -10.27505 -10.27279 -10.27054 -10.26797 -10.26650
 Alpha  occ. eigenvalues --  -10.26647 -10.26501 -10.26369 -10.26328 -10.26260
 Alpha  occ. eigenvalues --  -10.26246 -10.26120 -10.26100 -10.25916 -10.25874
 Alpha  occ. eigenvalues --  -10.25865 -10.25616 -10.25601 -10.25431 -10.25341
 Alpha  occ. eigenvalues --  -10.25326 -10.25168 -10.25069 -10.24896 -10.24817
 Alpha  occ. eigenvalues --  -10.24736 -10.24712 -10.24258 -10.24017 -10.23835
 Alpha  occ. eigenvalues --   -3.13915  -1.88624  -1.88142  -1.88102  -1.17659
 Alpha  occ. eigenvalues --   -1.17140  -1.08186  -1.07456  -1.06728  -1.04675
 Alpha  occ. eigenvalues --   -1.03969  -1.02118  -1.00774  -0.93038  -0.90804
 Alpha  occ. eigenvalues --   -0.90484  -0.90416  -0.90022  -0.89279  -0.88704
 Alpha  occ. eigenvalues --   -0.88304  -0.88164  -0.86960  -0.86627  -0.85944
 Alpha  occ. eigenvalues --   -0.85119  -0.84256  -0.83583  -0.82717  -0.82045
 Alpha  occ. eigenvalues --   -0.81237  -0.80457  -0.80095  -0.79139  -0.78003
 Alpha  occ. eigenvalues --   -0.77359  -0.76750  -0.76000  -0.75612  -0.75055
 Alpha  occ. eigenvalues --   -0.74660  -0.74535  -0.74045  -0.72963  -0.72476
 Alpha  occ. eigenvalues --   -0.71225  -0.70504  -0.69994  -0.69118  -0.68608
 Alpha  occ. eigenvalues --   -0.67448  -0.66848  -0.64913  -0.64660  -0.64507
 Alpha  occ. eigenvalues --   -0.64017  -0.63732  -0.62890  -0.62852  -0.62122
 Alpha  occ. eigenvalues --   -0.61284  -0.60902  -0.60485  -0.60137  -0.59020
 Alpha  occ. eigenvalues --   -0.58533  -0.58199  -0.57731  -0.57239  -0.56973
 Alpha  occ. eigenvalues --   -0.56272  -0.55195  -0.55065  -0.54884  -0.54848
 Alpha  occ. eigenvalues --   -0.54218  -0.54103  -0.53264  -0.52866  -0.52659
 Alpha  occ. eigenvalues --   -0.52359  -0.52325  -0.51963  -0.51729  -0.51615
 Alpha  occ. eigenvalues --   -0.51322  -0.50893  -0.50773  -0.50447  -0.50384
 Alpha  occ. eigenvalues --   -0.50304  -0.50161  -0.50029  -0.49432  -0.49287
 Alpha  occ. eigenvalues --   -0.49170  -0.48890  -0.48429  -0.48247  -0.48100
 Alpha  occ. eigenvalues --   -0.47832  -0.47564  -0.47535  -0.47386  -0.47302
 Alpha  occ. eigenvalues --   -0.47199  -0.46624  -0.46052  -0.45997  -0.45951
 Alpha  occ. eigenvalues --   -0.45624  -0.45578  -0.45084  -0.45025  -0.44876
 Alpha  occ. eigenvalues --   -0.44780  -0.44459  -0.44403  -0.44144  -0.44062
 Alpha  occ. eigenvalues --   -0.43918  -0.43414  -0.43340  -0.43241  -0.43066
 Alpha  occ. eigenvalues --   -0.42916  -0.42875  -0.42625  -0.42168  -0.41928
 Alpha  occ. eigenvalues --   -0.41885  -0.41558  -0.41524  -0.41417  -0.40960
 Alpha  occ. eigenvalues --   -0.40849  -0.40747  -0.40623  -0.40560  -0.40300
 Alpha  occ. eigenvalues --   -0.40214  -0.39829  -0.39188  -0.38844  -0.38804
 Alpha  occ. eigenvalues --   -0.38756  -0.38527  -0.38281  -0.38152  -0.37959
 Alpha  occ. eigenvalues --   -0.37821  -0.37039  -0.36926  -0.36698  -0.36422
 Alpha  occ. eigenvalues --   -0.35936  -0.35829  -0.35638  -0.35441  -0.35404
 Alpha  occ. eigenvalues --   -0.35170  -0.34377  -0.33760  -0.33736  -0.33172
 Alpha  occ. eigenvalues --   -0.32671  -0.32042  -0.31812  -0.30064  -0.29607
 Alpha  occ. eigenvalues --   -0.29081  -0.29000  -0.27453  -0.27154  -0.22989
 Alpha  occ. eigenvalues --   -0.20747
 Alpha virt. eigenvalues --   -0.06827  -0.03465   0.01064   0.03406   0.05327
 Alpha virt. eigenvalues --    0.05781   0.06334   0.06524   0.06689   0.07470
 Alpha virt. eigenvalues --    0.07865   0.10508   0.10778   0.11094   0.11543

 Mulliken charges:
               1
     1  Mg   0.830073
     2  C    0.060346
     3  C   -0.214668
     4  C   -0.180452
     5  C   -0.186606
     6  N   -0.656078
     7  C    0.370403
     8  C   -0.151666
     9  C   -0.164593
    10  C    0.338522
    11  C   -0.295899
    12  C   -0.178826
    13  C   -0.247368
    14  C    0.576731
    15  O   -0.480950
    16  O   -0.490998
    17  N   -0.662383
    18  C    0.312282
    19  C    0.020346
    20  C    0.026220
    21  C    0.236050
    22  C   -0.384723
    23  C   -0.075883
    24  C   -0.238081
    25  N   -0.669707
    26  C    0.300232
    27  C    0.033540
    28  C    0.066846
    29  C    0.229503
    30  C   -0.357232
    31  C   -0.281427
    32  C   -0.307392
    33  N   -0.712425
    34  C    0.292221
    35  C   -0.029368
    36  C    0.084725
    37  C    0.231242
    38  C   -0.388430
    39  C    0.362397
    40  O   -0.504150
    41  C   -0.307363
    42  C    0.581688
    43  O   -0.504340
    44  O   -0.447958
    45  C   -0.085817
    46  C    0.065838
    47  C   -0.142748
    48  C    0.108870
    49  C   -0.357510
    50  C   -0.221770
    51  C   -0.187137
    52  C   -0.173764
    53  C   -0.080090
    54  C   -0.304203
    55  C   -0.157571
    56  C   -0.178517
    57  C   -0.185510
    58  C   -0.060369
    59  C   -0.309926
    60  C   -0.165017
    61  C   -0.193244
    62  C   -0.150860
    63  C   -0.068410
    64  C   -0.289977
    65  C   -0.307450
    66  H    0.107193
    67  H    0.094919
    68  H    0.099397
    69  H    0.138422
    70  H    0.081000
    71  H    0.097008
    72  H    0.106157
    73  H    0.114934
    74  H    0.135188
    75  H    0.113326
    76  H    0.148834
    77  H    0.155654
    78  H    0.122241
    79  H    0.106309
    80  H    0.127893
    81  H    0.106602
    82  H    0.096006
    83  H    0.111107
    84  H    0.105465
    85  H    0.126329
    86  H    0.103567
    87  H    0.102338
    88  H    0.111616
    89  H    0.106201
    90  H    0.086819
    91  H    0.127137
    92  H    0.136330
    93  H    0.143815
    94  H    0.137107
    95  H    0.176919
    96  H    0.135063
    97  H    0.149649
    98  H    0.144708
    99  H    0.099957
   100  H    0.111301
   101  H    0.092181
   102  H    0.109183
   103  H    0.113817
   104  H    0.099724
   105  H    0.106609
   106  H    0.081075
   107  H    0.087753
   108  H    0.092933
   109  H    0.094125
   110  H    0.107524
   111  H    0.085815
   112  H    0.118203
   113  H    0.073115
   114  H    0.109335
   115  H    0.102494
   116  H    0.071940
   117  H    0.070246
   118  H    0.093890
   119  H    0.084782
   120  H    0.096817
   121  H    0.093410
   122  H    0.079133
   123  H    0.095464
   124  H    0.102205
   125  H    0.090776
   126  H    0.095356
   127  H    0.088317
   128  H    0.103008
   129  H    0.070199
   130  H    0.080546
   131  H    0.097299
   132  H    0.106360
   133  H    0.098248
   134  H    0.062772
   135  H    0.113018
   136  H    0.058250
   137  H    0.118348
 Sum of Mulliken charges =   0.00000

 Dipole moment (field-independent basis, Debye):
    X=              0.5374    Y=              4.8282    Z=              0.3298  Tot=              4.8692
 Quadrupole moment (field-independent basis, Debye-Ang):
   XX=           -336.7200   YY=           -387.0957   ZZ=           -402.4531
   XY=            -24.7330   XZ=             16.3741   YZ=             -3.1903

 Normal termination of Gaussian 09 at Sat Jun 29 13:37:07 2019.
