 Gaussian 09, Revision D.01,
 Gaussian 09:  ES64L-G09RevD.01 24-Apr-2013

 -------------------------------------
 # td=(NStates=1) CAM-B3LYP/6-31G(d,p)
 -------------------------------------

 --
 TD
 --
 Symbolic Z-matrix:
 Charge =  0 Multiplicity = 1

                         Standard orientation:
 ---------------------------------------------------------------------
 Center     Atomic      Atomic             Coordinates (Angstroms)
 Number     Number       Type             X           Y           Z
 ---------------------------------------------------------------------
      1         12           0       -7.229608    0.626524    0.182928
      2          6           0       -4.853774   -1.913093    0.483712
      3          6           0       -4.873418    2.813170    1.118356
      4          6           0       -9.534272    2.955710   -0.330772
      5          6           0       -9.581679   -1.933577   -0.797133
      6          7           0       -5.155944    0.418682    0.645516
      7          6           0       -4.361160   -0.697788    0.723494
      8          6           0       -2.942071   -0.341465    1.144978
      9          6           0       -3.011096    1.148795    1.579063
     10          6           0       -4.442085    1.501305    1.060465
     11          6           0       -2.898347    1.325656    3.103810
     12          6           0       -1.864879   -0.623527   -0.008228
     13          6           0       -0.460349   -0.370584    0.512102
     14          6           0        0.498418   -0.603537   -0.601164
     15          8           0        0.297285   -0.923044   -1.732088
     16          8           0        1.761838   -0.263965   -0.091547
     17          7           0       -7.281821    2.660277    0.386082
     18          6           0       -6.153572    3.389506    0.849970
     19          6           0       -6.606185    4.770379    0.870766
     20          6           0       -7.908033    4.828796    0.309243
     21          6           0       -8.295473    3.468619    0.023379
     22          6           0       -5.587644    5.902220    1.305741
     23          6           0       -8.742140    5.961854    0.244219
     24          6           0       -8.307994    7.319522    0.045513
     25          7           0       -9.198230    0.557085   -0.475573
     26          6           0       -9.969245    1.702136   -0.657159
     27          6           0      -11.253863    1.390559   -1.131169
     28          6           0      -11.254241   -0.008920   -1.197226
     29          6           0       -9.979043   -0.507669   -0.809639
     30          6           0      -12.451486    2.325766   -1.258732
     31          6           0      -12.447413   -0.893390   -1.672556
     32          6           0      -12.210483   -1.522665   -3.080983
     33          7           0       -7.251904   -1.410922   -0.001969
     34          6           0       -8.249912   -2.342740   -0.466862
     35          6           0       -7.814289   -3.665079   -0.442352
     36          6           0       -6.525187   -3.625329   -0.051790
     37          6           0       -6.222148   -2.184604    0.165947
     38          6           0       -8.672345   -4.736525   -0.950208
     39          6           0       -5.317693   -4.431641    0.219666
     40          8           0       -5.145445   -5.603374    0.195938
     41          6           0       -4.130952   -3.337938    0.568067
     42          6           0       -3.532587   -3.677316    1.843957
     43          8           0       -3.632668   -3.124227    2.900177
     44          8           0       -2.457029   -4.538571    1.717857
     45          6           0       -1.886546   -4.999410    2.962321
     46          6           0        2.855368   -0.381451   -1.200354
     47          6           0        4.184260   -0.204943   -0.549552
     48          6           0        5.230804    0.420510   -1.004680
     49          6           0        5.284328    1.200865   -2.331196
     50          6           0        6.492003    0.430905   -0.174631
     51          6           0        7.561369   -0.099824   -1.011332
     52          6           0        8.962208   -0.079527   -0.185734
     53          6           0       10.287472   -0.429689   -1.023994
     54          6           0       10.067213   -1.777153   -1.656154
     55          6           0       11.526955   -0.219657   -0.119165
     56          6           0       12.882094   -0.461316   -0.807288
     57          6           0       13.950798   -0.129767    0.221523
     58          6           0       15.396815   -0.378389   -0.371909
     59          6           0       15.623801   -1.824256   -0.679569
     60          6           0       16.384386    0.330225    0.505039
     61          6           0       17.799377    0.413485   -0.151975
     62          6           0       18.835748    1.162616    0.834480
     63          6           0       20.272420    1.270102    0.305365
     64          6           0       20.373591    1.997370   -1.071105
     65          6           0       21.122137    1.929508    1.382178
     66          1           0       -4.106949    3.464070    1.515146
     67          1           0      -10.511762    3.660751   -0.444920
     68          1           0      -10.326572   -2.667675   -0.810937
     69          1           0       -2.582104   -0.920744    2.027136
     70          1           0       -2.176253    1.648642    1.045549
     71          1           0       -1.712973    0.979638    3.377908
     72          1           0       -3.024949    2.440991    3.347278
     73          1           0       -3.432666    0.669806    3.555059
     74          1           0       -1.985183   -1.611680   -0.378069
     75          1           0       -2.086601    0.063640   -0.817648
     76          1           0       -0.289956    0.603453    0.873770
     77          1           0       -0.271348   -0.852252    1.495782
     78          1           0       -4.866385    6.338603    0.530804
     79          1           0       -6.045878    6.655395    1.836962
     80          1           0       -4.957051    5.448106    1.962577
     81          1           0       -9.804030    5.939819    0.165744
     82          1           0       -9.033705    8.170318   -0.128937
     83          1           0       -7.198005    7.532686    0.072254
     84          1           0      -12.188500    3.074736   -2.074812
     85          1           0      -13.411605    2.081034   -1.352910
     86          1           0      -12.239808    3.106834   -0.357090
     87          1           0      -12.684804   -1.619662   -0.703022
     88          1           0      -13.223133   -0.148749   -1.658600
     89          1           0      -13.323121   -1.956107   -3.473683
     90          1           0      -11.991576   -0.668758   -4.076886
     91          1           0      -11.382730   -2.364955   -3.049080
     92          1           0       -8.854883   -4.803130   -2.133678
     93          1           0       -7.759060   -5.567791   -0.597525
     94          1           0       -9.645748   -4.701065   -0.424482
     95          1           0       -3.322207   -3.318555   -0.281389
     96          1           0       -1.543191   -4.136799    3.691560
     97          1           0       -2.897815   -5.486886    3.502610
     98          1           0       -1.395109   -5.721468    2.798012
     99          1           0        2.856830   -1.390487   -1.627085
    100          1           0        2.687347    0.409130   -1.909064
    101          1           0        4.268794   -0.965290    0.413315
    102          1           0        4.324241    1.208838   -2.794511
    103          1           0        5.678861    2.232998   -2.172582
    104          1           0        6.126422    0.757195   -2.950799
    105          1           0        6.613209    1.393169    0.010725
    106          1           0        6.449336   -0.250982    0.903454
    107          1           0        7.633783   -0.960219   -1.400016
    108          1           0        7.719527    0.783182   -1.752086
    109          1           0        9.084719    0.956325    0.238443
    110          1           0        8.713408   -0.732279    0.765950
    111          1           0       10.256958    0.300736   -1.713064
    112          1           0        9.158276   -2.046793   -2.100092
    113          1           0       10.909201   -2.033525   -2.294473
    114          1           0       10.016680   -2.343741   -0.713298
    115          1           0       11.522358    0.766613    0.417157
    116          1           0       11.338488   -0.964220    0.655594
    117          1           0       13.113990   -1.544635   -0.946744
    118          1           0       13.140897    0.265169   -1.700154
    119          1           0       13.740976    1.139736    0.305991
    120          1           0       14.015581   -0.476015    1.197351
    121          1           0       15.408168    0.320583   -1.230001
    122          1           0       15.300163   -2.417317    0.241710
    123          1           0       15.141809   -1.905515   -1.674171
    124          1           0       16.706496   -2.200976   -0.781878
    125          1           0       16.046418    1.285060    0.757948
    126          1           0       16.262572   -0.193810    1.523299
    127          1           0       18.273246   -0.467750   -0.363689
    128          1           0       17.854321    0.773371   -1.136364
    129          1           0       18.293922    2.130172    1.019640
    130          1           0       18.817524    0.755901    1.864491
    131          1           0       20.699584    0.161480    0.159214
    132          1           0       20.249678    3.122914   -1.103284
    133          1           0       21.291926    2.024957   -1.572319
    134          1           0       19.674935    1.754443   -1.885033
    135          1           0       21.053048    1.221332    2.273688
    136          1           0       22.140062    1.972379    1.011537
    137          1           0       20.570884    3.016078    1.498024
 ---------------------------------------------------------------------

 SCF Done:  E(RCAM-B3LYP) =  -2932.58096805     A.U. after   15 cycles

 Excitation energies and oscillator strengths:

 Excited State   1:      Singlet-A      1.9738 eV  628.15 nm  f=0.2675  <S**2>=0.000
     240 -> 243        0.21506
     241 -> 242        0.65888
 This state for optimization and/or second-order correction.
 Total Energy, E(TD-HF/TD-KS) =  -2932.50843180
 Copying the excited state density for this state as the 1-particle RhoCI density.

 The electronic state is 1-A.
 Alpha  occ. eigenvalues --  -46.84641 -19.24834 -19.24623 -19.22239 -19.21661
 Alpha  occ. eigenvalues --  -19.20631 -14.41647 -14.40356 -14.39154 -14.39113
 Alpha  occ. eigenvalues --  -10.38932 -10.38630 -10.36777 -10.31467 -10.30921
 Alpha  occ. eigenvalues --  -10.30573 -10.30552 -10.30378 -10.30213 -10.30070
 Alpha  occ. eigenvalues --  -10.29809 -10.29501 -10.29176 -10.29099 -10.28968
 Alpha  occ. eigenvalues --  -10.28930 -10.28282 -10.28272 -10.28204 -10.28172
 Alpha  occ. eigenvalues --  -10.27919 -10.27508 -10.27418 -10.27385 -10.27349
 Alpha  occ. eigenvalues --  -10.27330 -10.27231 -10.27111 -10.27048 -10.26894
 Alpha  occ. eigenvalues --  -10.26860 -10.26780 -10.26740 -10.26538 -10.26504
 Alpha  occ. eigenvalues --  -10.26431 -10.26320 -10.26050 -10.25985 -10.25941
 Alpha  occ. eigenvalues --  -10.25928 -10.25867 -10.25816 -10.25815 -10.25770
 Alpha  occ. eigenvalues --  -10.25517 -10.25241 -10.25168 -10.25087 -10.24945
 Alpha  occ. eigenvalues --  -10.24578 -10.24456 -10.24327 -10.23908 -10.23888
 Alpha  occ. eigenvalues --   -3.13584  -1.88302  -1.87805  -1.87770  -1.17599
 Alpha  occ. eigenvalues --   -1.16320  -1.14262  -1.08102  -1.07710  -1.05185
 Alpha  occ. eigenvalues --   -1.03555  -1.03093  -1.01975  -0.92055  -0.91588
 Alpha  occ. eigenvalues --   -0.90738  -0.90305  -0.89938  -0.89073  -0.88433
 Alpha  occ. eigenvalues --   -0.87970  -0.87835  -0.87552  -0.87068  -0.86142
 Alpha  occ. eigenvalues --   -0.85201  -0.84044  -0.83447  -0.83204  -0.81343
 Alpha  occ. eigenvalues --   -0.81096  -0.80776  -0.80262  -0.79914  -0.78281
 Alpha  occ. eigenvalues --   -0.77241  -0.76784  -0.76455  -0.76099  -0.75957
 Alpha  occ. eigenvalues --   -0.75755  -0.75446  -0.74664  -0.73512  -0.72501
 Alpha  occ. eigenvalues --   -0.71593  -0.70673  -0.69387  -0.68529  -0.68213
 Alpha  occ. eigenvalues --   -0.67413  -0.66733  -0.65469  -0.64971  -0.64626
 Alpha  occ. eigenvalues --   -0.63996  -0.63519  -0.62851  -0.62608  -0.61506
 Alpha  occ. eigenvalues --   -0.61325  -0.60126  -0.59969  -0.59858  -0.59010
 Alpha  occ. eigenvalues --   -0.58501  -0.57994  -0.57732  -0.57256  -0.56283
 Alpha  occ. eigenvalues --   -0.55955  -0.55424  -0.55323  -0.55190  -0.54638
 Alpha  occ. eigenvalues --   -0.54432  -0.54281  -0.53853  -0.53381  -0.52962
 Alpha  occ. eigenvalues --   -0.52745  -0.52522  -0.52426  -0.52205  -0.51835
 Alpha  occ. eigenvalues --   -0.51779  -0.51159  -0.51046  -0.50935  -0.50542
 Alpha  occ. eigenvalues --   -0.50044  -0.49948  -0.49721  -0.49571  -0.49446
 Alpha  occ. eigenvalues --   -0.49220  -0.48972  -0.48781  -0.48507  -0.48335
 Alpha  occ. eigenvalues --   -0.48153  -0.48130  -0.48028  -0.47860  -0.47056
 Alpha  occ. eigenvalues --   -0.47028  -0.46617  -0.46379  -0.46297  -0.46149
 Alpha  occ. eigenvalues --   -0.45981  -0.45884  -0.45721  -0.45599  -0.45451
 Alpha  occ. eigenvalues --   -0.45420  -0.45292  -0.45098  -0.44572  -0.44307
 Alpha  occ. eigenvalues --   -0.43895  -0.43889  -0.43487  -0.43376  -0.43025
 Alpha  occ. eigenvalues --   -0.42801  -0.42595  -0.42490  -0.42295  -0.42259
 Alpha  occ. eigenvalues --   -0.42032  -0.41906  -0.41503  -0.41437  -0.40979
 Alpha  occ. eigenvalues --   -0.40928  -0.40789  -0.40499  -0.40267  -0.40219
 Alpha  occ. eigenvalues --   -0.40184  -0.40002  -0.39507  -0.39192  -0.39123
 Alpha  occ. eigenvalues --   -0.38916  -0.38546  -0.38308  -0.37415  -0.37095
 Alpha  occ. eigenvalues --   -0.37032  -0.36951  -0.36811  -0.36593  -0.36435
 Alpha  occ. eigenvalues --   -0.36233  -0.36015  -0.35908  -0.35728  -0.35437
 Alpha  occ. eigenvalues --   -0.35007  -0.34615  -0.34382  -0.34219  -0.33569
 Alpha  occ. eigenvalues --   -0.33297  -0.32457  -0.32307  -0.31743  -0.31068
 Alpha  occ. eigenvalues --   -0.30666  -0.29970  -0.27758  -0.25953  -0.23602
 Alpha  occ. eigenvalues --   -0.21444
 Alpha virt. eigenvalues --   -0.07191  -0.03621   0.01316   0.03451   0.04994
 Alpha virt. eigenvalues --    0.05980   0.06202   0.06812   0.06950   0.07536
 Alpha virt. eigenvalues --    0.08037   0.10173   0.10798   0.11237   0.11365

 Mulliken charges:
               1
     1  Mg   0.816667
     2  C    0.023405
     3  C   -0.204139
     4  C   -0.165623
     5  C   -0.164585
     6  N   -0.659510
     7  C    0.329258
     8  C   -0.177246
     9  C   -0.144273
    10  C    0.343312
    11  C   -0.272138
    12  C   -0.177681
    13  C   -0.283224
    14  C    0.637946
    15  O   -0.459261
    16  O   -0.533535
    17  N   -0.725078
    18  C    0.310295
    19  C   -0.015653
    20  C    0.024428
    21  C    0.319601
    22  C   -0.359608
    23  C   -0.113193
    24  C   -0.254010
    25  N   -0.701960
    26  C    0.303708
    27  C    0.068012
    28  C   -0.056535
    29  C    0.303207
    30  C   -0.372593
    31  C   -0.211213
    32  C   -0.267297
    33  N   -0.698674
    34  C    0.230336
    35  C    0.053030
    36  C   -0.009705
    37  C    0.329342
    38  C   -0.354879
    39  C    0.365280
    40  O   -0.420415
    41  C   -0.336840
    42  C    0.639390
    43  O   -0.457569
    44  O   -0.486942
    45  C   -0.027281
    46  C    0.011680
    47  C   -0.145379
    48  C    0.120865
    49  C   -0.366716
    50  C   -0.179647
    51  C   -0.156664
    52  C   -0.212583
    53  C   -0.064134
    54  C   -0.315603
    55  C   -0.165246
    56  C   -0.173694
    57  C   -0.169227
    58  C   -0.068912
    59  C   -0.308620
    60  C   -0.166172
    61  C   -0.191191
    62  C   -0.169681
    63  C   -0.052110
    64  C   -0.328472
    65  C   -0.282784
    66  H    0.076427
    67  H    0.073713
    68  H    0.101576
    69  H    0.123145
    70  H    0.108040
    71  H    0.063227
    72  H    0.108164
    73  H    0.144039
    74  H    0.123742
    75  H    0.120911
    76  H    0.148862
    77  H    0.141852
    78  H    0.113721
    79  H    0.127483
    80  H    0.116956
    81  H    0.094205
    82  H    0.106472
    83  H    0.103769
    84  H    0.122175
    85  H    0.130876
    86  H    0.103874
    87  H    0.088800
    88  H    0.106272
    89  H    0.079606
    90  H    0.082309
    91  H    0.106991
    92  H    0.129710
    93  H    0.121923
    94  H    0.128490
    95  H    0.166793
    96  H    0.123921
    97  H    0.086713
    98  H    0.112736
    99  H    0.141603
   100  H    0.120566
   101  H    0.077181
   102  H    0.114976
   103  H    0.113629
   104  H    0.128602
   105  H    0.116493
   106  H    0.066412
   107  H    0.103279
   108  H    0.079645
   109  H    0.076286
   110  H    0.064023
   111  H    0.091761
   112  H    0.114434
   113  H    0.103768
   114  H    0.097638
   115  H    0.093384
   116  H    0.095876
   117  H    0.106557
   118  H    0.091157
   119  H    0.034026
   120  H    0.099473
   121  H    0.078474
   122  H    0.098089
   123  H    0.118629
   124  H    0.099562
   125  H    0.100793
   126  H    0.063061
   127  H    0.098683
   128  H    0.097290
   129  H    0.082257
   130  H    0.087678
   131  H    0.068857
   132  H    0.087974
   133  H    0.107399
   134  H    0.100989
   135  H    0.098555
   136  H    0.104567
   137  H    0.086608
 Sum of Mulliken charges =   0.00000

 Dipole moment (field-independent basis, Debye):
    X=              1.3994    Y=              3.1931    Z=             -0.5795  Tot=              3.5341
 Quadrupole moment (field-independent basis, Debye-Ang):
   XX=           -330.3669   YY=           -400.4939   ZZ=           -399.3544
   XY=            -15.1821   XZ=              0.1172   YZ=             -2.6598

 Normal termination of Gaussian 09 at Sat Jun 29 19:07:13 2019.
