 Gaussian 09, Revision D.01,
 Gaussian 09:  ES64L-G09RevD.01 24-Apr-2013

 -------------------------------------
 # td=(NStates=1) CAM-B3LYP/6-31G(d,p)
 -------------------------------------

 --
 TD
 --
 Symbolic Z-matrix:
 Charge =  0 Multiplicity = 1

                         Standard orientation:
 ---------------------------------------------------------------------
 Center     Atomic      Atomic             Coordinates (Angstroms)
 Number     Number       Type             X           Y           Z
 ---------------------------------------------------------------------
      1         12           0       -7.134932    0.603715    0.119677
      2          6           0       -4.899763   -2.046904    0.527825
      3          6           0       -4.822168    2.733136    1.240503
      4          6           0       -9.356580    3.098893   -0.324140
      5          6           0       -9.613813   -1.746967   -0.902219
      6          7           0       -5.174108    0.412742    0.693373
      7          6           0       -4.376877   -0.729664    0.773916
      8          6           0       -2.966803   -0.511415    1.283150
      9          6           0       -3.120623    0.996778    1.722854
     10          6           0       -4.488038    1.493345    1.141788
     11          6           0       -3.168796    1.201248    3.225065
     12          6           0       -2.016394   -0.630316    0.061592
     13          6           0       -0.601221   -0.433229    0.498095
     14          6           0        0.475560   -0.546542   -0.575568
     15          8           0        0.220554   -0.960739   -1.741722
     16          8           0        1.746366   -0.446629   -0.069535
     17          7           0       -7.137076    2.570878    0.416614
     18          6           0       -5.983498    3.310414    0.920823
     19          6           0       -6.398247    4.731989    0.970927
     20          6           0       -7.644778    4.816063    0.474256
     21          6           0       -8.165276    3.415054    0.210371
     22          6           0       -5.552050    5.859494    1.576664
     23          6           0       -8.413597    5.980602    0.249856
     24          6           0       -8.003583    7.222408    0.127076
     25          7           0       -9.075325    0.641010   -0.442811
     26          6           0       -9.842620    1.890152   -0.694479
     27          6           0      -11.123623    1.493481   -1.117857
     28          6           0      -11.187960    0.117707   -1.357357
     29          6           0       -9.853726   -0.293911   -0.893889
     30          6           0      -12.222599    2.569845   -1.437855
     31          6           0      -12.360294   -0.589999   -1.900973
     32          6           0      -12.070522   -0.963873   -3.385326
     33          7           0       -7.342380   -1.416919   -0.108065
     34          6           0       -8.349728   -2.197957   -0.572679
     35          6           0       -7.935466   -3.646562   -0.495984
     36          6           0       -6.565220   -3.589013   -0.102009
     37          6           0       -6.218159   -2.240288    0.138457
     38          6           0       -8.687998   -4.926707   -0.858978
     39          6           0       -5.415129   -4.361117    0.186806
     40          8           0       -5.262440   -5.595371    0.173420
     41          6           0       -4.268028   -3.339732    0.519314
     42          6           0       -3.503003   -3.811979    1.853162
     43          8           0       -3.706451   -3.332507    2.958334
     44          8           0       -2.696390   -4.765543    1.572229
     45          6           0       -2.066360   -5.291547    2.782021
     46          6           0        2.754694   -0.450395   -1.155382
     47          6           0        4.120686   -0.443089   -0.606031
     48          6           0        5.104200    0.433978   -0.935285
     49          6           0        5.083839    1.386243   -2.124941
     50          6           0        6.464698    0.458902   -0.123772
     51          6           0        7.617821   -0.046627   -0.909531
     52          6           0        8.917118   -0.136012   -0.131752
     53          6           0       10.236700   -0.485838   -0.854151
     54          6           0       10.172699   -1.983175   -1.326885
     55          6           0       11.497969   -0.264112    0.009245
     56          6           0       12.778962   -0.235918   -0.735448
     57          6           0       14.010135   -0.036120    0.128101
     58          6           0       15.415485   -0.027173   -0.562931
     59          6           0       15.650251   -1.539541   -1.064302
     60          6           0       16.455665    0.436339    0.364536
     61          6           0       17.816713    0.455501   -0.137332
     62          6           0       18.757500    1.166725    0.760602
     63          6           0       20.268431    1.197762    0.271172
     64          6           0       20.470720    1.788722   -1.081792
     65          6           0       21.125372    1.751332    1.281459
     66          1           0       -4.021489    3.358428    1.826779
     67          1           0      -10.048968    3.915244   -0.476151
     68          1           0      -10.389136   -2.475204   -1.127548
     69          1           0       -2.605614   -1.044166    2.219226
     70          1           0       -2.458346    1.699890    1.015570
     71          1           0       -2.152128    1.011134    3.671304
     72          1           0       -3.308436    2.130439    3.568007
     73          1           0       -3.784352    0.399796    3.964061
     74          1           0       -2.026098   -1.520440   -0.308430
     75          1           0       -2.443355   -0.003360   -0.786336
     76          1           0       -0.266873    0.438119    0.978070
     77          1           0       -0.384562   -1.181698    1.418860
     78          1           0       -5.043585    6.246209    0.882163
     79          1           0       -6.059897    6.495514    2.125950
     80          1           0       -4.791518    5.599648    2.342406
     81          1           0       -9.479812    6.094775    0.167371
     82          1           0       -8.705082    8.114728   -0.063913
     83          1           0       -6.978445    7.405497   -0.039705
     84          1           0      -12.076726    3.246808   -2.160180
     85          1           0      -13.073030    2.004613   -1.656080
     86          1           0      -12.504856    3.058594   -0.501696
     87          1           0      -12.804734   -1.534872   -1.356323
     88          1           0      -13.225038    0.028887   -2.016355
     89          1           0      -13.083900   -1.404303   -3.766405
     90          1           0      -12.063956   -0.119932   -4.024036
     91          1           0      -11.268160   -1.643574   -3.420581
     92          1           0       -9.360495   -4.567216   -1.778317
     93          1           0       -7.964954   -5.703694   -0.852415
     94          1           0       -9.591741   -5.211793   -0.155802
     95          1           0       -3.366376   -3.290799   -0.251410
     96          1           0       -1.694597   -4.453929    3.464368
     97          1           0       -2.859115   -5.840460    3.483106
     98          1           0       -1.245838   -5.924643    2.340856
     99          1           0        2.560303   -1.290442   -1.923084
    100          1           0        2.249008    0.309321   -1.766872
    101          1           0        4.192738   -1.009352    0.227760
    102          1           0        4.062954    1.316442   -2.671655
    103          1           0        5.116259    2.522763   -1.769565
    104          1           0        5.793480    1.095602   -2.996422
    105          1           0        6.688964    1.546576    0.186317
    106          1           0        6.406935   -0.058827    0.819329
    107          1           0        7.250598   -1.016574   -1.268065
    108          1           0        7.813030    0.472149   -1.849184
    109          1           0        9.099488    0.802819    0.340538
    110          1           0        8.788957   -0.895795    0.550289
    111          1           0       10.141388    0.109862   -1.807222
    112          1           0        9.431034   -2.044201   -1.941417
    113          1           0       11.026823   -2.384429   -1.796812
    114          1           0       10.017794   -2.625761   -0.535316
    115          1           0       11.206389    0.766586    0.253799
    116          1           0       11.358898   -1.098947    0.850088
    117          1           0       12.822541   -1.219838   -1.341230
    118          1           0       12.806254    0.687895   -1.504775
    119          1           0       13.825743    0.900059    0.763603
    120          1           0       14.146716   -0.707631    1.109353
    121          1           0       15.425043    0.746970   -1.401178
    122          1           0       15.662012   -2.188274   -0.041716
    123          1           0       15.129136   -2.111113   -1.888923
    124          1           0       16.639835   -1.709528   -1.360496
    125          1           0       16.241504    1.466970    0.648886
    126          1           0       16.432246   -0.319258    1.061466
    127          1           0       18.316057   -0.401316   -0.531955
    128          1           0       17.853598    1.095698   -1.076778
    129          1           0       18.293116    2.377211    0.859323
    130          1           0       18.613670    0.783425    1.844881
    131          1           0       20.756025    0.100655    0.327867
    132          1           0       20.160156    3.018257   -0.946934
    133          1           0       21.675221    1.742355   -1.248956
    134          1           0       19.700322    1.647917   -1.889088
    135          1           0       20.970791    1.034683    2.090051
    136          1           0       22.130328    1.769300    1.180704
    137          1           0       21.038080    2.784930    1.640541
 ---------------------------------------------------------------------

 SCF Done:  E(RCAM-B3LYP) =  -2932.62094548     A.U. after   16 cycles

 Excitation energies and oscillator strengths:

 Excited State   1:      Singlet-A      1.9533 eV  634.75 nm  f=0.2513  <S**2>=0.000
     240 -> 243       -0.23353
     241 -> 242        0.65368
 This state for optimization and/or second-order correction.
 Total Energy, E(TD-HF/TD-KS) =  -2932.54916439
 Copying the excited state density for this state as the 1-particle RhoCI density.

 The electronic state is 1-A.
 Alpha  occ. eigenvalues --  -46.82671 -19.28086 -19.26931 -19.21240 -19.20476
 Alpha  occ. eigenvalues --  -19.19970 -14.42067 -14.39278 -14.39057 -14.38799
 Alpha  occ. eigenvalues --  -10.39978 -10.39264 -10.34848 -10.33388 -10.32136
 Alpha  occ. eigenvalues --  -10.31879 -10.29879 -10.29775 -10.29500 -10.29379
 Alpha  occ. eigenvalues --  -10.29205 -10.29082 -10.28999 -10.28800 -10.28679
 Alpha  occ. eigenvalues --  -10.28560 -10.28496 -10.28390 -10.28304 -10.28024
 Alpha  occ. eigenvalues --  -10.27808 -10.27414 -10.27358 -10.27304 -10.27056
 Alpha  occ. eigenvalues --  -10.26915 -10.26883 -10.26821 -10.26783 -10.26647
 Alpha  occ. eigenvalues --  -10.26614 -10.26612 -10.26486 -10.26439 -10.26173
 Alpha  occ. eigenvalues --  -10.26128 -10.26115 -10.25941 -10.25923 -10.25817
 Alpha  occ. eigenvalues --  -10.25793 -10.25698 -10.25680 -10.25329 -10.25271
 Alpha  occ. eigenvalues --  -10.25148 -10.25078 -10.24949 -10.24237 -10.24100
 Alpha  occ. eigenvalues --  -10.23982 -10.23660 -10.23648 -10.22743 -10.21502
 Alpha  occ. eigenvalues --   -3.12008  -1.86699  -1.86264  -1.86194  -1.20871
 Alpha  occ. eigenvalues --   -1.16862  -1.09307  -1.09049  -1.07344  -1.03937
 Alpha  occ. eigenvalues --   -1.02807  -1.02091  -1.01017  -0.93780  -0.91845
 Alpha  occ. eigenvalues --   -0.91312  -0.90910  -0.89877  -0.89720  -0.89603
 Alpha  occ. eigenvalues --   -0.89057  -0.88294  -0.87647  -0.86583  -0.86074
 Alpha  occ. eigenvalues --   -0.85588  -0.84610  -0.84037  -0.83595  -0.82738
 Alpha  occ. eigenvalues --   -0.81850  -0.81426  -0.81013  -0.80104  -0.78685
 Alpha  occ. eigenvalues --   -0.78313  -0.77476  -0.76537  -0.76151  -0.76097
 Alpha  occ. eigenvalues --   -0.75666  -0.75011  -0.74727  -0.73991  -0.72163
 Alpha  occ. eigenvalues --   -0.72039  -0.71360  -0.69406  -0.68968  -0.68118
 Alpha  occ. eigenvalues --   -0.66783  -0.66673  -0.65470  -0.64784  -0.64614
 Alpha  occ. eigenvalues --   -0.63931  -0.63707  -0.62760  -0.62356  -0.62247
 Alpha  occ. eigenvalues --   -0.61659  -0.61074  -0.60718  -0.59785  -0.58897
 Alpha  occ. eigenvalues --   -0.58387  -0.58176  -0.57932  -0.56706  -0.56568
 Alpha  occ. eigenvalues --   -0.56382  -0.56337  -0.55510  -0.55419  -0.55324
 Alpha  occ. eigenvalues --   -0.54369  -0.54340  -0.54241  -0.54029  -0.53243
 Alpha  occ. eigenvalues --   -0.53120  -0.52946  -0.52786  -0.52444  -0.52172
 Alpha  occ. eigenvalues --   -0.51822  -0.51720  -0.51215  -0.51033  -0.50754
 Alpha  occ. eigenvalues --   -0.50502  -0.50165  -0.49954  -0.49809  -0.49710
 Alpha  occ. eigenvalues --   -0.49470  -0.49160  -0.48889  -0.48533  -0.48405
 Alpha  occ. eigenvalues --   -0.48248  -0.48195  -0.47862  -0.47637  -0.47279
 Alpha  occ. eigenvalues --   -0.47149  -0.46668  -0.46582  -0.46341  -0.46112
 Alpha  occ. eigenvalues --   -0.45803  -0.45650  -0.45241  -0.45111  -0.44969
 Alpha  occ. eigenvalues --   -0.44746  -0.44456  -0.44432  -0.43955  -0.43795
 Alpha  occ. eigenvalues --   -0.43574  -0.43543  -0.43370  -0.43249  -0.42981
 Alpha  occ. eigenvalues --   -0.42922  -0.42798  -0.42575  -0.42469  -0.42135
 Alpha  occ. eigenvalues --   -0.42087  -0.41972  -0.41755  -0.41651  -0.41478
 Alpha  occ. eigenvalues --   -0.41465  -0.41291  -0.40958  -0.40943  -0.39947
 Alpha  occ. eigenvalues --   -0.39759  -0.39658  -0.39578  -0.39232  -0.39145
 Alpha  occ. eigenvalues --   -0.38915  -0.38410  -0.38392  -0.37778  -0.37687
 Alpha  occ. eigenvalues --   -0.37617  -0.37293  -0.37073  -0.36918  -0.36736
 Alpha  occ. eigenvalues --   -0.36706  -0.36055  -0.35980  -0.35840  -0.35330
 Alpha  occ. eigenvalues --   -0.35121  -0.34833  -0.34667  -0.34404  -0.33807
 Alpha  occ. eigenvalues --   -0.33648  -0.32649  -0.32522  -0.31207  -0.30088
 Alpha  occ. eigenvalues --   -0.29987  -0.28704  -0.28155  -0.27130  -0.23322
 Alpha  occ. eigenvalues --   -0.20348
 Alpha virt. eigenvalues --   -0.06296  -0.03515   0.01019   0.03995   0.04714
 Alpha virt. eigenvalues --    0.05171   0.06230   0.06732   0.07456   0.08013
 Alpha virt. eigenvalues --    0.08324   0.10558   0.11055   0.11487   0.12140

 Mulliken charges:
               1
     1  Mg   0.797658
     2  C    0.133292
     3  C   -0.191177
     4  C   -0.185442
     5  C   -0.167392
     6  N   -0.649328
     7  C    0.281740
     8  C   -0.161622
     9  C   -0.142139
    10  C    0.361233
    11  C   -0.316633
    12  C   -0.153363
    13  C   -0.267890
    14  C    0.602703
    15  O   -0.495048
    16  O   -0.493300
    17  N   -0.740851
    18  C    0.283822
    19  C   -0.006968
    20  C    0.021653
    21  C    0.348222
    22  C   -0.349470
    23  C   -0.078927
    24  C   -0.266682
    25  N   -0.670734
    26  C    0.270098
    27  C   -0.019500
    28  C    0.061005
    29  C    0.305881
    30  C   -0.364055
    31  C   -0.269987
    32  C   -0.306505
    33  N   -0.727524
    34  C    0.303257
    35  C    0.013857
    36  C    0.041684
    37  C    0.260643
    38  C   -0.367127
    39  C    0.355287
    40  O   -0.489283
    41  C   -0.363984
    42  C    0.607493
    43  O   -0.495172
    44  O   -0.397435
    45  C   -0.101747
    46  C    0.009564
    47  C   -0.125866
    48  C    0.110560
    49  C   -0.360600
    50  C   -0.215569
    51  C   -0.179340
    52  C   -0.164566
    53  C   -0.099792
    54  C   -0.317035
    55  C   -0.144941
    56  C   -0.159151
    57  C   -0.155550
    58  C   -0.064357
    59  C   -0.321949
    60  C   -0.145164
    61  C   -0.176012
    62  C   -0.151546
    63  C   -0.035971
    64  C   -0.288938
    65  C   -0.297460
    66  H    0.090580
    67  H    0.092408
    68  H    0.101513
    69  H    0.132584
    70  H    0.101482
    71  H    0.096464
    72  H    0.125034
    73  H    0.114480
    74  H    0.130088
    75  H    0.120891
    76  H    0.138443
    77  H    0.123826
    78  H    0.137466
    79  H    0.136009
    80  H    0.096922
    81  H    0.093074
    82  H    0.093389
    83  H    0.092688
    84  H    0.132217
    85  H    0.107637
    86  H    0.116184
    87  H    0.096127
    88  H    0.114695
    89  H    0.077340
    90  H    0.123066
    91  H    0.119056
    92  H    0.112532
    93  H    0.162507
    94  H    0.121021
    95  H    0.147981
    96  H    0.140628
    97  H    0.136884
    98  H    0.130244
    99  H    0.135849
   100  H    0.125115
   101  H    0.103740
   102  H    0.102640
   103  H    0.112070
   104  H    0.124549
   105  H    0.086434
   106  H    0.103320
   107  H    0.097809
   108  H    0.091820
   109  H    0.087679
   110  H    0.097012
   111  H    0.071842
   112  H    0.108397
   113  H    0.098221
   114  H    0.098035
   115  H    0.090619
   116  H    0.083883
   117  H    0.089916
   118  H    0.080698
   119  H    0.074249
   120  H    0.065018
   121  H    0.070869
   122  H    0.074592
   123  H    0.108962
   124  H    0.109383
   125  H    0.101447
   126  H    0.096233
   127  H    0.105672
   128  H    0.074368
   129  H    0.039011
   130  H    0.080964
   131  H    0.069214
   132  H    0.055132
   133  H    0.094202
   134  H    0.115516
   135  H    0.097103
   136  H    0.103866
   137  H    0.092528
 Sum of Mulliken charges =   0.00000

 Dipole moment (field-independent basis, Debye):
    X=              2.3188    Y=              3.7172    Z=              0.5870  Tot=              4.4203
 Quadrupole moment (field-independent basis, Debye-Ang):
   XX=           -345.9639   YY=           -395.3425   ZZ=           -397.3171
   XY=            -22.4148   XZ=             12.8770   YZ=             -4.1798

 Normal termination of Gaussian 09 at Mon Jul  1 09:04:13 2019.
