 Gaussian 09, Revision D.01,
 Gaussian 09:  ES64L-G09RevD.01 24-Apr-2013

 -------------------------------------
 # td=(NStates=1) CAM-B3LYP/6-31G(d,p)
 -------------------------------------

 --
 TD
 --
 Symbolic Z-matrix:
 Charge =  0 Multiplicity = 1

                         Standard orientation:
 ---------------------------------------------------------------------
 Center     Atomic      Atomic             Coordinates (Angstroms)
 Number     Number       Type             X           Y           Z
 ---------------------------------------------------------------------
      1         12           0       -7.130164    0.584714    0.168477
      2          6           0       -4.858428   -1.951517    0.524887
      3          6           0       -4.765661    2.876715    1.185464
      4          6           0       -9.467073    3.034724   -0.328861
      5          6           0       -9.556664   -1.731094   -0.801530
      6          7           0       -5.136752    0.465573    0.752691
      7          6           0       -4.304562   -0.708925    0.775134
      8          6           0       -2.932013   -0.434052    1.335997
      9          6           0       -3.039005    1.031186    1.764181
     10          6           0       -4.376924    1.484728    1.220366
     11          6           0       -2.993395    1.369053    3.250231
     12          6           0       -1.846335   -0.682990    0.191435
     13          6           0       -0.486401   -0.394852    0.512786
     14          6           0        0.524093   -0.758041   -0.546838
     15          8           0        0.272827   -1.121634   -1.636657
     16          8           0        1.876109   -0.558874   -0.123764
     17          7           0       -7.023920    2.633353    0.381154
     18          6           0       -5.974157    3.397999    0.868481
     19          6           0       -6.460012    4.801266    0.869308
     20          6           0       -7.755890    4.871604    0.385736
     21          6           0       -8.145132    3.427285    0.220289
     22          6           0       -5.590992    6.069134    1.375788
     23          6           0       -8.546244    6.006950    0.339001
     24          6           0       -8.146913    7.304909    0.112658
     25          7           0       -8.996404    0.671688   -0.595709
     26          6           0       -9.862873    1.767808   -0.680379
     27          6           0      -11.242430    1.457252   -1.219757
     28          6           0      -11.207959    0.059043   -1.372722
     29          6           0       -9.901554   -0.359894   -1.064029
     30          6           0      -12.320203    2.441878   -1.390394
     31          6           0      -12.219487   -0.835202   -1.823594
     32          6           0      -12.086110   -1.062976   -3.363055
     33          7           0       -7.309176   -1.350110    0.059986
     34          6           0       -8.276119   -2.244192   -0.385286
     35          6           0       -7.900641   -3.627311   -0.517449
     36          6           0       -6.494125   -3.507248   -0.071297
     37          6           0       -6.267155   -2.123508    0.282058
     38          6           0       -8.672760   -4.773795   -0.985802
     39          6           0       -5.364120   -4.308596    0.161146
     40          8           0       -5.239704   -5.548402    0.162336
     41          6           0       -4.230069   -3.360773    0.574814
     42          6           0       -3.525877   -3.711486    1.894232
     43          8           0       -3.657355   -3.036036    2.928392
     44          8           0       -2.744468   -4.773859    1.831732
     45          6           0       -2.149900   -5.272160    2.952252
     46          6           0        2.843629   -0.656882   -1.284130
     47          6           0        4.166859   -0.437035   -0.671550
     48          6           0        5.192879    0.329494   -1.225384
     49          6           0        5.118129    1.241202   -2.344586
     50          6           0        6.507775    0.355117   -0.411752
     51          6           0        7.789981   -0.143041   -1.125518
     52          6           0        9.019012   -0.114570   -0.272675
     53          6           0       10.211087   -0.618273   -0.961722
     54          6           0        9.998326   -2.063031   -1.364069
     55          6           0       11.474264   -0.438770   -0.079632
     56          6           0       12.783748   -0.789404   -0.637412
     57          6           0       13.929108   -0.193781    0.267021
     58          6           0       15.251131   -0.282597   -0.331507
     59          6           0       15.674069   -1.681234   -0.670011
     60          6           0       16.390130    0.472932    0.407232
     61          6           0       17.744772    0.610589   -0.163076
     62          6           0       18.709544    1.388467    0.709750
     63          6           0       20.103890    1.457970    0.179197
     64          6           0       20.156886    2.325197   -1.021061
     65          6           0       20.907189    1.880488    1.271822
     66          1           0       -4.050378    3.543973    1.485004
     67          1           0      -10.157100    3.764169   -0.489554
     68          1           0      -10.339063   -2.309283   -0.987347
     69          1           0       -2.819929   -1.167923    2.260433
     70          1           0       -2.222259    1.701930    1.458612
     71          1           0       -2.104805    0.775032    3.671284
     72          1           0       -2.935661    2.255532    3.638753
     73          1           0       -3.850513    0.879199    3.775072
     74          1           0       -1.772328   -1.689968   -0.268634
     75          1           0       -2.203465   -0.101708   -0.619917
     76          1           0       -0.315679    0.547184    0.847006
     77          1           0       -0.122561   -1.032505    1.609339
     78          1           0       -4.909607    6.667793    0.425693
     79          1           0       -6.228192    6.739670    1.896871
     80          1           0       -4.765133    5.712515    1.905621
     81          1           0       -9.555503    6.034598    0.549451
     82          1           0       -8.929384    8.148440    0.111739
     83          1           0       -7.009634    7.652093    0.114693
     84          1           0      -12.137475    3.095565   -2.264579
     85          1           0      -13.376408    2.307699   -1.811567
     86          1           0      -12.488847    2.916112   -0.442879
     87          1           0      -12.176256   -1.828566   -1.249081
     88          1           0      -13.274276   -0.299591   -1.582661
     89          1           0      -13.019639   -1.455734   -3.678383
     90          1           0      -12.058584   -0.090986   -3.866965
     91          1           0      -11.115050   -1.648188   -3.783026
     92          1           0       -8.815684   -4.962349   -2.080299
     93          1           0       -8.000876   -5.725949   -0.736381
     94          1           0       -9.802297   -4.896451   -0.660458
     95          1           0       -3.553105   -3.599769   -0.312691
     96          1           0       -1.522142   -4.548035    3.409287
     97          1           0       -2.806376   -5.829615    3.662057
     98          1           0       -1.480077   -6.077809    2.664542
     99          1           0        2.657875   -1.643433   -1.728275
    100          1           0        2.628681    0.162492   -2.163692
    101          1           0        4.380366   -1.029385    0.278795
    102          1           0        3.952919    1.210148   -2.741911
    103          1           0        5.399323    2.294957   -1.976431
    104          1           0        5.664878    0.927994   -3.135566
    105          1           0        6.746771    1.407880   -0.033138
    106          1           0        6.274773   -0.255407    0.548211
    107          1           0        7.776022   -1.184271   -1.537723
    108          1           0        7.998519    0.484631   -1.933299
    109          1           0        9.030611    0.898021    0.226922
    110          1           0        8.752962   -0.848214    0.708298
    111          1           0       10.353815    0.092783   -1.786233
    112          1           0        9.333623   -2.220170   -2.199520
    113          1           0       11.091460   -2.303593   -1.878543
    114          1           0        9.809259   -2.863804   -0.571688
    115          1           0       11.289886    0.616101    0.081414
    116          1           0       11.251126   -0.746823    1.105348
    117          1           0       12.982525   -1.799655   -0.935682
    118          1           0       12.905149   -0.148035   -1.602962
    119          1           0       13.551498    0.909541    0.491217
    120          1           0       14.005915   -0.723977    1.076024
    121          1           0       15.225126    0.333388   -1.321121
    122          1           0       15.769864   -2.130643    0.363114
    123          1           0       14.765163   -2.353916   -1.060627
    124          1           0       16.608629   -1.756553   -1.300823
    125          1           0       16.034604    1.504731    0.531044
    126          1           0       16.492230    0.173348    1.468352
    127          1           0       18.068905   -0.322061   -0.435850
    128          1           0       17.616259    1.197047   -1.112661
    129          1           0       18.211537    2.222193    0.933142
    130          1           0       18.753127    0.896474    1.653459
    131          1           0       20.212974    0.282281   -0.017072
    132          1           0       20.011920    3.468331   -0.689771
    133          1           0       21.104598    2.061090   -1.432245
    134          1           0       19.408636    2.278202   -1.857895
    135          1           0       20.970430    1.404908    2.106906
    136          1           0       21.857008    2.306209    0.822717
    137          1           0       20.559887    2.895908    1.804746
 ---------------------------------------------------------------------

 SCF Done:  E(RCAM-B3LYP) =  -2932.64777489     A.U. after   18 cycles

 Excitation energies and oscillator strengths:

 Excited State   1:      Singlet-A      1.9367 eV  640.17 nm  f=0.2738  <S**2>=0.000
     240 -> 243       -0.21095
     241 -> 242        0.66853
 This state for optimization and/or second-order correction.
 Total Energy, E(TD-HF/TD-KS) =  -2932.57660145
 Copying the excited state density for this state as the 1-particle RhoCI density.

 The electronic state is 1-A.
 Alpha  occ. eigenvalues --  -46.83594 -19.26981 -19.24585 -19.21958 -19.20422
 Alpha  occ. eigenvalues --  -19.18296 -14.42632 -14.39783 -14.39680 -14.39468
 Alpha  occ. eigenvalues --  -10.39904 -10.39197 -10.33337 -10.32376 -10.32357
 Alpha  occ. eigenvalues --  -10.31262 -10.30668 -10.30583 -10.30490 -10.29653
 Alpha  occ. eigenvalues --  -10.29054 -10.28879 -10.28823 -10.28598 -10.28596
 Alpha  occ. eigenvalues --  -10.28489 -10.28452 -10.28371 -10.28290 -10.28080
 Alpha  occ. eigenvalues --  -10.28032 -10.27866 -10.27707 -10.27504 -10.27463
 Alpha  occ. eigenvalues --  -10.27451 -10.27337 -10.26927 -10.26864 -10.26850
 Alpha  occ. eigenvalues --  -10.26700 -10.26622 -10.26544 -10.26380 -10.26354
 Alpha  occ. eigenvalues --  -10.26348 -10.26000 -10.25982 -10.25924 -10.25822
 Alpha  occ. eigenvalues --  -10.25816 -10.25776 -10.25730 -10.25687 -10.25579
 Alpha  occ. eigenvalues --  -10.25575 -10.25410 -10.25277 -10.24759 -10.24702
 Alpha  occ. eigenvalues --  -10.24306 -10.24025 -10.23840 -10.23230 -10.22382
 Alpha  occ. eigenvalues --   -3.12888  -1.87564  -1.87172  -1.87065  -1.20021
 Alpha  occ. eigenvalues --   -1.17255  -1.08518  -1.07972  -1.07938  -1.04387
 Alpha  occ. eigenvalues --   -1.03322  -1.02273  -1.00659  -0.92297  -0.92120
 Alpha  occ. eigenvalues --   -0.91829  -0.90912  -0.90533  -0.89844  -0.89638
 Alpha  occ. eigenvalues --   -0.89567  -0.88168  -0.87369  -0.86675  -0.86317
 Alpha  occ. eigenvalues --   -0.85918  -0.84086  -0.83897  -0.83553  -0.82169
 Alpha  occ. eigenvalues --   -0.81710  -0.81314  -0.80960  -0.80159  -0.78377
 Alpha  occ. eigenvalues --   -0.78186  -0.77090  -0.76959  -0.76606  -0.75596
 Alpha  occ. eigenvalues --   -0.75362  -0.74958  -0.74866  -0.73151  -0.72350
 Alpha  occ. eigenvalues --   -0.71632  -0.70965  -0.69829  -0.68599  -0.68193
 Alpha  occ. eigenvalues --   -0.67200  -0.66548  -0.65072  -0.64924  -0.64301
 Alpha  occ. eigenvalues --   -0.64294  -0.63922  -0.62986  -0.62593  -0.61779
 Alpha  occ. eigenvalues --   -0.61572  -0.60686  -0.60304  -0.59666  -0.58921
 Alpha  occ. eigenvalues --   -0.58815  -0.58177  -0.57904  -0.57412  -0.57095
 Alpha  occ. eigenvalues --   -0.56218  -0.55804  -0.55672  -0.55494  -0.54970
 Alpha  occ. eigenvalues --   -0.54836  -0.54568  -0.54489  -0.53971  -0.53460
 Alpha  occ. eigenvalues --   -0.53176  -0.52819  -0.52705  -0.52434  -0.52011
 Alpha  occ. eigenvalues --   -0.51711  -0.51441  -0.51218  -0.50950  -0.50928
 Alpha  occ. eigenvalues --   -0.50519  -0.50297  -0.50124  -0.49670  -0.49308
 Alpha  occ. eigenvalues --   -0.49120  -0.49063  -0.48795  -0.48641  -0.48302
 Alpha  occ. eigenvalues --   -0.47919  -0.47888  -0.47655  -0.47394  -0.47272
 Alpha  occ. eigenvalues --   -0.47176  -0.46894  -0.46712  -0.46492  -0.46153
 Alpha  occ. eigenvalues --   -0.45976  -0.45933  -0.45609  -0.45100  -0.45057
 Alpha  occ. eigenvalues --   -0.44944  -0.44568  -0.44070  -0.43942  -0.43810
 Alpha  occ. eigenvalues --   -0.43688  -0.43459  -0.43301  -0.43072  -0.42884
 Alpha  occ. eigenvalues --   -0.42715  -0.42542  -0.42357  -0.41942  -0.41706
 Alpha  occ. eigenvalues --   -0.41563  -0.41503  -0.41309  -0.41220  -0.41088
 Alpha  occ. eigenvalues --   -0.41032  -0.40807  -0.40682  -0.40524  -0.40196
 Alpha  occ. eigenvalues --   -0.39904  -0.39834  -0.39679  -0.39571  -0.39536
 Alpha  occ. eigenvalues --   -0.39182  -0.38895  -0.38306  -0.38155  -0.37215
 Alpha  occ. eigenvalues --   -0.37204  -0.37132  -0.36905  -0.36741  -0.36425
 Alpha  occ. eigenvalues --   -0.36419  -0.36249  -0.35810  -0.35585  -0.35404
 Alpha  occ. eigenvalues --   -0.35310  -0.35023  -0.34933  -0.34293  -0.33894
 Alpha  occ. eigenvalues --   -0.33353  -0.33254  -0.31616  -0.30744  -0.28953
 Alpha  occ. eigenvalues --   -0.28884  -0.28759  -0.27946  -0.27258  -0.23183
 Alpha  occ. eigenvalues --   -0.20750
 Alpha virt. eigenvalues --   -0.06751  -0.02740   0.00986   0.03402   0.05058
 Alpha virt. eigenvalues --    0.05296   0.05903   0.06205   0.06551   0.06918
 Alpha virt. eigenvalues --    0.08141   0.10912   0.11176   0.11491   0.11735

 Mulliken charges:
               1
     1  Mg   0.814810
     2  C    0.037673
     3  C   -0.209577
     4  C   -0.179676
     5  C   -0.132348
     6  N   -0.633816
     7  C    0.260193
     8  C   -0.169971
     9  C   -0.152864
    10  C    0.364881
    11  C   -0.313584
    12  C   -0.170806
    13  C   -0.246832
    14  C    0.615869
    15  O   -0.434825
    16  O   -0.532948
    17  N   -0.705369
    18  C    0.366693
    19  C   -0.019718
    20  C    0.056522
    21  C    0.282032
    22  C   -0.342390
    23  C   -0.104389
    24  C   -0.253304
    25  N   -0.662678
    26  C    0.302743
    27  C    0.045807
    28  C    0.069797
    29  C    0.238822
    30  C   -0.402439
    31  C   -0.265826
    32  C   -0.302420
    33  N   -0.705402
    34  C    0.204626
    35  C    0.137561
    36  C   -0.050203
    37  C    0.352981
    38  C   -0.414817
    39  C    0.325493
    40  O   -0.501931
    41  C   -0.298513
    42  C    0.629847
    43  O   -0.495461
    44  O   -0.402268
    45  C   -0.087371
    46  C    0.018483
    47  C   -0.123463
    48  C    0.122460
    49  C   -0.347177
    50  C   -0.227028
    51  C   -0.170843
    52  C   -0.155918
    53  C   -0.056253
    54  C   -0.308669
    55  C   -0.155564
    56  C   -0.184681
    57  C   -0.153694
    58  C   -0.049493
    59  C   -0.307334
    60  C   -0.180874
    61  C   -0.176758
    62  C   -0.163069
    63  C   -0.030050
    64  C   -0.308544
    65  C   -0.292686
    66  H    0.070417
    67  H    0.074571
    68  H    0.061160
    69  H    0.152475
    70  H    0.113698
    71  H    0.099771
    72  H    0.126653
    73  H    0.119835
    74  H    0.122325
    75  H    0.125458
    76  H    0.142257
    77  H    0.090241
    78  H    0.075691
    79  H    0.139730
    80  H    0.117026
    81  H    0.102787
    82  H    0.098518
    83  H    0.102839
    84  H    0.128170
    85  H    0.114115
    86  H    0.134266
    87  H    0.107741
    88  H    0.093628
    89  H    0.113614
    90  H    0.113254
    91  H    0.105456
    92  H    0.132080
    93  H    0.145518
    94  H    0.113280
    95  H    0.165370
    96  H    0.123140
    97  H    0.124014
    98  H    0.120964
    99  H    0.140252
   100  H    0.096010
   101  H    0.099583
   102  H    0.076783
   103  H    0.115818
   104  H    0.140713
   105  H    0.088205
   106  H    0.089376
   107  H    0.097445
   108  H    0.094762
   109  H    0.077743
   110  H    0.050099
   111  H    0.091659
   112  H    0.112693
   113  H    0.068206
   114  H    0.111449
   115  H    0.095473
   116  H    0.058219
   117  H    0.108507
   118  H    0.081672
   119  H    0.079893
   120  H    0.101406
   121  H    0.057667
   122  H    0.092993
   123  H    0.082076
   124  H    0.111631
   125  H    0.080943
   126  H    0.072211
   127  H    0.090401
   128  H    0.078271
   129  H    0.092643
   130  H    0.080473
   131  H    0.074120
   132  H    0.086923
   133  H    0.109698
   134  H    0.107968
   135  H    0.119136
   136  H    0.085068
   137  H    0.068304
 Sum of Mulliken charges =   0.00000

 Dipole moment (field-independent basis, Debye):
    X=              0.6206    Y=              5.3779    Z=             -0.0204  Tot=              5.4136
 Quadrupole moment (field-independent basis, Debye-Ang):
   XX=           -326.9408   YY=           -396.3150   ZZ=           -395.0835
   XY=            -26.6010   XZ=             11.5673   YZ=              1.9825

 Normal termination of Gaussian 09 at Thu Jun 27 18:27:00 2019.
