 Gaussian 09, Revision D.01,
 Gaussian 09:  ES64L-G09RevD.01 24-Apr-2013

 -------------------------------------
 # td=(NStates=1) CAM-B3LYP/6-31G(d,p)
 -------------------------------------

 --
 TD
 --
 Symbolic Z-matrix:
 Charge =  0 Multiplicity = 1

                         Standard orientation:
 ---------------------------------------------------------------------
 Center     Atomic      Atomic             Coordinates (Angstroms)
 Number     Number       Type             X           Y           Z
 ---------------------------------------------------------------------
      1         12           0       -7.118067    0.587392    0.082966
      2          6           0       -4.821932   -1.977545    0.501298
      3          6           0       -4.809476    2.843055    1.176528
      4          6           0       -9.425135    3.038343   -0.308124
      5          6           0       -9.575578   -1.755672   -0.821227
      6          7           0       -5.075578    0.416972    0.617684
      7          6           0       -4.349797   -0.771721    0.819516
      8          6           0       -2.930532   -0.438652    1.261011
      9          6           0       -3.009877    1.064485    1.670640
     10          6           0       -4.368994    1.483101    1.179015
     11          6           0       -2.870433    1.286465    3.180154
     12          6           0       -1.940786   -0.521137    0.121061
     13          6           0       -0.431000   -0.357831    0.593768
     14          6           0        0.456649   -0.695054   -0.619246
     15          8           0        0.189942   -0.995653   -1.739933
     16          8           0        1.749059   -0.540457   -0.236713
     17          7           0       -7.090919    2.630315    0.321974
     18          6           0       -6.062740    3.347602    0.791745
     19          6           0       -6.349340    4.711405    0.841118
     20          6           0       -7.748398    4.799032    0.356934
     21          6           0       -8.192798    3.484516    0.166674
     22          6           0       -5.605554    5.827336    1.350137
     23          6           0       -8.523071    5.993945    0.342068
     24          6           0       -8.206586    7.215714   -0.015491
     25          7           0       -9.230939    0.771552   -0.605862
     26          6           0       -9.969833    1.786469   -0.591838
     27          6           0      -11.315700    1.463120   -0.941132
     28          6           0      -11.348955    0.087226   -1.160537
     29          6           0      -10.038602   -0.452251   -0.908616
     30          6           0      -12.407791    2.439688   -1.206669
     31          6           0      -12.482862   -0.734475   -1.670299
     32          6           0      -12.445038   -0.889457   -3.166673
     33          7           0       -7.210698   -1.420959   -0.011375
     34          6           0       -8.359604   -2.237308   -0.327784
     35          6           0       -7.839956   -3.577676   -0.532429
     36          6           0       -6.435920   -3.571074   -0.217179
     37          6           0       -6.160901   -2.249040    0.116787
     38          6           0       -8.653046   -4.847629   -0.910772
     39          6           0       -5.230921   -4.379558    0.043034
     40          8           0       -5.096564   -5.585029    0.195111
     41          6           0       -4.128794   -3.323818    0.479253
     42          6           0       -3.500148   -3.622383    1.825837
     43          8           0       -3.607265   -3.066487    2.912076
     44          8           0       -2.658393   -4.719054    1.677286
     45          6           0       -2.250945   -5.201580    3.077163
     46          6           0        2.756458   -0.630904   -1.258211
     47          6           0        4.120039   -0.489043   -0.700860
     48          6           0        5.193972    0.298655   -1.127367
     49          6           0        5.103954    1.138882   -2.334011
     50          6           0        6.435137    0.361880   -0.319498
     51          6           0        7.670327   -0.210565   -1.045580
     52          6           0        8.893236   -0.109507   -0.241224
     53          6           0       10.265452   -0.463204   -0.947184
     54          6           0       10.185747   -1.968330   -1.378121
     55          6           0       11.500812   -0.280315   -0.018349
     56          6           0       12.883303   -0.546288   -0.775729
     57          6           0       13.925453   -0.091788    0.156615
     58          6           0       15.374466   -0.165351   -0.505324
     59          6           0       15.734451   -1.618156   -1.022054
     60          6           0       16.448973    0.415469    0.444922
     61          6           0       17.851501    0.469250   -0.116678
     62          6           0       18.796532    1.280764    0.803542
     63          6           0       20.238451    1.409125    0.395720
     64          6           0       20.440435    2.151175   -0.982195
     65          6           0       21.008430    1.974107    1.537619
     66          1           0       -4.051862    3.374249    1.888521
     67          1           0      -10.178595    3.973257   -0.301875
     68          1           0      -10.340705   -2.586409   -0.831316
     69          1           0       -2.571468   -0.945506    2.172007
     70          1           0       -2.266210    1.571110    1.291386
     71          1           0       -1.967942    0.838502    3.676159
     72          1           0       -2.966795    2.315941    3.634332
     73          1           0       -3.626608    0.646813    3.694104
     74          1           0       -1.917119   -1.698325   -0.309745
     75          1           0       -2.079586    0.088492   -0.764402
     76          1           0       -0.081980    0.839691    0.944195
     77          1           0       -0.103091   -1.090324    1.388024
     78          1           0       -4.901385    6.123865    0.480121
     79          1           0       -6.293179    6.622620    1.589625
     80          1           0       -5.116243    5.525833    2.188097
     81          1           0       -9.748804    5.906559    0.580361
     82          1           0       -9.021953    7.905308   -0.238825
     83          1           0       -7.159119    7.456108   -0.404050
     84          1           0      -12.191641    3.138574   -1.793851
     85          1           0      -13.267444    1.982929   -1.587760
     86          1           0      -12.865512    3.085297   -0.304661
     87          1           0      -12.545913   -1.694033   -1.212220
     88          1           0      -13.476529   -0.277366   -1.464145
     89          1           0      -13.496983   -1.453346   -3.469707
     90          1           0      -12.493459    0.102142   -3.667981
     91          1           0      -11.730519   -1.566386   -3.440574
     92          1           0       -8.877645   -4.735156   -1.816351
     93          1           0       -8.198333   -5.762371   -0.616380
     94          1           0       -9.454666   -5.214006   -0.091249
     95          1           0       -3.243282   -3.287549   -0.362206
     96          1           0       -1.739547   -4.223226    3.470828
     97          1           0       -3.080295   -5.453661    3.586728
     98          1           0       -1.613198   -6.195976    2.982569
     99          1           0        2.625587   -1.594012   -1.696043
    100          1           0        2.301014    0.023814   -2.101608
    101          1           0        4.247632   -1.004171    0.246798
    102          1           0        4.067401    1.355488   -2.839717
    103          1           0        5.540196    2.168090   -2.191621
    104          1           0        5.644341    0.543667   -3.081419
    105          1           0        6.502708    1.503418   -0.063310
    106          1           0        6.356384   -0.221518    0.686282
    107          1           0        7.533369   -1.066560   -1.191286
    108          1           0        8.053371    0.344233   -1.901945
    109          1           0        8.728492    0.942117    0.214859
    110          1           0        8.757879   -0.574857    0.831678
    111          1           0       10.526086    0.085296   -1.811797
    112          1           0        9.255101   -2.203792   -1.880103
    113          1           0       10.793102   -2.259232   -2.038128
    114          1           0       10.163897   -2.583300   -0.540817
    115          1           0       11.551099    0.765417   -0.017452
    116          1           0       11.289849   -0.799783    0.974130
    117          1           0       13.055612   -1.606532   -0.891489
    118          1           0       12.904950   -0.118760   -1.677990
    119          1           0       13.753912    1.158334    0.351238
    120          1           0       13.960654   -0.762986    1.056998
    121          1           0       15.547113    0.345148   -1.362584
    122          1           0       15.851032   -2.389485   -0.158141
    123          1           0       15.146122   -1.826311   -1.889241
    124          1           0       16.696783   -1.633963   -1.615500
    125          1           0       16.128157    1.369369    0.777358
    126          1           0       16.432336   -0.305884    1.378758
    127          1           0       18.329725   -0.584360   -0.194469
    128          1           0       17.827489    1.066444   -0.979508
    129          1           0       18.265272    2.200561    0.932773
    130          1           0       18.732436    0.807063    1.898280
    131          1           0       20.645483    0.340476    0.194620
    132          1           0       20.211557    3.134895   -1.024814
    133          1           0       21.474145    2.237828   -1.108686
    134          1           0       19.957939    1.496247   -1.721539
    135          1           0       21.017365    1.493966    2.425863
    136          1           0       22.073813    2.122755    1.145239
    137          1           0       20.821318    2.975841    1.888883
 ---------------------------------------------------------------------

 SCF Done:  E(RCAM-B3LYP) =  -2932.61490459     A.U. after   18 cycles

 Excitation energies and oscillator strengths:

 Excited State   1:      Singlet-A      2.1486 eV  577.03 nm  f=0.1685  <S**2>=0.000
     240 -> 242       -0.31334
     240 -> 243        0.22294
     241 -> 242        0.55641
     241 -> 243        0.16992
 This state for optimization and/or second-order correction.
 Total Energy, E(TD-HF/TD-KS) =  -2932.53594333
 Copying the excited state density for this state as the 1-particle RhoCI density.

 The electronic state is 1-A.
 Alpha  occ. eigenvalues --  -46.84896 -19.24921 -19.24596 -19.21171 -19.21090
 Alpha  occ. eigenvalues --  -19.20243 -14.41446 -14.39432 -14.39329 -14.39004
 Alpha  occ. eigenvalues --  -10.39244 -10.38776 -10.35531 -10.31556 -10.31407
 Alpha  occ. eigenvalues --  -10.31099 -10.30203 -10.30010 -10.29959 -10.29929
 Alpha  occ. eigenvalues --  -10.29524 -10.29340 -10.29272 -10.29213 -10.29056
 Alpha  occ. eigenvalues --  -10.28781 -10.28459 -10.28373 -10.28360 -10.28330
 Alpha  occ. eigenvalues --  -10.27656 -10.27486 -10.27459 -10.27288 -10.27211
 Alpha  occ. eigenvalues --  -10.26794 -10.26790 -10.26495 -10.26472 -10.26455
 Alpha  occ. eigenvalues --  -10.26406 -10.26321 -10.26290 -10.26150 -10.26133
 Alpha  occ. eigenvalues --  -10.25954 -10.25864 -10.25857 -10.25850 -10.25718
 Alpha  occ. eigenvalues --  -10.25456 -10.25223 -10.25111 -10.25016 -10.24960
 Alpha  occ. eigenvalues --  -10.24865 -10.24650 -10.24592 -10.24562 -10.24527
 Alpha  occ. eigenvalues --  -10.23887 -10.23312 -10.23230 -10.22986 -10.21879
 Alpha  occ. eigenvalues --   -3.13702  -1.88429  -1.87934  -1.87867  -1.18207
 Alpha  occ. eigenvalues --   -1.15725  -1.10390  -1.09297  -1.06843  -1.04453
 Alpha  occ. eigenvalues --   -1.03505  -1.02916  -1.01563  -0.92351  -0.91680
 Alpha  occ. eigenvalues --   -0.90268  -0.89995  -0.89898  -0.89622  -0.89331
 Alpha  occ. eigenvalues --   -0.88387  -0.88110  -0.87395  -0.86720  -0.86088
 Alpha  occ. eigenvalues --   -0.85386  -0.84484  -0.84077  -0.83530  -0.82975
 Alpha  occ. eigenvalues --   -0.81696  -0.80979  -0.80397  -0.79935  -0.78805
 Alpha  occ. eigenvalues --   -0.77847  -0.77532  -0.77118  -0.76199  -0.75761
 Alpha  occ. eigenvalues --   -0.75333  -0.75227  -0.74626  -0.73242  -0.72168
 Alpha  occ. eigenvalues --   -0.71756  -0.70241  -0.69884  -0.69025  -0.67925
 Alpha  occ. eigenvalues --   -0.67347  -0.66927  -0.65403  -0.64970  -0.64828
 Alpha  occ. eigenvalues --   -0.63863  -0.63362  -0.62742  -0.62273  -0.62163
 Alpha  occ. eigenvalues --   -0.61330  -0.60388  -0.60119  -0.59390  -0.59188
 Alpha  occ. eigenvalues --   -0.58464  -0.57860  -0.57799  -0.56452  -0.56347
 Alpha  occ. eigenvalues --   -0.56043  -0.55894  -0.55461  -0.54913  -0.54755
 Alpha  occ. eigenvalues --   -0.54397  -0.54196  -0.53939  -0.53330  -0.53085
 Alpha  occ. eigenvalues --   -0.52905  -0.52738  -0.52508  -0.52059  -0.51990
 Alpha  occ. eigenvalues --   -0.51790  -0.51617  -0.51337  -0.51189  -0.51058
 Alpha  occ. eigenvalues --   -0.50778  -0.50420  -0.50305  -0.50200  -0.49932
 Alpha  occ. eigenvalues --   -0.49428  -0.49301  -0.49009  -0.48746  -0.48611
 Alpha  occ. eigenvalues --   -0.48071  -0.47949  -0.47754  -0.47361  -0.47163
 Alpha  occ. eigenvalues --   -0.46921  -0.46571  -0.46498  -0.46298  -0.46234
 Alpha  occ. eigenvalues --   -0.45850  -0.45649  -0.45459  -0.45310  -0.44860
 Alpha  occ. eigenvalues --   -0.44488  -0.44440  -0.44295  -0.44068  -0.43777
 Alpha  occ. eigenvalues --   -0.43527  -0.43331  -0.43291  -0.43178  -0.43167
 Alpha  occ. eigenvalues --   -0.42718  -0.42648  -0.42334  -0.42131  -0.42058
 Alpha  occ. eigenvalues --   -0.42032  -0.41564  -0.41395  -0.41353  -0.41302
 Alpha  occ. eigenvalues --   -0.40984  -0.40795  -0.40687  -0.40416  -0.40227
 Alpha  occ. eigenvalues --   -0.40133  -0.39876  -0.39573  -0.39411  -0.39235
 Alpha  occ. eigenvalues --   -0.39037  -0.38861  -0.38664  -0.38095  -0.37698
 Alpha  occ. eigenvalues --   -0.37677  -0.37061  -0.36873  -0.36616  -0.36521
 Alpha  occ. eigenvalues --   -0.36132  -0.36024  -0.35954  -0.35422  -0.35359
 Alpha  occ. eigenvalues --   -0.35306  -0.35269  -0.34899  -0.33727  -0.33671
 Alpha  occ. eigenvalues --   -0.33224  -0.33079  -0.32585  -0.31320  -0.30175
 Alpha  occ. eigenvalues --   -0.29010  -0.28282  -0.27913  -0.26789  -0.22923
 Alpha  occ. eigenvalues --   -0.22507
 Alpha virt. eigenvalues --   -0.07152  -0.03361   0.01618   0.03898   0.05368
 Alpha virt. eigenvalues --    0.05794   0.06204   0.06468   0.06788   0.06915
 Alpha virt. eigenvalues --    0.07773   0.10528   0.11002   0.11148   0.11981

 Mulliken charges:
               1
     1  Mg   0.821065
     2  C    0.082648
     3  C   -0.222357
     4  C   -0.182306
     5  C   -0.164730
     6  N   -0.652440
     7  C    0.295998
     8  C   -0.159682
     9  C   -0.123049
    10  C    0.344264
    11  C   -0.342254
    12  C   -0.165653
    13  C   -0.255006
    14  C    0.606842
    15  O   -0.464387
    16  O   -0.493496
    17  N   -0.732470
    18  C    0.373542
    19  C    0.011316
    20  C    0.011506
    21  C    0.314794
    22  C   -0.361369
    23  C   -0.091629
    24  C   -0.249176
    25  N   -0.672543
    26  C    0.376196
    27  C    0.010043
    28  C    0.038240
    29  C    0.229803
    30  C   -0.363111
    31  C   -0.251421
    32  C   -0.287715
    33  N   -0.737344
    34  C    0.247661
    35  C   -0.055610
    36  C    0.027742
    37  C    0.304675
    38  C   -0.350571
    39  C    0.366705
    40  O   -0.447363
    41  C   -0.336210
    42  C    0.647389
    43  O   -0.485683
    44  O   -0.485946
    45  C   -0.079855
    46  C    0.025837
    47  C   -0.154427
    48  C    0.131725
    49  C   -0.363110
    50  C   -0.248978
    51  C   -0.113451
    52  C   -0.193921
    53  C   -0.080287
    54  C   -0.309191
    55  C   -0.173814
    56  C   -0.179265
    57  C   -0.149922
    58  C   -0.064777
    59  C   -0.329778
    60  C   -0.160687
    61  C   -0.177784
    62  C   -0.161155
    63  C   -0.047812
    64  C   -0.320228
    65  C   -0.312775
    66  H    0.079899
    67  H    0.077486
    68  H    0.116120
    69  H    0.134716
    70  H    0.113699
    71  H    0.106907
    72  H    0.107185
    73  H    0.124075
    74  H    0.085839
    75  H    0.137148
    76  H    0.108301
    77  H    0.144325
    78  H    0.118765
    79  H    0.128629
    80  H    0.125482
    81  H    0.077102
    82  H    0.108841
    83  H    0.102115
    84  H    0.135485
    85  H    0.113606
    86  H    0.086105
    87  H    0.108142
    88  H    0.104952
    89  H    0.066713
    90  H    0.114709
    91  H    0.125153
    92  H    0.135144
    93  H    0.146697
    94  H    0.099713
    95  H    0.158456
    96  H    0.132588
    97  H    0.151569
    98  H    0.114688
    99  H    0.128735
   100  H    0.109377
   101  H    0.091665
   102  H    0.108367
   103  H    0.108207
   104  H    0.131720
   105  H    0.093470
   106  H    0.096903
   107  H    0.104236
   108  H    0.099325
   109  H    0.071697
   110  H    0.063324
   111  H    0.083308
   112  H    0.086977
   113  H    0.106476
   114  H    0.106033
   115  H    0.103523
   116  H    0.089848
   117  H    0.107926
   118  H    0.099506
   119  H    0.051978
   120  H    0.097799
   121  H    0.086318
   122  H    0.092445
   123  H    0.107172
   124  H    0.093388
   125  H    0.090946
   126  H    0.063336
   127  H    0.087294
   128  H    0.097994
   129  H    0.088906
   130  H    0.059960
   131  H    0.075540
   132  H    0.110775
   133  H    0.103326
   134  H    0.107128
   135  H    0.114329
   136  H    0.077177
   137  H    0.099961
 Sum of Mulliken charges =   0.00000

 Dipole moment (field-independent basis, Debye):
    X=              0.9470    Y=              4.7199    Z=              0.0676  Tot=              4.8144
 Quadrupole moment (field-independent basis, Debye-Ang):
   XX=           -334.1530   YY=           -392.0277   ZZ=           -393.9757
   XY=            -15.3732   XZ=             -1.3390   YZ=             -4.6717

 Normal termination of Gaussian 09 at Sun Jun 30 20:41:53 2019.
