 Gaussian 09, Revision D.01,
 Gaussian 09:  ES64L-G09RevD.01 24-Apr-2013

 -------------------------------------
 # td=(NStates=1) CAM-B3LYP/6-31G(d,p)
 -------------------------------------

 --
 TD
 --
 Symbolic Z-matrix:
 Charge =  0 Multiplicity = 1

                         Standard orientation:
 ---------------------------------------------------------------------
 Center     Atomic      Atomic             Coordinates (Angstroms)
 Number     Number       Type             X           Y           Z
 ---------------------------------------------------------------------
      1         12           0       -7.084392    0.560478   -0.011866
      2          6           0       -4.849558   -2.072609    0.475219
      3          6           0       -4.853648    2.716856    1.234975
      4          6           0       -9.375968    3.231094   -0.416010
      5          6           0       -9.512420   -1.671484   -0.919436
      6          7           0       -5.141713    0.348073    0.772822
      7          6           0       -4.370193   -0.776040    0.836759
      8          6           0       -2.954906   -0.532285    1.280344
      9          6           0       -3.059847    0.914842    1.681294
     10          6           0       -4.424027    1.421881    1.204865
     11          6           0       -2.920959    1.144583    3.205767
     12          6           0       -1.916159   -0.670870    0.169220
     13          6           0       -0.437912   -0.551126    0.620841
     14          6           0        0.606758   -0.792015   -0.519144
     15          8           0        0.301341   -1.261098   -1.581644
     16          8           0        1.836618   -0.590256   -0.006407
     17          7           0       -7.125520    2.700574    0.335315
     18          6           0       -6.042660    3.408482    0.814101
     19          6           0       -6.406090    4.761909    0.930240
     20          6           0       -7.695720    4.902807    0.408862
     21          6           0       -8.140358    3.521880    0.006509
     22          6           0       -5.449048    5.834584    1.425827
     23          6           0       -8.588837    6.004549    0.366509
     24          6           0       -8.242219    7.325835    0.207458
     25          7           0       -9.105468    0.778239   -0.438616
     26          6           0       -9.911212    1.943343   -0.479933
     27          6           0      -11.163476    1.488479   -1.077128
     28          6           0      -11.212472    0.222782   -1.281385
     29          6           0       -9.850152   -0.326458   -0.883966
     30          6           0      -12.334599    2.500018   -1.339126
     31          6           0      -12.417804   -0.659327   -1.845453
     32          6           0      -12.094628   -1.004192   -3.382002
     33          7           0       -7.217147   -1.385966   -0.346922
     34          6           0       -8.288663   -2.243187   -0.537445
     35          6           0       -7.822644   -3.635449   -0.603642
     36          6           0       -6.530867   -3.587003   -0.161478
     37          6           0       -6.204174   -2.220113    0.060585
     38          6           0       -8.721510   -4.757115   -0.969159
     39          6           0       -5.408900   -4.442916    0.152012
     40          8           0       -5.271082   -5.608690    0.159265
     41          6           0       -4.146681   -3.345518    0.514927
     42          6           0       -3.550401   -3.775735    1.837525
     43          8           0       -3.748145   -3.211062    2.864070
     44          8           0       -2.740033   -4.834515    1.691785
     45          6           0       -2.139866   -5.243122    3.000747
     46          6           0        2.830199   -0.815781   -1.023988
     47          6           0        4.173762   -0.536796   -0.418118
     48          6           0        5.083809    0.418197   -0.889524
     49          6           0        5.029451    1.330756   -2.082168
     50          6           0        6.484151    0.541276   -0.114606
     51          6           0        7.585706   -0.037152   -0.915935
     52          6           0        8.931997    0.093889   -0.133283
     53          6           0       10.167964   -0.408208   -0.915847
     54          6           0       10.005551   -1.879210   -1.368933
     55          6           0       11.378804   -0.258808   -0.097787
     56          6           0       12.753743   -0.396621   -0.741623
     57          6           0       13.880583    0.016839    0.153453
     58          6           0       15.291007   -0.212643   -0.432475
     59          6           0       15.630371   -1.652741   -0.891435
     60          6           0       16.411760    0.478564    0.308584
     61          6           0       17.795361    0.559305   -0.358657
     62          6           0       18.799790    1.171807    0.680666
     63          6           0       20.339946    1.225998    0.230084
     64          6           0       20.387816    2.010205   -1.077996
     65          6           0       21.076221    1.910280    1.339760
     66          1           0       -4.065251    3.465463    1.615872
     67          1           0      -10.073898    4.117444   -0.714309
     68          1           0      -10.309160   -2.379700   -1.345555
     69          1           0       -2.557996   -1.111830    2.154371
     70          1           0       -2.269070    1.520303    1.241786
     71          1           0       -1.893880    1.010151    3.452940
     72          1           0       -2.981340    2.067511    3.659775
     73          1           0       -3.681975    0.563913    3.756839
     74          1           0       -1.999058   -1.667305   -0.287990
     75          1           0       -2.009099    0.136440   -0.661357
     76          1           0       -0.216228    0.434868    1.262867
     77          1           0       -0.131794   -1.154211    1.366985
     78          1           0       -4.828628    6.146778    0.920411
     79          1           0       -5.932362    6.753588    1.866541
     80          1           0       -4.699113    5.584352    2.186205
     81          1           0       -9.743898    5.854023    0.259112
     82          1           0       -9.076904    8.081961    0.193816
     83          1           0       -7.207479    7.776305    0.162203
     84          1           0      -12.107784    2.971297   -2.455280
     85          1           0      -13.348997    1.948267   -1.633462
     86          1           0      -12.693684    3.124526   -0.607424
     87          1           0      -12.395597   -1.563985   -1.250164
     88          1           0      -13.323879   -0.052296   -1.728093
     89          1           0      -13.101477   -1.526244   -3.563956
     90          1           0      -11.947156   -0.037104   -3.814995
     91          1           0      -11.148733   -1.630342   -3.416552
     92          1           0       -9.111059   -4.869766   -2.049988
     93          1           0       -8.125793   -5.656738   -0.856152
     94          1           0       -9.584909   -4.689952   -0.438327
     95          1           0       -3.298546   -3.486408   -0.268979
     96          1           0       -1.476802   -4.528068    3.304103
     97          1           0       -2.948262   -5.484483    3.753680
     98          1           0       -1.598111   -6.143056    2.497455
     99          1           0        2.802229   -1.695005   -1.403341
    100          1           0        2.664132   -0.039829   -2.017121
    101          1           0        4.503621   -0.839452    0.538075
    102          1           0        4.100764    1.614403   -2.656797
    103          1           0        5.442186    2.360244   -1.784915
    104          1           0        5.684498    1.220828   -2.906468
    105          1           0        6.661932    1.525781    0.074289
    106          1           0        6.552090    0.160849    1.040271
    107          1           0        7.152770   -1.093727   -0.817124
    108          1           0        7.586000    0.389958   -1.941231
    109          1           0        9.051261    1.097498    0.234023
    110          1           0        8.762957   -0.364186    0.739653
    111          1           0       10.295492    0.075913   -1.833651
    112          1           0        9.048699   -2.109814   -1.963564
    113          1           0       10.954041   -2.361437   -1.660266
    114          1           0        9.870867   -2.497393   -0.440517
    115          1           0       11.323783    1.012346    0.084337
    116          1           0       11.307199   -0.935243    0.725022
    117          1           0       12.944319   -1.389705   -1.243559
    118          1           0       12.732550    0.460762   -1.620790
    119          1           0       13.697057    1.049031    0.282376
    120          1           0       13.809448   -0.655508    1.144590
    121          1           0       15.509112    0.349521   -1.618716
    122          1           0       15.456607   -2.309351    0.153411
    123          1           0       14.926395   -1.872473   -1.579685
    124          1           0       16.624130   -1.667146   -1.248294
    125          1           0       15.964937    1.442021    0.279471
    126          1           0       16.436143   -0.099660    1.405822
    127          1           0       18.136495   -0.538489   -0.889896
    128          1           0       17.634342    1.077111   -1.212360
    129          1           0       18.464397    2.194084    0.986087
    130          1           0       18.543578    0.692424    1.512571
    131          1           0       20.744767    0.181908   -0.017332
    132          1           0       19.732616    3.037801   -1.278092
    133          1           0       21.432697    2.104855   -1.379683
    134          1           0       20.077027    1.221662   -1.947447
    135          1           0       21.161709    1.407054    2.257629
    136          1           0       22.058532    2.081388    1.092830
    137          1           0       20.511564    2.788952    1.598943
 ---------------------------------------------------------------------

 SCF Done:  E(RCAM-B3LYP) =  -2932.60381979     A.U. after   16 cycles

 Excitation energies and oscillator strengths:

 Excited State   1:      Singlet-A      1.9299 eV  642.44 nm  f=0.3216  <S**2>=0.000
     240 -> 243        0.23560
     241 -> 242        0.66015
 This state for optimization and/or second-order correction.
 Total Energy, E(TD-HF/TD-KS) =  -2932.53289795
 Copying the excited state density for this state as the 1-particle RhoCI density.

 The electronic state is 1-A.
 Alpha  occ. eigenvalues --  -46.84495 -19.27552 -19.25662 -19.21903 -19.21657
 Alpha  occ. eigenvalues --  -19.20136 -14.41937 -14.39738 -14.39678 -14.38734
 Alpha  occ. eigenvalues --  -10.39865 -10.37939 -10.35757 -10.32411 -10.31675
 Alpha  occ. eigenvalues --  -10.30983 -10.30440 -10.29623 -10.29379 -10.29353
 Alpha  occ. eigenvalues --  -10.29225 -10.29163 -10.29107 -10.28502 -10.28364
 Alpha  occ. eigenvalues --  -10.28111 -10.27820 -10.27727 -10.27606 -10.27480
 Alpha  occ. eigenvalues --  -10.27322 -10.27316 -10.27303 -10.27142 -10.26995
 Alpha  occ. eigenvalues --  -10.26953 -10.26951 -10.26927 -10.26920 -10.26868
 Alpha  occ. eigenvalues --  -10.26858 -10.26726 -10.26579 -10.26572 -10.26499
 Alpha  occ. eigenvalues --  -10.26404 -10.26395 -10.26331 -10.26291 -10.26226
 Alpha  occ. eigenvalues --  -10.25939 -10.25819 -10.25694 -10.25632 -10.25577
 Alpha  occ. eigenvalues --  -10.25419 -10.25379 -10.25279 -10.24949 -10.24523
 Alpha  occ. eigenvalues --  -10.24512 -10.24391 -10.24333 -10.23857 -10.22696
 Alpha  occ. eigenvalues --   -3.13442  -1.88153  -1.87669  -1.87621  -1.19358
 Alpha  occ. eigenvalues --   -1.17897  -1.14131  -1.10913  -1.09067  -1.04542
 Alpha  occ. eigenvalues --   -1.03418  -1.02943  -1.00742  -0.92144  -0.91724
 Alpha  occ. eigenvalues --   -0.90532  -0.90231  -0.89510  -0.88801  -0.88283
 Alpha  occ. eigenvalues --   -0.88229  -0.87874  -0.87033  -0.86704  -0.86413
 Alpha  occ. eigenvalues --   -0.85162  -0.84344  -0.83477  -0.83108  -0.82217
 Alpha  occ. eigenvalues --   -0.81735  -0.80869  -0.80476  -0.80194  -0.78759
 Alpha  occ. eigenvalues --   -0.78154  -0.76671  -0.76331  -0.76023  -0.76002
 Alpha  occ. eigenvalues --   -0.75419  -0.74964  -0.74681  -0.73985  -0.72833
 Alpha  occ. eigenvalues --   -0.71571  -0.70570  -0.69353  -0.68977  -0.68457
 Alpha  occ. eigenvalues --   -0.66901  -0.66605  -0.65678  -0.65267  -0.65053
 Alpha  occ. eigenvalues --   -0.64301  -0.63411  -0.63055  -0.62808  -0.61214
 Alpha  occ. eigenvalues --   -0.61011  -0.60190  -0.60020  -0.58987  -0.58845
 Alpha  occ. eigenvalues --   -0.58430  -0.58018  -0.57415  -0.57231  -0.56710
 Alpha  occ. eigenvalues --   -0.56120  -0.55854  -0.55735  -0.55396  -0.55251
 Alpha  occ. eigenvalues --   -0.54757  -0.54425  -0.54141  -0.53943  -0.53340
 Alpha  occ. eigenvalues --   -0.53159  -0.53017  -0.52626  -0.52001  -0.51946
 Alpha  occ. eigenvalues --   -0.51698  -0.51117  -0.50674  -0.50470  -0.50380
 Alpha  occ. eigenvalues --   -0.50084  -0.49938  -0.49804  -0.49608  -0.49432
 Alpha  occ. eigenvalues --   -0.49188  -0.48971  -0.48685  -0.48537  -0.48300
 Alpha  occ. eigenvalues --   -0.48250  -0.47899  -0.47533  -0.47182  -0.46867
 Alpha  occ. eigenvalues --   -0.46668  -0.46518  -0.46353  -0.46186  -0.45973
 Alpha  occ. eigenvalues --   -0.45745  -0.45561  -0.45381  -0.45142  -0.44942
 Alpha  occ. eigenvalues --   -0.44830  -0.44808  -0.44634  -0.44544  -0.44428
 Alpha  occ. eigenvalues --   -0.44111  -0.43912  -0.43612  -0.43533  -0.43199
 Alpha  occ. eigenvalues --   -0.42891  -0.42789  -0.42545  -0.42411  -0.42241
 Alpha  occ. eigenvalues --   -0.42165  -0.41884  -0.41614  -0.41421  -0.41297
 Alpha  occ. eigenvalues --   -0.41236  -0.41043  -0.40592  -0.40433  -0.40330
 Alpha  occ. eigenvalues --   -0.39987  -0.39890  -0.39832  -0.39766  -0.39485
 Alpha  occ. eigenvalues --   -0.38977  -0.38446  -0.37940  -0.37745  -0.37503
 Alpha  occ. eigenvalues --   -0.37430  -0.37295  -0.37010  -0.36968  -0.36918
 Alpha  occ. eigenvalues --   -0.36771  -0.36505  -0.36221  -0.35919  -0.35686
 Alpha  occ. eigenvalues --   -0.35257  -0.35256  -0.34839  -0.34319  -0.33545
 Alpha  occ. eigenvalues --   -0.32922  -0.32706  -0.32235  -0.30732  -0.29919
 Alpha  occ. eigenvalues --   -0.29805  -0.29712  -0.28894  -0.26531  -0.23013
 Alpha  occ. eigenvalues --   -0.20713
 Alpha virt. eigenvalues --   -0.06742  -0.02657   0.01761   0.04091   0.04886
 Alpha virt. eigenvalues --    0.05482   0.06212   0.06847   0.07618   0.08218
 Alpha virt. eigenvalues --    0.08373   0.10556   0.10645   0.11024   0.11795

 Mulliken charges:
               1
     1  Mg   0.828616
     2  C    0.068068
     3  C   -0.213719
     4  C   -0.173988
     5  C   -0.200436
     6  N   -0.665239
     7  C    0.326878
     8  C   -0.142121
     9  C   -0.157902
    10  C    0.370338
    11  C   -0.318210
    12  C   -0.168442
    13  C   -0.278665
    14  C    0.619488
    15  O   -0.458685
    16  O   -0.463236
    17  N   -0.708219
    18  C    0.304584
    19  C    0.034440
    20  C    0.006070
    21  C    0.348625
    22  C   -0.356005
    23  C   -0.115865
    24  C   -0.241881
    25  N   -0.687956
    26  C    0.260258
    27  C    0.000511
    28  C    0.028143
    29  C    0.298899
    30  C   -0.369283
    31  C   -0.234913
    32  C   -0.300837
    33  N   -0.719211
    34  C    0.247606
    35  C    0.039199
    36  C    0.008711
    37  C    0.313734
    38  C   -0.379235
    39  C    0.355622
    40  O   -0.412088
    41  C   -0.373522
    42  C    0.627535
    43  O   -0.472233
    44  O   -0.472545
    45  C   -0.088406
    46  C    0.031447
    47  C   -0.138620
    48  C    0.103580
    49  C   -0.390381
    50  C   -0.238396
    51  C   -0.166568
    52  C   -0.166119
    53  C   -0.045024
    54  C   -0.330943
    55  C   -0.147554
    56  C   -0.180226
    57  C   -0.141765
    58  C   -0.064008
    59  C   -0.273827
    60  C   -0.150635
    61  C   -0.169330
    62  C   -0.165709
    63  C   -0.059528
    64  C   -0.291256
    65  C   -0.301272
    66  H    0.069815
    67  H    0.108283
    68  H    0.091836
    69  H    0.137704
    70  H    0.105695
    71  H    0.099765
    72  H    0.114842
    73  H    0.124831
    74  H    0.119332
    75  H    0.107724
    76  H    0.102673
    77  H    0.142984
    78  H    0.130947
    79  H    0.107091
    80  H    0.097066
    81  H    0.094620
    82  H    0.095190
    83  H    0.105522
    84  H    0.098548
    85  H    0.086542
    86  H    0.133303
    87  H    0.110909
    88  H    0.107077
    89  H    0.105083
    90  H    0.124308
    91  H    0.111834
    92  H    0.114583
    93  H    0.142755
    94  H    0.138978
    95  H    0.150361
    96  H    0.140351
    97  H    0.144240
    98  H    0.125977
    99  H    0.145949
   100  H    0.091645
   101  H    0.098159
   102  H    0.117764
   103  H    0.109312
   104  H    0.135234
   105  H    0.104677
   106  H    0.072026
   107  H    0.100428
   108  H    0.097184
   109  H    0.088401
   110  H    0.101086
   111  H    0.092336
   112  H    0.106740
   113  H    0.104234
   114  H    0.083544
   115  H    0.049279
   116  H    0.093588
   117  H    0.091911
   118  H    0.064146
   119  H    0.103926
   120  H    0.075669
   121  H    0.003586
   122  H    0.054067
   123  H    0.116991
   124  H    0.107163
   125  H    0.104703
   126  H    0.054643
   127  H    0.050223
   128  H    0.110719
   129  H    0.084539
   130  H    0.104046
   131  H    0.086331
   132  H    0.089781
   133  H    0.101835
   134  H    0.077992
   135  H    0.105048
   136  H    0.100481
   137  H    0.101496
 Sum of Mulliken charges =   0.00000

 Dipole moment (field-independent basis, Debye):
    X=              2.4192    Y=              3.6754    Z=              0.2199  Tot=              4.4056
 Quadrupole moment (field-independent basis, Debye-Ang):
   XX=           -350.5770   YY=           -394.6663   ZZ=           -398.0078
   XY=             -6.3020   XZ=             15.1515   YZ=             -4.4131

 Normal termination of Gaussian 09 at Sat Jun 29 13:37:53 2019.
