 Gaussian 09, Revision D.01,
 Gaussian 09:  ES64L-G09RevD.01 24-Apr-2013

 -------------------------------------
 # td=(NStates=1) CAM-B3LYP/6-31G(d,p)
 -------------------------------------

 --
 TD
 --
 Symbolic Z-matrix:
 Charge =  0 Multiplicity = 1

                         Standard orientation:
 ---------------------------------------------------------------------
 Center     Atomic      Atomic             Coordinates (Angstroms)
 Number     Number       Type             X           Y           Z
 ---------------------------------------------------------------------
      1         12           0       -7.172372    0.606002    0.090698
      2          6           0       -4.817632   -1.851922    0.544689
      3          6           0       -4.739604    2.834769    0.939012
      4          6           0       -9.382407    3.077432   -0.293972
      5          6           0       -9.603666   -1.770092   -0.857157
      6          7           0       -5.168319    0.405759    0.681590
      7          6           0       -4.416801   -0.591745    0.688537
      8          6           0       -2.982490   -0.451099    1.159269
      9          6           0       -3.073359    1.076677    1.520738
     10          6           0       -4.448403    1.513517    1.046329
     11          6           0       -2.811471    1.330058    3.020521
     12          6           0       -2.002838   -0.579517   -0.008273
     13          6           0       -0.530863   -0.498818    0.569410
     14          6           0        0.487915   -0.777953   -0.541278
     15          8           0        0.232566   -1.138642   -1.679021
     16          8           0        1.769823   -0.495546   -0.253920
     17          7           0       -7.139691    2.622003    0.342175
     18          6           0       -6.032338    3.342962    0.720472
     19          6           0       -6.428568    4.743327    0.854281
     20          6           0       -7.767646    4.820681    0.477544
     21          6           0       -8.205351    3.463260    0.161755
     22          6           0       -5.481652    5.912287    1.208800
     23          6           0       -8.664505    6.013745    0.509376
     24          6           0       -8.320529    7.210088    0.067172
     25          7           0       -9.204658    0.642563   -0.538189
     26          6           0       -9.854957    1.799358   -0.558000
     27          6           0      -11.247249    1.491911   -0.922732
     28          6           0      -11.257671    0.067572   -1.183037
     29          6           0       -9.934555   -0.391376   -0.871621
     30          6           0      -12.321259    2.416890   -1.241966
     31          6           0      -12.379218   -0.777855   -1.590144
     32          6           0      -12.476547   -1.221499   -3.090000
     33          7           0       -7.147474   -1.394533   -0.263636
     34          6           0       -8.257703   -2.242478   -0.549479
     35          6           0       -7.889392   -3.635118   -0.536075
     36          6           0       -6.572942   -3.554414   -0.100135
     37          6           0       -6.167304   -2.190163    0.014675
     38          6           0       -8.698956   -4.826364   -0.926739
     39          6           0       -5.415170   -4.384613    0.292856
     40          8           0       -5.171676   -5.547596    0.516089
     41          6           0       -4.190157   -3.283486    0.562924
     42          6           0       -3.461615   -3.584007    1.832188
     43          8           0       -3.711513   -2.902373    2.837735
     44          8           0       -2.582552   -4.623494    1.704671
     45          6           0       -2.142208   -5.123965    2.965507
     46          6           0        2.756281   -0.604161   -1.283584
     47          6           0        4.146490   -0.611216   -0.681538
     48          6           0        5.076548    0.334426   -0.934963
     49          6           0        5.068106    1.358275   -2.055295
     50          6           0        6.335462    0.296090   -0.143943
     51          6           0        7.602024   -0.179943   -1.048052
     52          6           0        8.808299    0.013185   -0.144826
     53          6           0       10.112144   -0.460766   -0.867509
     54          6           0       10.078149   -1.931199   -1.418156
     55          6           0       11.463522   -0.255355   -0.010596
     56          6           0       12.840268   -0.659041   -0.615177
     57          6           0       14.065180   -0.042158    0.290570
     58          6           0       15.412745   -0.195993   -0.423853
     59          6           0       15.649188   -1.676401   -0.834789
     60          6           0       16.494805    0.431510    0.545808
     61          6           0       17.830297    0.461298   -0.076229
     62          6           0       18.941959    1.243177    0.667469
     63          6           0       20.422710    1.234822    0.122724
     64          6           0       20.395704    2.107958   -1.126666
     65          6           0       21.395116    1.905455    1.156627
     66          1           0       -3.895557    3.526471    1.134411
     67          1           0      -10.347262    3.547482   -0.404747
     68          1           0      -10.352562   -2.576571   -1.114865
     69          1           0       -2.632415   -1.080116    1.851476
     70          1           0       -2.332914    1.535116    0.673235
     71          1           0       -1.703900    1.047025    3.415606
     72          1           0       -2.843339    2.427992    3.336089
     73          1           0       -3.690964    0.841435    3.654835
     74          1           0       -2.103531   -1.610396   -0.455066
     75          1           0       -2.212094    0.261738   -0.811381
     76          1           0       -0.211210    0.466419    0.879560
     77          1           0       -0.182362   -1.156067    1.246006
     78          1           0       -4.788269    6.037900    0.453632
     79          1           0       -6.016519    6.777245    1.288158
     80          1           0       -4.817654    5.651211    2.046612
     81          1           0       -9.689246    5.716581    0.706019
     82          1           0       -9.043946    7.970198   -0.142796
     83          1           0       -7.395014    7.509405   -0.103267
     84          1           0      -12.081591    3.104172   -1.981190
     85          1           0      -13.237968    2.066053   -1.716234
     86          1           0      -12.647328    2.972996   -0.228198
     87          1           0      -12.261834   -1.621933   -0.872334
     88          1           0      -13.423005   -0.047229   -1.272996
     89          1           0      -13.499043   -1.678233   -3.197648
     90          1           0      -12.238913   -0.340530   -3.861057
     91          1           0      -11.610113   -2.140037   -3.184025
     92          1           0       -8.859968   -4.785685   -1.912752
     93          1           0       -8.075856   -5.770402   -0.940363
     94          1           0       -9.601345   -4.966358   -0.236831
     95          1           0       -3.505716   -3.399698   -0.436569
     96          1           0       -1.375506   -4.377184    3.339569
     97          1           0       -2.915227   -5.318173    3.638943
     98          1           0       -1.573875   -5.959826    2.703884
     99          1           0        2.653284   -1.597681   -1.844596
    100          1           0        2.597418    0.151174   -1.995141
    101          1           0        4.414315   -1.318507    0.218004
    102          1           0        4.087997    1.248053   -2.501518
    103          1           0        5.414605    2.331689   -1.771741
    104          1           0        5.753765    0.983558   -2.821367
    105          1           0        6.851940    1.205690    0.287055
    106          1           0        6.284895   -0.448608    0.605161
    107          1           0        7.375320   -1.252054   -1.114498
    108          1           0        7.750635    0.318550   -2.005233
    109          1           0        8.963207    1.004228    0.424475
    110          1           0        8.698458   -0.640394    0.788872
    111          1           0       10.440283    0.200458   -1.847459
    112          1           0        9.196237   -2.051147   -1.992149
    113          1           0       10.859452   -2.198697   -2.245566
    114          1           0       10.048499   -2.889129   -0.833133
    115          1           0       11.379292    0.770697    0.526040
    116          1           0       11.385858   -1.082282    0.763674
    117          1           0       12.950256   -1.763923   -0.636177
    118          1           0       12.825842   -0.027005   -1.568190
    119          1           0       13.779658    1.096202    0.348160
    120          1           0       14.179868   -0.230441    1.427802
    121          1           0       15.407892    0.307808   -1.434642
    122          1           0       15.574368   -2.146136    0.097319
    123          1           0       15.001622   -2.249191   -1.385734
    124          1           0       16.752037   -1.826208   -1.199879
    125          1           0       16.047883    1.483382    0.792229
    126          1           0       16.586900    0.034909    1.516030
    127          1           0       18.072254   -0.293515   -0.374532
    128          1           0       17.801020    0.925831   -1.061169
    129          1           0       18.534032    2.414001    0.993932
    130          1           0       18.985024    0.758554    1.753563
    131          1           0       20.715323    0.252199    0.065963
    132          1           0       19.912423    2.936143   -0.594143
    133          1           0       21.298785    2.331130   -1.378207
    134          1           0       19.570711    1.854975   -1.952058
    135          1           0       21.324265    1.342796    2.111760
    136          1           0       22.489937    1.968848    0.907521
    137          1           0       21.161464    3.033608    1.766651
 ---------------------------------------------------------------------

 SCF Done:  E(RCAM-B3LYP) =  -2932.59554887     A.U. after   15 cycles

 Excitation energies and oscillator strengths:

 Excited State   1:      Singlet-A      2.1329 eV  581.29 nm  f=0.2235  <S**2>=0.000
     240 -> 242       -0.16965
     240 -> 243        0.24862
     241 -> 242        0.62501
 This state for optimization and/or second-order correction.
 Total Energy, E(TD-HF/TD-KS) =  -2932.51716507
 Copying the excited state density for this state as the 1-particle RhoCI density.

 The electronic state is 1-A.
 Alpha  occ. eigenvalues --  -46.84589 -19.26260 -19.25451 -19.20652 -19.20418
 Alpha  occ. eigenvalues --  -19.19394 -14.41049 -14.39694 -14.39394 -14.38560
 Alpha  occ. eigenvalues --  -10.38786 -10.38355 -10.35575 -10.31653 -10.30758
 Alpha  occ. eigenvalues --  -10.30650 -10.30130 -10.29549 -10.29396 -10.29182
 Alpha  occ. eigenvalues --  -10.28611 -10.28611 -10.28558 -10.28506 -10.28494
 Alpha  occ. eigenvalues --  -10.28364 -10.28338 -10.28227 -10.28184 -10.28054
 Alpha  occ. eigenvalues --  -10.27988 -10.27894 -10.27448 -10.27344 -10.27340
 Alpha  occ. eigenvalues --  -10.27290 -10.27203 -10.27070 -10.26935 -10.26798
 Alpha  occ. eigenvalues --  -10.26762 -10.26616 -10.26562 -10.26535 -10.26523
 Alpha  occ. eigenvalues --  -10.26507 -10.26362 -10.25989 -10.25962 -10.25903
 Alpha  occ. eigenvalues --  -10.25805 -10.25766 -10.25703 -10.25585 -10.25505
 Alpha  occ. eigenvalues --  -10.25296 -10.25289 -10.25229 -10.25221 -10.25180
 Alpha  occ. eigenvalues --  -10.25160 -10.25070 -10.23764 -10.23533 -10.22236
 Alpha  occ. eigenvalues --   -3.13597  -1.88315  -1.87817  -1.87783  -1.17886
 Alpha  occ. eigenvalues --   -1.16938  -1.11289  -1.08283  -1.07463  -1.07018
 Alpha  occ. eigenvalues --   -1.04700  -1.03982  -1.03173  -0.91098  -0.91011
 Alpha  occ. eigenvalues --   -0.90399  -0.90251  -0.89068  -0.88992  -0.88431
 Alpha  occ. eigenvalues --   -0.88264  -0.87906  -0.87773  -0.87650  -0.85744
 Alpha  occ. eigenvalues --   -0.84856  -0.84433  -0.83369  -0.82990  -0.82698
 Alpha  occ. eigenvalues --   -0.81403  -0.81112  -0.80819  -0.79341  -0.78866
 Alpha  occ. eigenvalues --   -0.78250  -0.76817  -0.76424  -0.76106  -0.75445
 Alpha  occ. eigenvalues --   -0.75194  -0.75008  -0.73815  -0.73485  -0.72359
 Alpha  occ. eigenvalues --   -0.71251  -0.70213  -0.69246  -0.68673  -0.68336
 Alpha  occ. eigenvalues --   -0.67451  -0.67410  -0.65746  -0.65088  -0.64883
 Alpha  occ. eigenvalues --   -0.64537  -0.63577  -0.62935  -0.62220  -0.61880
 Alpha  occ. eigenvalues --   -0.61391  -0.60825  -0.59940  -0.59733  -0.59247
 Alpha  occ. eigenvalues --   -0.59159  -0.58326  -0.57600  -0.56685  -0.56309
 Alpha  occ. eigenvalues --   -0.55702  -0.55333  -0.55039  -0.54880  -0.54638
 Alpha  occ. eigenvalues --   -0.54169  -0.53833  -0.53589  -0.53321  -0.53087
 Alpha  occ. eigenvalues --   -0.52785  -0.52544  -0.52100  -0.51878  -0.51733
 Alpha  occ. eigenvalues --   -0.51519  -0.51040  -0.50907  -0.50759  -0.50632
 Alpha  occ. eigenvalues --   -0.50374  -0.50059  -0.49544  -0.49451  -0.49345
 Alpha  occ. eigenvalues --   -0.49213  -0.49030  -0.48879  -0.48765  -0.48491
 Alpha  occ. eigenvalues --   -0.48238  -0.47813  -0.47700  -0.47241  -0.47078
 Alpha  occ. eigenvalues --   -0.46932  -0.46891  -0.46648  -0.46379  -0.46279
 Alpha  occ. eigenvalues --   -0.46199  -0.45927  -0.45818  -0.45589  -0.45500
 Alpha  occ. eigenvalues --   -0.45289  -0.44654  -0.44367  -0.44323  -0.43884
 Alpha  occ. eigenvalues --   -0.43575  -0.43539  -0.43441  -0.43430  -0.43108
 Alpha  occ. eigenvalues --   -0.42996  -0.42556  -0.42476  -0.42211  -0.42157
 Alpha  occ. eigenvalues --   -0.42084  -0.41694  -0.41430  -0.41145  -0.41087
 Alpha  occ. eigenvalues --   -0.40943  -0.40769  -0.40506  -0.40302  -0.40062
 Alpha  occ. eigenvalues --   -0.39996  -0.39398  -0.39146  -0.39061  -0.38816
 Alpha  occ. eigenvalues --   -0.38632  -0.38439  -0.38226  -0.37842  -0.37814
 Alpha  occ. eigenvalues --   -0.37450  -0.37211  -0.37129  -0.37055  -0.36867
 Alpha  occ. eigenvalues --   -0.36739  -0.35496  -0.35468  -0.35373  -0.35366
 Alpha  occ. eigenvalues --   -0.34929  -0.34212  -0.34137  -0.33415  -0.33072
 Alpha  occ. eigenvalues --   -0.32705  -0.32450  -0.32167  -0.31201  -0.29817
 Alpha  occ. eigenvalues --   -0.29368  -0.28764  -0.27870  -0.26759  -0.22894
 Alpha  occ. eigenvalues --   -0.21662
 Alpha virt. eigenvalues --   -0.06454  -0.02958   0.02638   0.04539   0.05459
 Alpha virt. eigenvalues --    0.05913   0.06101   0.06513   0.07011   0.07896
 Alpha virt. eigenvalues --    0.09149   0.10392   0.10738   0.11685   0.11826

 Mulliken charges:
               1
     1  Mg   0.816875
     2  C    0.097049
     3  C   -0.202178
     4  C   -0.113142
     5  C   -0.157013
     6  N   -0.628004
     7  C    0.325208
     8  C   -0.111567
     9  C   -0.159626
    10  C    0.331827
    11  C   -0.299643
    12  C   -0.188652
    13  C   -0.253082
    14  C    0.562788
    15  O   -0.481972
    16  O   -0.474420
    17  N   -0.733826
    18  C    0.330962
    19  C   -0.018929
    20  C   -0.004894
    21  C    0.330748
    22  C   -0.358867
    23  C   -0.070976
    24  C   -0.225582
    25  N   -0.702806
    26  C    0.260736
    27  C    0.000331
    28  C    0.019191
    29  C    0.325453
    30  C   -0.391253
    31  C   -0.242579
    32  C   -0.276823
    33  N   -0.701085
    34  C    0.204261
    35  C    0.060991
    36  C   -0.021834
    37  C    0.270622
    38  C   -0.379879
    39  C    0.364743
    40  O   -0.452114
    41  C   -0.341220
    42  C    0.651430
    43  O   -0.490583
    44  O   -0.459904
    45  C   -0.079311
    46  C    0.028274
    47  C   -0.158808
    48  C    0.138387
    49  C   -0.355804
    50  C   -0.241861
    51  C   -0.187326
    52  C   -0.185921
    53  C   -0.042895
    54  C   -0.333199
    55  C   -0.179487
    56  C   -0.180798
    57  C   -0.189181
    58  C   -0.051655
    59  C   -0.323255
    60  C   -0.183056
    61  C   -0.117025
    62  C   -0.177141
    63  C   -0.062453
    64  C   -0.275403
    65  C   -0.312374
    66  H    0.094061
    67  H    0.088631
    68  H    0.109897
    69  H    0.125392
    70  H    0.089587
    71  H    0.096599
    72  H    0.098642
    73  H    0.120947
    74  H    0.123388
    75  H    0.107031
    76  H    0.142965
    77  H    0.146759
    78  H    0.132437
    79  H    0.120003
    80  H    0.115793
    81  H    0.098745
    82  H    0.105018
    83  H    0.103143
    84  H    0.134134
    85  H    0.117054
    86  H    0.095147
    87  H    0.108371
    88  H    0.059384
    89  H    0.116464
    90  H    0.109004
    91  H    0.072982
    92  H    0.146011
    93  H    0.139195
    94  H    0.127656
    95  H    0.136526
    96  H    0.109374
    97  H    0.144249
    98  H    0.128847
    99  H    0.120558
   100  H    0.120082
   101  H    0.086434
   102  H    0.105114
   103  H    0.125397
   104  H    0.127061
   105  H    0.098916
   106  H    0.102755
   107  H    0.116948
   108  H    0.106223
   109  H    0.091050
   110  H    0.093256
   111  H    0.057595
   112  H    0.109085
   113  H    0.091221
   114  H    0.098903
   115  H    0.075465
   116  H    0.080064
   117  H    0.110545
   118  H    0.094125
   119  H    0.077733
   120  H    0.088698
   121  H    0.086966
   122  H    0.106026
   123  H    0.116378
   124  H    0.082491
   125  H    0.080772
   126  H    0.099496
   127  H    0.083449
   128  H    0.079014
   129  H    0.056407
   130  H    0.056484
   131  H    0.102517
   132  H    0.110692
   133  H    0.103343
   134  H    0.084728
   135  H    0.104474
   136  H    0.104373
   137  H    0.061256
 Sum of Mulliken charges =   0.00000

 Dipole moment (field-independent basis, Debye):
    X=              0.3384    Y=              3.6559    Z=             -0.0293  Tot=              3.6716
 Quadrupole moment (field-independent basis, Debye-Ang):
   XX=           -350.4845   YY=           -386.9641   ZZ=           -398.9289
   XY=            -27.1046   XZ=             15.2409   YZ=             -1.4684

 Normal termination of Gaussian 09 at Wed Jun 26 21:31:39 2019.
