 Gaussian 09, Revision D.01,
 Gaussian 09:  ES64L-G09RevD.01 24-Apr-2013

 -------------------------------------
 # td=(NStates=1) CAM-B3LYP/6-31G(d,p)
 -------------------------------------

 --
 TD
 --
 Symbolic Z-matrix:
 Charge =  0 Multiplicity = 1

                         Standard orientation:
 ---------------------------------------------------------------------
 Center     Atomic      Atomic             Coordinates (Angstroms)
 Number     Number       Type             X           Y           Z
 ---------------------------------------------------------------------
      1         12           0       -7.055822    0.672226    0.139439
      2          6           0       -4.844435   -1.927632    0.566374
      3          6           0       -4.787319    2.882518    1.219649
      4          6           0       -9.409988    3.086496   -0.287747
      5          6           0       -9.472102   -1.670107   -0.902838
      6          7           0       -5.062535    0.498956    0.718466
      7          6           0       -4.364205   -0.681786    0.784995
      8          6           0       -2.894949   -0.338053    1.206181
      9          6           0       -3.049932    1.106908    1.665985
     10          6           0       -4.377093    1.521387    1.216304
     11          6           0       -2.874598    1.197305    3.161838
     12          6           0       -1.874134   -0.558616    0.145214
     13          6           0       -0.404768   -0.449347    0.586894
     14          6           0        0.480220   -0.681594   -0.545627
     15          8           0        0.202272   -1.148527   -1.660389
     16          8           0        1.764043   -0.507903   -0.191233
     17          7           0       -7.131620    2.648142    0.430995
     18          6           0       -6.108886    3.305372    0.897225
     19          6           0       -6.497442    4.762817    0.877884
     20          6           0       -7.753379    4.759117    0.427108
     21          6           0       -8.133955    3.365733    0.185186
     22          6           0       -5.477373    5.823811    1.350816
     23          6           0       -8.585154    5.909489    0.193936
     24          6           0       -8.325037    7.176722   -0.022091
     25          7           0       -9.177002    0.627496   -0.443375
     26          6           0       -9.952559    1.761401   -0.581028
     27          6           0      -11.191142    1.484491   -1.045824
     28          6           0      -11.204948    0.119310   -1.349687
     29          6           0       -9.885952   -0.391633   -0.905851
     30          6           0      -12.358987    2.363934   -1.395073
     31          6           0      -12.444059   -0.655054   -1.736878
     32          6           0      -12.314907   -1.119115   -3.274211
     33          7           0       -7.131812   -1.331134   -0.075875
     34          6           0       -8.160147   -2.143813   -0.419564
     35          6           0       -7.832024   -3.611732   -0.479761
     36          6           0       -6.460594   -3.582147   -0.068306
     37          6           0       -6.201506   -2.240125    0.150644
     38          6           0       -8.707375   -4.837169   -0.889051
     39          6           0       -5.260616   -4.393872    0.372132
     40          8           0       -5.069926   -5.565978    0.261004
     41          6           0       -4.114866   -3.202261    0.533898
     42          6           0       -3.386554   -3.611581    1.848068
     43          8           0       -3.742321   -3.252571    2.932022
     44          8           0       -2.593880   -4.594093    1.563156
     45          6           0       -2.002032   -5.200003    2.688983
     46          6           0        2.785100   -0.658905   -1.240335
     47          6           0        4.149006   -0.527097   -0.502371
     48          6           0        5.052307    0.304175   -0.960249
     49          6           0        4.909771    1.358233   -2.165501
     50          6           0        6.367234    0.413930   -0.195334
     51          6           0        7.556641   -0.279380   -0.945911
     52          6           0        8.840593   -0.028028   -0.169868
     53          6           0       10.085033   -0.494096   -0.957539
     54          6           0       10.134233   -2.029702   -1.343085
     55          6           0       11.473016   -0.227035   -0.119050
     56          6           0       12.736286   -0.397824   -0.879450
     57          6           0       13.893056    0.051519    0.050667
     58          6           0       15.332846   -0.207863   -0.577978
     59          6           0       15.586847   -1.657531   -0.993100
     60          6           0       16.369652    0.401843    0.386240
     61          6           0       17.791927    0.553968   -0.230713
     62          6           0       18.754029    1.185272    0.799738
     63          6           0       20.169032    1.264562    0.315749
     64          6           0       20.395465    2.232216   -0.899266
     65          6           0       21.204366    1.820368    1.344855
     66          1           0       -3.987825    3.491983    1.509350
     67          1           0      -10.054492    3.844597   -0.483734
     68          1           0      -10.025981   -2.448712   -1.137038
     69          1           0       -2.653550   -0.975956    2.126493
     70          1           0       -2.265729    1.799402    0.995668
     71          1           0       -1.970233    0.800266    3.555223
     72          1           0       -2.943210    2.131310    3.434769
     73          1           0       -3.804650    0.590485    3.636682
     74          1           0       -1.834357   -1.636137   -0.255807
     75          1           0       -2.159058    0.104285   -0.750438
     76          1           0       -0.156755    0.583062    1.169233
     77          1           0       -0.092090   -1.459403    1.244157
     78          1           0       -5.001274    6.221062    0.416266
     79          1           0       -6.111171    6.569469    1.727754
     80          1           0       -4.773820    5.763621    2.188468
     81          1           0       -9.591226    5.559301    0.256240
     82          1           0       -9.131317    7.852417   -0.010597
     83          1           0       -7.242343    7.461600   -0.103743
     84          1           0      -12.239264    2.832802   -2.395445
     85          1           0      -13.252498    1.601487   -1.537988
     86          1           0      -12.445064    3.160113   -0.644196
     87          1           0      -12.329576   -1.650652   -1.206510
     88          1           0      -13.172833   -0.041356   -1.472766
     89          1           0      -13.265757   -1.961749   -3.520289
     90          1           0      -12.729978   -0.109427   -3.836115
     91          1           0      -11.332107   -1.446901   -3.518539
     92          1           0       -8.614669   -5.056748   -1.986833
     93          1           0       -8.171456   -5.771109   -0.231919
     94          1           0       -9.788712   -4.919374   -0.307467
     95          1           0       -3.418164   -3.350091   -0.267170
     96          1           0       -1.458763   -4.441236    3.434915
     97          1           0       -2.952900   -5.673473    3.243735
     98          1           0       -1.352808   -6.021198    2.407026
     99          1           0        2.857028   -1.582827   -1.690885
    100          1           0        2.394747   -0.104830   -2.091616
    101          1           0        4.028022   -1.089818    0.411628
    102          1           0        4.005297    1.322920   -2.734595
    103          1           0        5.152188    2.218056   -1.705581
    104          1           0        5.704644    0.969585   -2.876477
    105          1           0        6.509807    1.453814   -0.033382
    106          1           0        6.166209   -0.177573    0.821552
    107          1           0        7.532089   -1.197578   -0.937596
    108          1           0        7.613576    0.105560   -1.968699
    109          1           0        8.913177    1.052307    0.048285
    110          1           0        8.848798   -0.714947    0.728207
    111          1           0       10.235666    0.053765   -1.853254
    112          1           0        9.181928   -2.394716   -1.893735
    113          1           0       10.939073   -2.276943   -2.112687
    114          1           0        9.977199   -2.534171   -0.299583
    115          1           0       11.594525    0.818494    0.351098
    116          1           0       11.215981   -1.044495    0.702097
    117          1           0       12.945283   -1.336811   -1.147166
    118          1           0       12.718637    0.228316   -1.765015
    119          1           0       13.901813    1.139124    0.362284
    120          1           0       13.823370   -0.317453    1.071531
    121          1           0       15.363185    0.372000   -1.499300
    122          1           0       15.671795   -2.156180    0.034479
    123          1           0       14.723731   -2.050946   -1.548437
    124          1           0       16.467125   -1.764235   -1.474600
    125          1           0       15.907731    1.312584    0.497386
    126          1           0       16.342674   -0.029841    1.358169
    127          1           0       18.201205   -0.354455   -0.559258
    128          1           0       17.539976    1.126642   -1.028229
    129          1           0       18.462531    2.142751    0.986823
    130          1           0       18.826736    0.745349    1.875207
    131          1           0       20.587454    0.287253    0.119334
    132          1           0       20.231909    3.365679   -0.512403
    133          1           0       21.298427    2.067518   -1.304210
    134          1           0       19.467002    2.090510   -1.684912
    135          1           0       21.396853    0.957872    2.059653
    136          1           0       22.274798    1.984850    1.077995
    137          1           0       20.888697    2.832001    1.855598
 ---------------------------------------------------------------------

 SCF Done:  E(RCAM-B3LYP) =  -2932.65413869     A.U. after   17 cycles

 Excitation energies and oscillator strengths:

 Excited State   1:      Singlet-A      2.1764 eV  569.68 nm  f=0.2235  <S**2>=0.000
     240 -> 242       -0.10209
     240 -> 243       -0.23757
     241 -> 242        0.64875
 This state for optimization and/or second-order correction.
 Total Energy, E(TD-HF/TD-KS) =  -2932.57415861
 Copying the excited state density for this state as the 1-particle RhoCI density.

 The electronic state is 1-A.
 Alpha  occ. eigenvalues --  -46.85052 -19.27090 -19.25462 -19.21155 -19.20069
 Alpha  occ. eigenvalues --  -19.19956 -14.41337 -14.39578 -14.39509 -14.38422
 Alpha  occ. eigenvalues --  -10.38677 -10.38128 -10.35671 -10.32718 -10.30859
 Alpha  occ. eigenvalues --  -10.30634 -10.30405 -10.30062 -10.29553 -10.29396
 Alpha  occ. eigenvalues --  -10.29293 -10.29026 -10.28775 -10.28536 -10.28475
 Alpha  occ. eigenvalues --  -10.28091 -10.27815 -10.27470 -10.27283 -10.27258
 Alpha  occ. eigenvalues --  -10.27088 -10.27044 -10.27026 -10.26960 -10.26897
 Alpha  occ. eigenvalues --  -10.26469 -10.26447 -10.26381 -10.26213 -10.26169
 Alpha  occ. eigenvalues --  -10.26075 -10.26044 -10.26043 -10.26022 -10.26006
 Alpha  occ. eigenvalues --  -10.25942 -10.25720 -10.25670 -10.25617 -10.25614
 Alpha  occ. eigenvalues --  -10.25613 -10.25583 -10.25465 -10.25455 -10.25426
 Alpha  occ. eigenvalues --  -10.25275 -10.25086 -10.24966 -10.24925 -10.24628
 Alpha  occ. eigenvalues --  -10.24073 -10.23993 -10.23771 -10.23666 -10.23442
 Alpha  occ. eigenvalues --   -3.14073  -1.88787  -1.88296  -1.88263  -1.20734
 Alpha  occ. eigenvalues --   -1.17165  -1.12496  -1.10029  -1.08203  -1.07113
 Alpha  occ. eigenvalues --   -1.05245  -1.04326  -1.03366  -0.91841  -0.90957
 Alpha  occ. eigenvalues --   -0.90482  -0.90303  -0.90093  -0.89097  -0.88808
 Alpha  occ. eigenvalues --   -0.88661  -0.88071  -0.87644  -0.86558  -0.86022
 Alpha  occ. eigenvalues --   -0.85438  -0.84125  -0.83344  -0.82909  -0.82427
 Alpha  occ. eigenvalues --   -0.81554  -0.81397  -0.80341  -0.79729  -0.78516
 Alpha  occ. eigenvalues --   -0.78086  -0.76344  -0.76105  -0.75999  -0.75752
 Alpha  occ. eigenvalues --   -0.75429  -0.73901  -0.73600  -0.73336  -0.72196
 Alpha  occ. eigenvalues --   -0.72039  -0.70742  -0.69761  -0.69147  -0.68444
 Alpha  occ. eigenvalues --   -0.67849  -0.67280  -0.65548  -0.64977  -0.64730
 Alpha  occ. eigenvalues --   -0.64042  -0.63466  -0.62923  -0.62710  -0.62306
 Alpha  occ. eigenvalues --   -0.61827  -0.60849  -0.60292  -0.59982  -0.59420
 Alpha  occ. eigenvalues --   -0.58392  -0.58242  -0.57568  -0.56916  -0.56693
 Alpha  occ. eigenvalues --   -0.56059  -0.55952  -0.55633  -0.54958  -0.54894
 Alpha  occ. eigenvalues --   -0.54686  -0.54406  -0.53915  -0.53830  -0.53312
 Alpha  occ. eigenvalues --   -0.52969  -0.52726  -0.52548  -0.52368  -0.52161
 Alpha  occ. eigenvalues --   -0.51581  -0.51337  -0.50976  -0.50797  -0.50539
 Alpha  occ. eigenvalues --   -0.50275  -0.50137  -0.49771  -0.49755  -0.49513
 Alpha  occ. eigenvalues --   -0.49404  -0.49050  -0.48954  -0.48803  -0.48440
 Alpha  occ. eigenvalues --   -0.48229  -0.47996  -0.47911  -0.47593  -0.47528
 Alpha  occ. eigenvalues --   -0.47513  -0.47139  -0.46812  -0.46625  -0.46412
 Alpha  occ. eigenvalues --   -0.46202  -0.45899  -0.45483  -0.45254  -0.45165
 Alpha  occ. eigenvalues --   -0.45108  -0.45000  -0.44550  -0.44044  -0.43770
 Alpha  occ. eigenvalues --   -0.43625  -0.43596  -0.43448  -0.43311  -0.43252
 Alpha  occ. eigenvalues --   -0.43171  -0.43098  -0.42634  -0.42568  -0.42534
 Alpha  occ. eigenvalues --   -0.42022  -0.41645  -0.41518  -0.41257  -0.41044
 Alpha  occ. eigenvalues --   -0.40861  -0.40776  -0.40644  -0.40405  -0.40209
 Alpha  occ. eigenvalues --   -0.40135  -0.39952  -0.39469  -0.39240  -0.38903
 Alpha  occ. eigenvalues --   -0.38598  -0.38469  -0.38232  -0.37857  -0.37827
 Alpha  occ. eigenvalues --   -0.37648  -0.37617  -0.37427  -0.37326  -0.36776
 Alpha  occ. eigenvalues --   -0.36400  -0.36351  -0.35945  -0.35829  -0.35442
 Alpha  occ. eigenvalues --   -0.35262  -0.34962  -0.34362  -0.33332  -0.33269
 Alpha  occ. eigenvalues --   -0.32977  -0.32453  -0.32112  -0.30694  -0.29931
 Alpha  occ. eigenvalues --   -0.29828  -0.29191  -0.28449  -0.27398  -0.22863
 Alpha  occ. eigenvalues --   -0.21204
 Alpha virt. eigenvalues --   -0.05907  -0.02550   0.02175   0.04420   0.05480
 Alpha virt. eigenvalues --    0.05639   0.06432   0.07500   0.07849   0.08131
 Alpha virt. eigenvalues --    0.08803   0.10821   0.11233   0.11580   0.11680

 Mulliken charges:
               1
     1  Mg   0.827305
     2  C    0.132989
     3  C   -0.184937
     4  C   -0.172096
     5  C   -0.141089
     6  N   -0.656313
     7  C    0.260623
     8  C   -0.145041
     9  C   -0.171697
    10  C    0.365033
    11  C   -0.295116
    12  C   -0.157765
    13  C   -0.265672
    14  C    0.627574
    15  O   -0.503370
    16  O   -0.490490
    17  N   -0.726374
    18  C    0.304346
    19  C   -0.015449
    20  C   -0.024685
    21  C    0.392261
    22  C   -0.378410
    23  C   -0.039464
    24  C   -0.254265
    25  N   -0.687690
    26  C    0.288157
    27  C    0.017497
    28  C   -0.001515
    29  C    0.328768
    30  C   -0.352665
    31  C   -0.223124
    32  C   -0.283367
    33  N   -0.673005
    34  C    0.217589
    35  C   -0.015949
    36  C   -0.001249
    37  C    0.258333
    38  C   -0.372394
    39  C    0.390027
    40  O   -0.427065
    41  C   -0.358556
    42  C    0.594609
    43  O   -0.476474
    44  O   -0.403586
    45  C   -0.091906
    46  C    0.007027
    47  C   -0.146740
    48  C    0.083459
    49  C   -0.337872
    50  C   -0.228540
    51  C   -0.138160
    52  C   -0.174274
    53  C   -0.090267
    54  C   -0.315890
    55  C   -0.159934
    56  C   -0.161795
    57  C   -0.203724
    58  C   -0.079779
    59  C   -0.297485
    60  C   -0.190113
    61  C   -0.176594
    62  C   -0.158119
    63  C   -0.062850
    64  C   -0.281950
    65  C   -0.316319
    66  H    0.082606
    67  H    0.073707
    68  H    0.069888
    69  H    0.116675
    70  H    0.080266
    71  H    0.118986
    72  H    0.115339
    73  H    0.110582
    74  H    0.118831
    75  H    0.111323
    76  H    0.122722
    77  H    0.130166
    78  H    0.125845
    79  H    0.129530
    80  H    0.125999
    81  H    0.078122
    82  H    0.105941
    83  H    0.094719
    84  H    0.127928
    85  H    0.094378
    86  H    0.116086
    87  H    0.110772
    88  H    0.106022
    89  H    0.068262
    90  H    0.086295
    91  H    0.132555
    92  H    0.143643
    93  H    0.118483
    94  H    0.113294
    95  H    0.157878
    96  H    0.116125
    97  H    0.121958
    98  H    0.131475
    99  H    0.132755
   100  H    0.118567
   101  H    0.110173
   102  H    0.119865
   103  H    0.131073
   104  H    0.113829
   105  H    0.098892
   106  H    0.084998
   107  H    0.106813
   108  H    0.090982
   109  H    0.094407
   110  H    0.081903
   111  H    0.082437
   112  H    0.090013
   113  H    0.113635
   114  H    0.093763
   115  H    0.078112
   116  H    0.067926
   117  H    0.109996
   118  H    0.096388
   119  H    0.078652
   120  H    0.095689
   121  H    0.076023
   122  H    0.087467
   123  H    0.096416
   124  H    0.110237
   125  H    0.098007
   126  H    0.089543
   127  H    0.100053
   128  H    0.108309
   129  H    0.100207
   130  H    0.079596
   131  H    0.088840
   132  H    0.078757
   133  H    0.117284
   134  H    0.064904
   135  H    0.083254
   136  H    0.101725
   137  H    0.087690
 Sum of Mulliken charges =   0.00000

 Dipole moment (field-independent basis, Debye):
    X=              2.2272    Y=              4.5904    Z=              0.1964  Tot=              5.1060
 Quadrupole moment (field-independent basis, Debye-Ang):
   XX=           -359.2316   YY=           -392.8282   ZZ=           -399.3757
   XY=            -22.6379   XZ=              4.5612   YZ=              0.4601

 Normal termination of Gaussian 09 at Thu Jun 27 23:05:13 2019.
