 Gaussian 09, Revision D.01,
 Gaussian 09:  ES64L-G09RevD.01 24-Apr-2013

 -------------------------------------
 # td=(NStates=1) CAM-B3LYP/6-31G(d,p)
 -------------------------------------

 --
 TD
 --
 Symbolic Z-matrix:
 Charge =  0 Multiplicity = 1

                         Standard orientation:
 ---------------------------------------------------------------------
 Center     Atomic      Atomic             Coordinates (Angstroms)
 Number     Number       Type             X           Y           Z
 ---------------------------------------------------------------------
      1         12           0       -7.202694    0.502607    0.128346
      2          6           0       -4.884900   -1.964907    0.638601
      3          6           0       -4.943096    2.934087    1.259720
      4          6           0       -9.480899    3.061092   -0.304531
      5          6           0       -9.558321   -1.746099   -0.947746
      6          7           0       -5.164211    0.458217    0.742178
      7          6           0       -4.386196   -0.736970    0.775060
      8          6           0       -2.946502   -0.383475    1.079230
      9          6           0       -3.062217    1.033804    1.598997
     10          6           0       -4.489792    1.469489    1.255769
     11          6           0       -2.948134    1.178921    3.095342
     12          6           0       -1.959173   -0.514769   -0.035613
     13          6           0       -0.468199   -0.393107    0.396156
     14          6           0        0.571311   -0.637313   -0.666817
     15          8           0        0.269454   -0.988695   -1.813155
     16          8           0        1.850268   -0.353499   -0.240602
     17          7           0       -7.130506    2.576503    0.357027
     18          6           0       -6.125632    3.318828    0.820467
     19          6           0       -6.509052    4.811210    0.736495
     20          6           0       -7.821299    4.794831    0.445605
     21          6           0       -8.224593    3.452375    0.172115
     22          6           0       -5.616696    5.933128    1.252702
     23          6           0       -8.655291    6.005544    0.371187
     24          6           0       -8.243006    7.197232    0.112851
     25          7           0       -9.162708    0.652364   -0.390486
     26          6           0       -9.871304    1.773449   -0.619221
     27          6           0      -11.179631    1.518172   -1.009280
     28          6           0      -11.264163    0.076666   -1.281830
     29          6           0       -9.962113   -0.365746   -0.914235
     30          6           0      -12.294524    2.461597   -1.219380
     31          6           0      -12.428510   -0.777380   -1.888580
     32          6           0      -12.341149   -1.076870   -3.331194
     33          7           0       -7.237810   -1.341380   -0.141656
     34          6           0       -8.343811   -2.175402   -0.518690
     35          6           0       -7.903944   -3.616058   -0.533885
     36          6           0       -6.557027   -3.582264   -0.151400
     37          6           0       -6.229838   -2.201662    0.101496
     38          6           0       -8.677816   -4.804034   -0.896015
     39          6           0       -5.370075   -4.380269    0.157618
     40          8           0       -5.103296   -5.598219    0.117684
     41          6           0       -4.207787   -3.343474    0.564359
     42          6           0       -3.669874   -3.559502    1.967655
     43          8           0       -3.914477   -3.079285    2.946368
     44          8           0       -2.652473   -4.555220    1.825590
     45          6           0       -2.268751   -5.170853    3.025061
     46          6           0        2.904170   -0.591583   -1.153115
     47          6           0        4.231686   -0.468805   -0.532818
     48          6           0        5.210549    0.364453   -0.905566
     49          6           0        5.099495    1.192409   -2.243495
     50          6           0        6.528646    0.401951   -0.099408
     51          6           0        7.759111   -0.142876   -0.910333
     52          6           0        9.015753   -0.194242   -0.109321
     53          6           0       10.278107   -0.723529   -0.793395
     54          6           0       10.150365   -2.161817   -1.277892
     55          6           0       11.552973   -0.443217    0.048138
     56          6           0       12.890022   -0.511371   -0.621295
     57          6           0       13.988644   -0.036477    0.179136
     58          6           0       15.476058   -0.236039   -0.437271
     59          6           0       15.751117   -1.737993   -0.830287
     60          6           0       16.492425    0.506261    0.446515
     61          6           0       17.858721    0.592568   -0.294329
     62          6           0       18.803275    1.308694    0.760141
     63          6           0       20.303682    1.436315    0.234324
     64          6           0       20.422164    2.086702   -1.159581
     65          6           0       21.210202    1.971994    1.329304
     66          1           0       -3.903068    3.514668    1.470927
     67          1           0      -10.309000    3.812850   -0.685176
     68          1           0      -10.218595   -2.544802   -1.243285
     69          1           0       -2.842225   -1.091497    1.861501
     70          1           0       -2.456874    1.715760    1.144642
     71          1           0       -1.891927    0.814223    3.430954
     72          1           0       -3.182092    2.217684    3.532833
     73          1           0       -3.707447    0.700141    3.659993
     74          1           0       -1.846712   -1.479199   -0.453439
     75          1           0       -2.286969    0.367376   -0.758356
     76          1           0       -0.179754    0.482061    0.934799
     77          1           0       -0.309581   -1.330644    1.042315
     78          1           0       -4.991175    6.116837    0.358527
     79          1           0       -6.204156    6.905699    1.380479
     80          1           0       -5.219782    5.857315    2.126496
     81          1           0       -9.544787    5.759521    0.692827
     82          1           0       -9.040587    7.996761    0.200485
     83          1           0       -7.219148    7.414117   -0.212692
     84          1           0      -12.133350    3.216864   -2.015690
     85          1           0      -13.157436    1.771405   -1.391312
     86          1           0      -12.434527    2.923992   -0.293244
     87          1           0      -12.261894   -1.719944   -1.452924
     88          1           0      -13.396527   -0.303048   -1.517040
     89          1           0      -13.204758   -1.787480   -3.546151
     90          1           0      -12.434375    0.016186   -3.910091
     91          1           0      -11.429070   -1.635417   -3.532243
     92          1           0       -9.188593   -4.988911   -2.068115
     93          1           0       -8.067553   -5.628850   -0.576331
     94          1           0       -9.456387   -5.147994   -0.232442
     95          1           0       -3.457120   -3.459576   -0.204703
     96          1           0       -1.737189   -4.400023    3.828821
     97          1           0       -3.198104   -5.454248    3.708584
     98          1           0       -1.579775   -5.993826    2.724456
     99          1           0        2.696620   -1.565072   -1.532557
    100          1           0        2.694195    0.068333   -2.061977
    101          1           0        4.304492   -1.121938    0.170610
    102          1           0        3.972532    1.092726   -2.568533
    103          1           0        5.444561    2.257767   -2.143488
    104          1           0        6.018801    0.757791   -3.061763
    105          1           0        6.687951    1.412104    0.211073
    106          1           0        6.383291   -0.176072    0.702972
    107          1           0        7.479958   -1.174226   -1.162866
    108          1           0        7.675519    0.422678   -1.850603
    109          1           0        9.354683    0.651147    0.171405
    110          1           0        8.861125   -0.846187    0.897359
    111          1           0       10.223445   -0.072542   -1.790632
    112          1           0        9.121681   -2.399583   -1.685763
    113          1           0       11.037641   -2.146005   -1.983555
    114          1           0       10.044313   -2.808263   -0.348180
    115          1           0       11.612582    0.741439    0.250534
    116          1           0       11.723907   -1.196506    0.819226
    117          1           0       13.004116   -1.495241   -1.032293
    118          1           0       13.001723    0.023054   -1.546559
    119          1           0       14.060075    0.969314    0.435250
    120          1           0       14.017620   -0.546627    1.124935
    121          1           0       15.387083    0.464764   -1.556017
    122          1           0       15.649613   -2.411826    0.053038
    123          1           0       15.142929   -1.977647   -1.479508
    124          1           0       16.794140   -1.963777   -1.157494
    125          1           0       16.333253    1.429486    0.710420
    126          1           0       16.504479   -0.082261    1.290270
    127          1           0       18.193834   -0.264563   -0.700811
    128          1           0       17.552643    1.249236   -1.111638
    129          1           0       18.495021    2.392144    0.880730
    130          1           0       18.623634    0.741420    1.701344
    131          1           0       20.575318    0.356510   -0.000295
    132          1           0       20.175559    3.106500   -0.879929
    133          1           0       21.531461    2.086131   -1.675947
    134          1           0       19.697116    1.637010   -1.843696
    135          1           0       20.923317    1.614164    2.270129
    136          1           0       22.382213    1.740875    1.064952
    137          1           0       21.180293    3.321842    1.392623
 ---------------------------------------------------------------------

 SCF Done:  E(RCAM-B3LYP) =  -2932.59151470     A.U. after   17 cycles

 Excitation energies and oscillator strengths:

 Excited State   1:      Singlet-A      2.0802 eV  596.02 nm  f=0.2930  <S**2>=0.000
     240 -> 243       -0.21084
     241 -> 242        0.66233
 This state for optimization and/or second-order correction.
 Total Energy, E(TD-HF/TD-KS) =  -2932.51506852
 Copying the excited state density for this state as the 1-particle RhoCI density.

 The electronic state is 1-A.
 Alpha  occ. eigenvalues --  -46.82973 -19.26347 -19.24323 -19.23547 -19.21228
 Alpha  occ. eigenvalues --  -19.20774 -14.42235 -14.40512 -14.38905 -14.38159
 Alpha  occ. eigenvalues --  -10.39903 -10.39361 -10.36261 -10.32635 -10.32131
 Alpha  occ. eigenvalues --  -10.31232 -10.30807 -10.30464 -10.29759 -10.29677
 Alpha  occ. eigenvalues --  -10.29540 -10.29409 -10.29214 -10.28989 -10.28456
 Alpha  occ. eigenvalues --  -10.28413 -10.28309 -10.28212 -10.28031 -10.27978
 Alpha  occ. eigenvalues --  -10.27466 -10.27448 -10.27395 -10.27386 -10.27302
 Alpha  occ. eigenvalues --  -10.27226 -10.27008 -10.26930 -10.26779 -10.26730
 Alpha  occ. eigenvalues --  -10.26674 -10.26607 -10.26527 -10.26502 -10.26329
 Alpha  occ. eigenvalues --  -10.26317 -10.26213 -10.26190 -10.25803 -10.25787
 Alpha  occ. eigenvalues --  -10.25750 -10.25614 -10.25520 -10.25393 -10.25108
 Alpha  occ. eigenvalues --  -10.25004 -10.24986 -10.24869 -10.24733 -10.24440
 Alpha  occ. eigenvalues --  -10.24198 -10.23976 -10.23865 -10.23715 -10.23219
 Alpha  occ. eigenvalues --   -3.12425  -1.87097  -1.86693  -1.86623  -1.21491
 Alpha  occ. eigenvalues --   -1.17570  -1.10967  -1.09570  -1.08906  -1.04818
 Alpha  occ. eigenvalues --   -1.03268  -1.03087  -1.01888  -0.92730  -0.91663
 Alpha  occ. eigenvalues --   -0.91396  -0.90741  -0.90070  -0.89591  -0.88824
 Alpha  occ. eigenvalues --   -0.88160  -0.88073  -0.87653  -0.87332  -0.86625
 Alpha  occ. eigenvalues --   -0.85916  -0.84662  -0.84246  -0.83800  -0.83173
 Alpha  occ. eigenvalues --   -0.81739  -0.81389  -0.80393  -0.80261  -0.78886
 Alpha  occ. eigenvalues --   -0.78465  -0.76861  -0.76549  -0.76117  -0.75629
 Alpha  occ. eigenvalues --   -0.74995  -0.74494  -0.74260  -0.73951  -0.72301
 Alpha  occ. eigenvalues --   -0.71842  -0.70945  -0.69306  -0.68724  -0.68095
 Alpha  occ. eigenvalues --   -0.67774  -0.67123  -0.66347  -0.65795  -0.65026
 Alpha  occ. eigenvalues --   -0.63420  -0.63178  -0.63023  -0.61849  -0.61471
 Alpha  occ. eigenvalues --   -0.61311  -0.60664  -0.60592  -0.60372  -0.59869
 Alpha  occ. eigenvalues --   -0.59158  -0.58682  -0.57879  -0.57799  -0.57465
 Alpha  occ. eigenvalues --   -0.56311  -0.56089  -0.55910  -0.55528  -0.55220
 Alpha  occ. eigenvalues --   -0.55113  -0.54899  -0.54763  -0.54491  -0.53794
 Alpha  occ. eigenvalues --   -0.52993  -0.52828  -0.52524  -0.52081  -0.51936
 Alpha  occ. eigenvalues --   -0.51702  -0.51479  -0.51257  -0.51117  -0.50832
 Alpha  occ. eigenvalues --   -0.50724  -0.50458  -0.50161  -0.49886  -0.49798
 Alpha  occ. eigenvalues --   -0.49469  -0.49050  -0.48976  -0.48875  -0.48684
 Alpha  occ. eigenvalues --   -0.48365  -0.48224  -0.47935  -0.47391  -0.47309
 Alpha  occ. eigenvalues --   -0.47233  -0.46992  -0.46426  -0.46398  -0.46254
 Alpha  occ. eigenvalues --   -0.45776  -0.45733  -0.45524  -0.45405  -0.45289
 Alpha  occ. eigenvalues --   -0.45212  -0.45078  -0.44620  -0.44508  -0.44435
 Alpha  occ. eigenvalues --   -0.44101  -0.44044  -0.43939  -0.43412  -0.43270
 Alpha  occ. eigenvalues --   -0.43187  -0.42993  -0.42827  -0.42635  -0.42392
 Alpha  occ. eigenvalues --   -0.42207  -0.42044  -0.41874  -0.41812  -0.41520
 Alpha  occ. eigenvalues --   -0.41467  -0.41159  -0.41043  -0.40875  -0.40738
 Alpha  occ. eigenvalues --   -0.40298  -0.40102  -0.39642  -0.39538  -0.39237
 Alpha  occ. eigenvalues --   -0.38702  -0.38630  -0.38611  -0.38505  -0.38242
 Alpha  occ. eigenvalues --   -0.38063  -0.37586  -0.37387  -0.36929  -0.36587
 Alpha  occ. eigenvalues --   -0.36183  -0.36090  -0.35770  -0.35483  -0.35152
 Alpha  occ. eigenvalues --   -0.35083  -0.34912  -0.34353  -0.33966  -0.33818
 Alpha  occ. eigenvalues --   -0.33359  -0.32803  -0.32301  -0.31203  -0.30668
 Alpha  occ. eigenvalues --   -0.30450  -0.30117  -0.28286  -0.26774  -0.24497
 Alpha  occ. eigenvalues --   -0.20568
 Alpha virt. eigenvalues --   -0.05930  -0.02866   0.00754   0.04466   0.05415
 Alpha virt. eigenvalues --    0.05759   0.06285   0.06628   0.06810   0.07105
 Alpha virt. eigenvalues --    0.08143   0.10327   0.10719   0.11143   0.11706

 Mulliken charges:
               1
     1  Mg   0.834519
     2  C    0.061733
     3  C   -0.232823
     4  C   -0.220119
     5  C   -0.153313
     6  N   -0.597542
     7  C    0.260952
     8  C   -0.140487
     9  C   -0.142735
    10  C    0.302831
    11  C   -0.317852
    12  C   -0.142492
    13  C   -0.278291
    14  C    0.609749
    15  O   -0.481146
    16  O   -0.484794
    17  N   -0.697526
    18  C    0.367415
    19  C   -0.025628
    20  C   -0.008269
    21  C    0.303827
    22  C   -0.356210
    23  C    0.008081
    24  C   -0.263139
    25  N   -0.695509
    26  C    0.360506
    27  C   -0.036654
    28  C    0.014634
    29  C    0.250573
    30  C   -0.369460
    31  C   -0.221175
    32  C   -0.277948
    33  N   -0.758210
    34  C    0.252076
    35  C    0.037912
    36  C    0.044674
    37  C    0.259245
    38  C   -0.402925
    39  C    0.354085
    40  O   -0.474349
    41  C   -0.312263
    42  C    0.627908
    43  O   -0.374274
    44  O   -0.487051
    45  C   -0.068562
    46  C    0.007917
    47  C   -0.097722
    48  C    0.101206
    49  C   -0.339100
    50  C   -0.216480
    51  C   -0.184670
    52  C   -0.132592
    53  C   -0.077272
    54  C   -0.302240
    55  C   -0.160253
    56  C   -0.195215
    57  C   -0.166362
    58  C   -0.068747
    59  C   -0.299827
    60  C   -0.171612
    61  C   -0.189966
    62  C   -0.185125
    63  C   -0.059272
    64  C   -0.296582
    65  C   -0.270054
    66  H    0.091966
    67  H    0.090451
    68  H    0.101614
    69  H    0.124587
    70  H    0.112522
    71  H    0.099858
    72  H    0.104999
    73  H    0.135284
    74  H    0.128623
    75  H    0.101998
    76  H    0.134437
    77  H    0.135549
    78  H    0.124879
    79  H    0.107671
    80  H    0.130701
    81  H    0.085031
    82  H    0.095762
    83  H    0.108904
    84  H    0.120745
    85  H    0.101833
    86  H    0.128737
    87  H    0.109464
    88  H    0.102612
    89  H    0.100662
    90  H    0.087668
    91  H    0.114413
    92  H    0.102893
    93  H    0.149825
    94  H    0.135040
    95  H    0.174697
    96  H    0.077791
    97  H    0.106755
    98  H    0.126355
    99  H    0.123769
   100  H    0.105588
   101  H    0.082932
   102  H    0.107867
   103  H    0.117787
   104  H    0.086811
   105  H    0.106488
   106  H    0.106933
   107  H    0.097558
   108  H    0.091921
   109  H    0.098893
   110  H    0.056058
   111  H    0.060961
   112  H    0.100944
   113  H    0.110093
   114  H    0.092041
   115  H    0.079579
   116  H    0.101634
   117  H    0.092524
   118  H    0.090235
   119  H    0.098578
   120  H    0.081465
   121  H    0.010985
   122  H    0.093118
   123  H    0.122719
   124  H    0.095589
   125  H    0.104881
   126  H    0.095367
   127  H    0.102727
   128  H    0.099879
   129  H    0.086990
   130  H    0.098164
   131  H    0.079288
   132  H    0.102729
   133  H    0.083457
   134  H    0.111783
   135  H    0.118796
   136  H    0.084217
   137  H    0.038327
 Sum of Mulliken charges =   0.00000

 Dipole moment (field-independent basis, Debye):
    X=              1.5910    Y=              3.4615    Z=              1.3771  Tot=              4.0509
 Quadrupole moment (field-independent basis, Debye-Ang):
   XX=           -358.2455   YY=           -396.6104   ZZ=           -401.8198
   XY=            -17.2459   XZ=              7.9169   YZ=             -0.7165

 Normal termination of Gaussian 09 at Mon Jul  1 10:40:38 2019.
