 Gaussian 09, Revision D.01,
 Gaussian 09:  ES64L-G09RevD.01 24-Apr-2013

 -------------------------------------
 # td=(NStates=1) CAM-B3LYP/6-31G(d,p)
 -------------------------------------

 --
 TD
 --
 Symbolic Z-matrix:
 Charge =  0 Multiplicity = 1

                         Standard orientation:
 ---------------------------------------------------------------------
 Center     Atomic      Atomic             Coordinates (Angstroms)
 Number     Number       Type             X           Y           Z
 ---------------------------------------------------------------------
      1         12           0       -7.181180    0.608229    0.148848
      2          6           0       -4.846706   -1.922524    0.590361
      3          6           0       -4.909249    2.818844    1.216089
      4          6           0       -9.503002    3.102259   -0.327893
      5          6           0       -9.558560   -1.712962   -0.767609
      6          7           0       -5.208656    0.402383    0.683503
      7          6           0       -4.319275   -0.691877    0.807681
      8          6           0       -2.877780   -0.322092    1.147851
      9          6           0       -3.092824    1.116719    1.583424
     10          6           0       -4.541560    1.496065    1.163180
     11          6           0       -2.960051    1.289754    3.112452
     12          6           0       -1.964529   -0.569168   -0.050469
     13          6           0       -0.454153   -0.426144    0.500677
     14          6           0        0.538955   -0.546471   -0.622483
     15          8           0        0.172898   -0.996635   -1.690557
     16          8           0        1.733958   -0.394473   -0.173120
     17          7           0       -7.130343    2.638528    0.415672
     18          6           0       -6.167877    3.336814    0.850391
     19          6           0       -6.487876    4.729737    0.891644
     20          6           0       -7.840762    4.856266    0.427204
     21          6           0       -8.218092    3.505923    0.096858
     22          6           0       -5.539310    5.900273    1.211790
     23          6           0       -8.725084    6.018919    0.361514
     24          6           0       -8.375205    7.231188    0.027481
     25          7           0       -9.162898    0.688658   -0.546755
     26          6           0       -9.960743    1.790136   -0.635228
     27          6           0      -11.260429    1.427611   -1.112782
     28          6           0      -11.322299    0.069307   -1.154267
     29          6           0       -9.966444   -0.399573   -0.787063
     30          6           0      -12.383307    2.287105   -1.549508
     31          6           0      -12.550619   -0.729313   -1.634540
     32          6           0      -12.440575   -1.038515   -3.140181
     33          7           0       -7.262018   -1.381784   -0.180887
     34          6           0       -8.266993   -2.247031   -0.512153
     35          6           0       -7.827054   -3.645897   -0.494471
     36          6           0       -6.445733   -3.627006   -0.097081
     37          6           0       -6.214324   -2.195954    0.140778
     38          6           0       -8.745004   -4.798195   -0.918588
     39          6           0       -5.368760   -4.353313    0.201618
     40          8           0       -5.148063   -5.533718    0.229524
     41          6           0       -4.194050   -3.330300    0.495434
     42          6           0       -3.487072   -3.678338    1.890453
     43          8           0       -3.846173   -3.158640    3.028036
     44          8           0       -2.545295   -4.652023    1.748154
     45          6           0       -1.979030   -5.103970    2.923154
     46          6           0        2.809260   -0.741891   -1.079340
     47          6           0        4.121604   -0.517085   -0.471123
     48          6           0        5.200344    0.225745   -0.964939
     49          6           0        5.193059    1.120998   -2.196257
     50          6           0        6.515934    0.233376   -0.192041
     51          6           0        7.726225   -0.290341   -0.926049
     52          6           0        9.039619   -0.137953   -0.115828
     53          6           0       10.327995   -0.611452   -0.926678
     54          6           0       10.216326   -1.987896   -1.431634
     55          6           0       11.579229   -0.431356   -0.103351
     56          6           0       12.940050   -0.634214   -0.858025
     57          6           0       14.013077   -0.149742   -0.005064
     58          6           0       15.518929   -0.341004   -0.629503
     59          6           0       15.840531   -1.763313   -0.877248
     60          6           0       16.450832    0.399682    0.364762
     61          6           0       17.877894    0.652939   -0.147256
     62          6           0       18.735927    1.454148    0.829490
     63          6           0       20.264773    1.592193    0.372200
     64          6           0       20.395506    2.329274   -0.926051
     65          6           0       21.147714    2.040631    1.478126
     66          1           0       -4.176012    3.544976    1.708924
     67          1           0      -10.161978    3.957521   -0.365631
     68          1           0      -10.215000   -2.538684   -0.950718
     69          1           0       -2.401062   -0.961832    2.040944
     70          1           0       -2.293057    1.598934    1.086471
     71          1           0       -1.963443    1.350728    3.369996
     72          1           0       -3.380213    2.285991    3.378338
     73          1           0       -3.332023    0.344926    3.664707
     74          1           0       -2.270367   -1.646895   -0.406444
     75          1           0       -2.143057    0.088720   -0.983269
     76          1           0       -0.302082    0.617402    0.810399
     77          1           0       -0.296840   -1.275900    1.340820
     78          1           0       -5.101458    6.247982    0.297976
     79          1           0       -6.029750    6.784733    1.634879
     80          1           0       -4.659389    5.485202    1.871844
     81          1           0       -9.812732    5.820697    0.393593
     82          1           0       -9.306996    7.914432   -0.210819
     83          1           0       -7.397432    7.413641   -0.106639
     84          1           0      -12.531567    3.047501   -2.444828
     85          1           0      -13.377585    1.866760   -1.725500
     86          1           0      -12.703483    3.074875   -0.759221
     87          1           0      -12.404424   -1.652324   -1.070109
     88          1           0      -13.464951   -0.364505   -1.261256
     89          1           0      -13.497595   -1.181794   -3.555207
     90          1           0      -12.052723    0.034052   -3.526334
     91          1           0      -11.533058   -1.977442   -3.239302
     92          1           0       -9.086255   -4.694967   -1.807410
     93          1           0       -8.213087   -5.912466   -0.821097
     94          1           0       -9.544739   -5.027089   -0.240376
     95          1           0       -3.454234   -3.197115   -0.184944
     96          1           0       -1.241584   -4.366003    3.239736
     97          1           0       -2.769887   -5.268574    3.753212
     98          1           0       -1.473312   -5.948260    2.491609
     99          1           0        2.670230   -1.726934   -1.414178
    100          1           0        2.341650   -0.072678   -1.852654
    101          1           0        4.365739   -1.111133    0.550953
    102          1           0        4.217754    1.359156   -2.638529
    103          1           0        5.602438    1.915172   -1.710988
    104          1           0        5.798776    0.613321   -2.920095
    105          1           0        6.835943    1.234264    0.305873
    106          1           0        6.511393   -0.453711    0.617251
    107          1           0        7.576502   -1.467967   -1.034656
    108          1           0        7.811555   -0.022589   -2.087311
    109          1           0        9.046830    1.013778    0.065233
    110          1           0        8.862989   -0.469030    0.920382
    111          1           0       10.507084   -0.075588   -1.960852
    112          1           0        9.400264   -2.261687   -2.046156
    113          1           0       10.986800   -2.234847   -2.073885
    114          1           0       10.240503   -2.653747   -0.669632
    115          1           0       11.669261    0.755163    0.090503
    116          1           0       11.554274   -1.023538    0.714173
    117          1           0       13.246520   -1.481220   -1.192961
    118          1           0       12.941776    0.025551   -1.760134
    119          1           0       13.894130    0.794284    0.228335
    120          1           0       14.027851   -0.809526    0.877150
    121          1           0       15.394254    0.199430   -1.632432
    122          1           0       15.829320   -2.410137   -0.006131
    123          1           0       15.325112   -2.045838   -1.788294
    124          1           0       16.826496   -1.921215   -1.379017
    125          1           0       16.175082    1.440750    0.529461
    126          1           0       16.234444    0.163721    1.272406
    127          1           0       18.223483   -0.326958   -0.270962
    128          1           0       17.896646    0.916622   -1.060939
    129          1           0       18.339132    2.451295    0.792509
    130          1           0       18.876116    0.996710    1.762086
    131          1           0       20.510742    0.534690    0.142808
    132          1           0       20.092661    3.480176   -0.912603
    133          1           0       21.467406    2.314655   -1.317930
    134          1           0       19.605301    2.087463   -1.609796
    135          1           0       21.257108    1.205446    2.155163
    136          1           0       22.156714    2.181165    1.089563
    137          1           0       20.897363    3.084874    2.099259
 ---------------------------------------------------------------------

 SCF Done:  E(RCAM-B3LYP) =  -2932.64961162     A.U. after   17 cycles

 Excitation energies and oscillator strengths:

 Excited State   1:      Singlet-A      2.0809 eV  595.81 nm  f=0.2888  <S**2>=0.000
     240 -> 242       -0.12257
     240 -> 243       -0.21704
     241 -> 242        0.65266
 This state for optimization and/or second-order correction.
 Total Energy, E(TD-HF/TD-KS) =  -2932.57313875
 Copying the excited state density for this state as the 1-particle RhoCI density.

 The electronic state is 1-A.
 Alpha  occ. eigenvalues --  -46.84351 -19.26694 -19.26531 -19.20140 -19.19932
 Alpha  occ. eigenvalues --  -19.18629 -14.41224 -14.40067 -14.39631 -14.39287
 Alpha  occ. eigenvalues --  -10.39460 -10.38197 -10.33171 -10.32047 -10.30607
 Alpha  occ. eigenvalues --  -10.30496 -10.30063 -10.29837 -10.29835 -10.29523
 Alpha  occ. eigenvalues --  -10.29516 -10.29343 -10.29266 -10.29202 -10.28912
 Alpha  occ. eigenvalues --  -10.28815 -10.28314 -10.27918 -10.27887 -10.27883
 Alpha  occ. eigenvalues --  -10.27739 -10.27602 -10.27509 -10.27436 -10.27373
 Alpha  occ. eigenvalues --  -10.27258 -10.27198 -10.27196 -10.27115 -10.26935
 Alpha  occ. eigenvalues --  -10.26838 -10.26831 -10.26604 -10.26389 -10.26311
 Alpha  occ. eigenvalues --  -10.26234 -10.26192 -10.26172 -10.26015 -10.25881
 Alpha  occ. eigenvalues --  -10.25575 -10.25450 -10.25402 -10.25351 -10.25189
 Alpha  occ. eigenvalues --  -10.25063 -10.25000 -10.24970 -10.24496 -10.24198
 Alpha  occ. eigenvalues --  -10.23070 -10.23018 -10.22924 -10.22547 -10.22040
 Alpha  occ. eigenvalues --   -3.13415  -1.88119  -1.87644  -1.87613  -1.20402
 Alpha  occ. eigenvalues --   -1.17514  -1.10662  -1.09369  -1.05218  -1.05117
 Alpha  occ. eigenvalues --   -1.03848  -1.03074  -1.01978  -0.91811  -0.91596
 Alpha  occ. eigenvalues --   -0.90958  -0.90134  -0.89921  -0.89371  -0.88823
 Alpha  occ. eigenvalues --   -0.88520  -0.88094  -0.87201  -0.86705  -0.86467
 Alpha  occ. eigenvalues --   -0.85324  -0.84364  -0.83881  -0.83332  -0.83042
 Alpha  occ. eigenvalues --   -0.82096  -0.81704  -0.81376  -0.80559  -0.78462
 Alpha  occ. eigenvalues --   -0.77862  -0.76924  -0.76704  -0.76388  -0.75825
 Alpha  occ. eigenvalues --   -0.75691  -0.75349  -0.75084  -0.73292  -0.72787
 Alpha  occ. eigenvalues --   -0.70973  -0.70409  -0.69625  -0.69007  -0.68599
 Alpha  occ. eigenvalues --   -0.67661  -0.67369  -0.65368  -0.64994  -0.64120
 Alpha  occ. eigenvalues --   -0.63961  -0.63432  -0.63055  -0.62978  -0.61998
 Alpha  occ. eigenvalues --   -0.61987  -0.60963  -0.60743  -0.60490  -0.59518
 Alpha  occ. eigenvalues --   -0.58615  -0.58473  -0.58022  -0.57657  -0.56640
 Alpha  occ. eigenvalues --   -0.56635  -0.55948  -0.55495  -0.55121  -0.54602
 Alpha  occ. eigenvalues --   -0.54486  -0.54098  -0.53725  -0.53446  -0.52993
 Alpha  occ. eigenvalues --   -0.52870  -0.52729  -0.52703  -0.51940  -0.51846
 Alpha  occ. eigenvalues --   -0.51747  -0.51461  -0.51277  -0.50949  -0.50661
 Alpha  occ. eigenvalues --   -0.50592  -0.50510  -0.50320  -0.49739  -0.49543
 Alpha  occ. eigenvalues --   -0.49465  -0.49001  -0.48890  -0.48854  -0.48625
 Alpha  occ. eigenvalues --   -0.48274  -0.48162  -0.48038  -0.47794  -0.47336
 Alpha  occ. eigenvalues --   -0.46991  -0.46916  -0.46253  -0.45994  -0.45771
 Alpha  occ. eigenvalues --   -0.45679  -0.45575  -0.45457  -0.45290  -0.45000
 Alpha  occ. eigenvalues --   -0.44643  -0.44507  -0.44357  -0.43945  -0.43756
 Alpha  occ. eigenvalues --   -0.43493  -0.43355  -0.43043  -0.42894  -0.42761
 Alpha  occ. eigenvalues --   -0.42667  -0.42503  -0.42401  -0.42173  -0.42139
 Alpha  occ. eigenvalues --   -0.41940  -0.41821  -0.41727  -0.41601  -0.41263
 Alpha  occ. eigenvalues --   -0.41010  -0.40858  -0.40685  -0.40509  -0.40428
 Alpha  occ. eigenvalues --   -0.40372  -0.39966  -0.39681  -0.39366  -0.39149
 Alpha  occ. eigenvalues --   -0.39009  -0.38706  -0.38434  -0.38003  -0.37916
 Alpha  occ. eigenvalues --   -0.37757  -0.37737  -0.37515  -0.37030  -0.36762
 Alpha  occ. eigenvalues --   -0.36683  -0.36104  -0.35998  -0.35817  -0.35681
 Alpha  occ. eigenvalues --   -0.35476  -0.34742  -0.34649  -0.33925  -0.32678
 Alpha  occ. eigenvalues --   -0.32273  -0.31831  -0.31747  -0.30933  -0.29873
 Alpha  occ. eigenvalues --   -0.29597  -0.29342  -0.28711  -0.27589  -0.22853
 Alpha  occ. eigenvalues --   -0.21703
 Alpha virt. eigenvalues --   -0.07006  -0.02481   0.01489   0.04640   0.04750
 Alpha virt. eigenvalues --    0.05189   0.06114   0.06597   0.06734   0.07521
 Alpha virt. eigenvalues --    0.08575   0.09897   0.11256   0.11513   0.11828

 Mulliken charges:
               1
     1  Mg   0.818776
     2  C    0.041107
     3  C   -0.213479
     4  C   -0.168074
     5  C   -0.166931
     6  N   -0.659636
     7  C    0.284685
     8  C   -0.130453
     9  C   -0.139280
    10  C    0.371407
    11  C   -0.314480
    12  C   -0.168284
    13  C   -0.260460
    14  C    0.588865
    15  O   -0.486109
    16  O   -0.448036
    17  N   -0.720449
    18  C    0.396643
    19  C   -0.024802
    20  C    0.017624
    21  C    0.258866
    22  C   -0.372374
    23  C   -0.073302
    24  C   -0.220602
    25  N   -0.682089
    26  C    0.299728
    27  C    0.075275
    28  C   -0.000374
    29  C    0.299854
    30  C   -0.411981
    31  C   -0.229962
    32  C   -0.274652
    33  N   -0.699708
    34  C    0.253230
    35  C    0.021359
    36  C    0.104352
    37  C    0.248950
    38  C   -0.377229
    39  C    0.303036
    40  O   -0.467128
    41  C   -0.311147
    42  C    0.596444
    43  O   -0.510525
    44  O   -0.424067
    45  C   -0.083299
    46  C    0.010331
    47  C   -0.152636
    48  C    0.096836
    49  C   -0.341136
    50  C   -0.231196
    51  C   -0.174613
    52  C   -0.177559
    53  C   -0.057215
    54  C   -0.312832
    55  C   -0.157391
    56  C   -0.178043
    57  C   -0.169096
    58  C   -0.082068
    59  C   -0.309912
    60  C   -0.172007
    61  C   -0.175101
    62  C   -0.175770
    63  C   -0.053333
    64  C   -0.308047
    65  C   -0.300393
    66  H    0.077829
    67  H    0.089468
    68  H    0.088650
    69  H    0.108808
    70  H    0.103066
    71  H    0.112385
    72  H    0.103592
    73  H    0.127644
    74  H    0.105822
    75  H    0.116010
    76  H    0.126315
    77  H    0.127243
    78  H    0.137081
    79  H    0.125482
    80  H    0.100851
    81  H    0.093833
    82  H    0.101345
    83  H    0.098154
    84  H    0.111864
    85  H    0.120333
    86  H    0.099020
    87  H    0.104955
    88  H    0.118423
    89  H    0.107807
    90  H    0.105085
    91  H    0.085975
    92  H    0.139664
    93  H    0.119361
    94  H    0.132903
    95  H    0.152299
    96  H    0.113239
    97  H    0.136306
    98  H    0.127681
    99  H    0.144344
   100  H    0.127075
   101  H    0.086254
   102  H    0.115623
   103  H    0.133001
   104  H    0.132794
   105  H    0.092516
   106  H    0.114300
   107  H    0.080294
   108  H    0.079765
   109  H    0.078512
   110  H    0.098373
   111  H    0.072272
   112  H    0.102882
   113  H    0.107357
   114  H    0.100972
   115  H    0.075133
   116  H    0.099736
   117  H    0.100555
   118  H    0.072944
   119  H    0.095588
   120  H    0.077154
   121  H    0.068527
   122  H    0.109252
   123  H    0.107911
   124  H    0.094530
   125  H    0.076607
   126  H    0.092866
   127  H    0.089302
   128  H    0.096940
   129  H    0.095510
   130  H    0.096211
   131  H    0.088865
   132  H    0.071999
   133  H    0.095699
   134  H    0.107766
   135  H    0.103725
   136  H    0.099995
   137  H    0.078243
 Sum of Mulliken charges =   0.00000

 Dipole moment (field-independent basis, Debye):
    X=              2.2049    Y=              4.7971    Z=             -0.5791  Tot=              5.3112
 Quadrupole moment (field-independent basis, Debye-Ang):
   XX=           -314.9994   YY=           -395.1806   ZZ=           -403.2204
   XY=            -38.1653   XZ=             11.6196   YZ=             -1.7282

 Normal termination of Gaussian 09 at Thu Jun 27 08:47:49 2019.
