 Gaussian 09, Revision D.01,
 Gaussian 09:  ES64L-G09RevD.01 24-Apr-2013

 -------------------------------------
 # td=(NStates=1) CAM-B3LYP/6-31G(d,p)
 -------------------------------------

 --
 TD
 --
 Symbolic Z-matrix:
 Charge =  0 Multiplicity = 1

                         Standard orientation:
 ---------------------------------------------------------------------
 Center     Atomic      Atomic             Coordinates (Angstroms)
 Number     Number       Type             X           Y           Z
 ---------------------------------------------------------------------
      1         12           0       -7.097307    0.519491    0.072716
      2          6           0       -4.904265   -1.944576    0.374476
      3          6           0       -4.753399    2.798765    1.260097
      4          6           0       -9.329680    3.169411   -0.411107
      5          6           0       -9.524637   -1.680288   -0.865615
      6          7           0       -5.169663    0.420526    0.665787
      7          6           0       -4.321871   -0.758017    0.726106
      8          6           0       -2.856879   -0.466547    1.156413
      9          6           0       -3.067238    0.932160    1.696343
     10          6           0       -4.369039    1.444599    1.071332
     11          6           0       -2.911208    1.034894    3.216542
     12          6           0       -1.817614   -0.606013    0.067282
     13          6           0       -0.364297   -0.481466    0.654117
     14          6           0        0.573637   -0.605293   -0.545684
     15          8           0        0.244537   -0.843210   -1.689373
     16          8           0        1.783490   -0.348192   -0.161097
     17          7           0       -7.013749    2.563760    0.375238
     18          6           0       -6.050624    3.272417    0.895310
     19          6           0       -6.400552    4.679339    0.957676
     20          6           0       -7.671324    4.869144    0.557048
     21          6           0       -8.137770    3.470028    0.161691
     22          6           0       -5.454679    5.759019    1.519514
     23          6           0       -8.524046    5.954354    0.421121
     24          6           0       -8.152696    7.172458    0.241698
     25          7           0       -9.105022    0.713786   -0.596934
     26          6           0       -9.891168    1.840550   -0.589631
     27          6           0      -11.223195    1.533300   -1.101228
     28          6           0      -11.231743    0.145064   -1.271973
     29          6           0       -9.982390   -0.352741   -0.933536
     30          6           0      -12.325306    2.541450   -1.419046
     31          6           0      -12.425656   -0.705355   -1.808764
     32          6           0      -12.264898   -0.793312   -3.401290
     33          7           0       -7.163325   -1.344070   -0.253939
     34          6           0       -8.257545   -2.191198   -0.641173
     35          6           0       -7.886487   -3.612008   -0.671263
     36          6           0       -6.555586   -3.558781   -0.144712
     37          6           0       -6.195251   -2.260715    0.078972
     38          6           0       -8.600358   -4.834199   -1.059909
     39          6           0       -5.404651   -4.355227    0.084816
     40          8           0       -5.215882   -5.631787    0.063133
     41          6           0       -4.228779   -3.293768    0.536886
     42          6           0       -3.740712   -3.768179    1.943152
     43          8           0       -4.109649   -3.189280    2.977726
     44          8           0       -2.866557   -4.752418    1.866350
     45          6           0       -2.255514   -5.123537    3.078550
     46          6           0        2.802918   -0.534378   -1.162766
     47          6           0        4.148983   -0.369110   -0.500426
     48          6           0        5.100255    0.466533   -0.936714
     49          6           0        5.004986    1.397750   -2.112546
     50          6           0        6.338636    0.492282   -0.071383
     51          6           0        7.659341    0.082587   -0.906146
     52          6           0        8.932898   -0.015977   -0.066299
     53          6           0       10.230658   -0.577841   -0.843045
     54          6           0       10.073852   -2.113919   -1.108080
     55          6           0       11.442439   -0.345556   -0.055761
     56          6           0       12.754382   -0.578662   -0.709164
     57          6           0       13.997238   -0.374576    0.268370
     58          6           0       15.284025   -0.230758   -0.455038
     59          6           0       15.666108   -1.623301   -1.150067
     60          6           0       16.343729    0.383436    0.405324
     61          6           0       17.880925    0.524359   -0.247317
     62          6           0       18.783961    1.221415    0.632530
     63          6           0       20.192486    1.309910    0.172789
     64          6           0       20.278037    2.145921   -1.130727
     65          6           0       21.233818    1.923832    1.234678
     66          1           0       -4.070739    3.417213    1.540548
     67          1           0       -9.948413    4.052439   -0.756202
     68          1           0      -10.227702   -2.521428   -1.313984
     69          1           0       -2.644963   -1.188666    1.912161
     70          1           0       -2.162966    1.634227    1.316066
     71          1           0       -1.996979    1.107251    3.785792
     72          1           0       -3.199155    1.942068    3.750669
     73          1           0       -3.646804    0.204500    3.491127
     74          1           0       -1.850154   -1.424230   -0.643679
     75          1           0       -2.007720    0.161830   -0.735950
     76          1           0       -0.226820    0.447029    1.253481
     77          1           0       -0.100564   -1.140852    1.328474
     78          1           0       -4.814844    6.041869    0.714047
     79          1           0       -5.889107    6.608905    2.058814
     80          1           0       -4.610860    5.474234    1.996331
     81          1           0       -9.596960    5.759194    0.535216
     82          1           0       -8.643526    8.104340    0.442856
     83          1           0       -7.030726    7.445750    0.299477
     84          1           0      -11.874549    3.237370   -2.094360
     85          1           0      -13.209853    1.941383   -1.691405
     86          1           0      -12.361693    3.092459   -0.525008
     87          1           0      -12.336968   -1.772493   -1.345234
     88          1           0      -13.334989   -0.330814   -1.590742
     89          1           0      -13.004787   -1.522053   -3.804417
     90          1           0      -12.248769    0.150736   -4.055286
     91          1           0      -11.503632   -1.400702   -3.480695
     92          1           0       -9.096101   -4.760383   -2.062464
     93          1           0       -7.940944   -5.598300   -0.900860
     94          1           0       -9.229375   -4.845720   -0.263421
     95          1           0       -3.399295   -3.480790    0.014912
     96          1           0       -1.382380   -4.477891    3.569131
     97          1           0       -3.015555   -5.395612    4.106781
     98          1           0       -1.781171   -6.223286    2.702011
     99          1           0        2.720562   -1.438293   -1.505648
    100          1           0        2.684898    0.068389   -2.051574
    101          1           0        4.125667   -1.046581    0.498456
    102          1           0        4.016655    1.703361   -2.754220
    103          1           0        5.357151    2.249003   -1.955297
    104          1           0        5.474062    0.707305   -2.893931
    105          1           0        6.680972    1.374385    0.183146
    106          1           0        6.284974   -0.103048    0.745083
    107          1           0        7.477446   -1.019123   -1.370391
    108          1           0        7.688553    0.643952   -1.912011
    109          1           0        9.222870    0.968371    0.257480
    110          1           0        8.785531   -0.817393    0.767322
    111          1           0       10.283205   -0.106256   -1.798943
    112          1           0        8.989298   -2.333597   -1.463928
    113          1           0       10.733894   -2.438261   -1.875787
    114          1           0       10.248536   -2.795282   -0.141485
    115          1           0       11.351637    0.637932    0.444521
    116          1           0       11.617086   -1.068404    0.920042
    117          1           0       12.694218   -1.626945   -0.918893
    118          1           0       12.806408    0.140777   -1.700304
    119          1           0       13.725200    0.662242    0.769500
    120          1           0       13.961456   -1.055923    1.069162
    121          1           0       15.318164    0.539237   -1.258128
    122          1           0       15.843320   -2.422132   -0.448882
    123          1           0       14.916809   -2.002420   -1.924731
    124          1           0       16.592771   -1.499143   -1.714845
    125          1           0       16.176607    1.392967    0.891833
    126          1           0       16.696737   -0.368845    1.255976
    127          1           0       18.406406   -0.556106   -0.210513
    128          1           0       17.854762    0.881337   -1.263821
    129          1           0       18.277254    2.249672    0.828902
    130          1           0       18.901882    0.937938    1.777358
    131          1           0       20.675926    0.212565   -0.068154
    132          1           0       20.139471    3.166001   -0.779735
    133          1           0       21.343639    2.139296   -1.553447
    134          1           0       19.442747    1.809293   -1.916583
    135          1           0       21.572204    1.285904    1.990201
    136          1           0       22.180796    2.104345    0.602345
    137          1           0       20.908253    3.033021    1.713639
 ---------------------------------------------------------------------

 SCF Done:  E(RCAM-B3LYP) =  -2932.60235480     A.U. after   17 cycles

 Excitation energies and oscillator strengths:

 Excited State   1:      Singlet-A      2.2159 eV  559.52 nm  f=0.1886  <S**2>=0.000
     240 -> 242        0.11619
     240 -> 243        0.27762
     241 -> 242        0.62518
 This state for optimization and/or second-order correction.
 Total Energy, E(TD-HF/TD-KS) =  -2932.52092154
 Copying the excited state density for this state as the 1-particle RhoCI density.

 The electronic state is 1-A.
 Alpha  occ. eigenvalues --  -46.82670 -19.28174 -19.26738 -19.20366 -19.19963
 Alpha  occ. eigenvalues --  -19.19087 -14.41418 -14.39734 -14.38973 -14.38941
 Alpha  occ. eigenvalues --  -10.39071 -10.38700 -10.35163 -10.34610 -10.31426
 Alpha  occ. eigenvalues --  -10.30871 -10.30247 -10.29975 -10.29933 -10.29375
 Alpha  occ. eigenvalues --  -10.29156 -10.29133 -10.29000 -10.28735 -10.28287
 Alpha  occ. eigenvalues --  -10.28221 -10.27911 -10.27597 -10.27553 -10.27497
 Alpha  occ. eigenvalues --  -10.27437 -10.27370 -10.26988 -10.26901 -10.26898
 Alpha  occ. eigenvalues --  -10.26833 -10.26735 -10.26703 -10.26633 -10.26592
 Alpha  occ. eigenvalues --  -10.26532 -10.26474 -10.26446 -10.26401 -10.26121
 Alpha  occ. eigenvalues --  -10.26005 -10.25977 -10.25933 -10.25866 -10.25760
 Alpha  occ. eigenvalues --  -10.25742 -10.25699 -10.25658 -10.25638 -10.25608
 Alpha  occ. eigenvalues --  -10.25572 -10.25472 -10.25370 -10.25354 -10.25108
 Alpha  occ. eigenvalues --  -10.24987 -10.24774 -10.24767 -10.24647 -10.24143
 Alpha  occ. eigenvalues --   -3.12068  -1.86739  -1.86320  -1.86284  -1.20105
 Alpha  occ. eigenvalues --   -1.19708  -1.09305  -1.07934  -1.05972  -1.03707
 Alpha  occ. eigenvalues --   -1.02887  -1.01875  -1.01075  -0.92276  -0.91617
 Alpha  occ. eigenvalues --   -0.91004  -0.90808  -0.90147  -0.89868  -0.88678
 Alpha  occ. eigenvalues --   -0.88270  -0.88061  -0.86992  -0.86726  -0.86437
 Alpha  occ. eigenvalues --   -0.84966  -0.84435  -0.83548  -0.83157  -0.82707
 Alpha  occ. eigenvalues --   -0.81819  -0.81649  -0.80724  -0.80194  -0.79350
 Alpha  occ. eigenvalues --   -0.78697  -0.77650  -0.77093  -0.75590  -0.75087
 Alpha  occ. eigenvalues --   -0.75061  -0.74428  -0.74204  -0.73783  -0.72398
 Alpha  occ. eigenvalues --   -0.71823  -0.70918  -0.70231  -0.69431  -0.68972
 Alpha  occ. eigenvalues --   -0.67322  -0.66790  -0.65286  -0.65195  -0.64613
 Alpha  occ. eigenvalues --   -0.64064  -0.63198  -0.62872  -0.62205  -0.61604
 Alpha  occ. eigenvalues --   -0.61349  -0.60840  -0.60419  -0.59931  -0.58959
 Alpha  occ. eigenvalues --   -0.58498  -0.57985  -0.57571  -0.57116  -0.56869
 Alpha  occ. eigenvalues --   -0.56301  -0.55602  -0.55267  -0.54820  -0.54603
 Alpha  occ. eigenvalues --   -0.54578  -0.54446  -0.53797  -0.53723  -0.53265
 Alpha  occ. eigenvalues --   -0.53094  -0.52864  -0.52547  -0.51987  -0.51925
 Alpha  occ. eigenvalues --   -0.51885  -0.51739  -0.51295  -0.51221  -0.50633
 Alpha  occ. eigenvalues --   -0.50413  -0.50238  -0.50147  -0.50054  -0.49534
 Alpha  occ. eigenvalues --   -0.49391  -0.49106  -0.48962  -0.48799  -0.48271
 Alpha  occ. eigenvalues --   -0.48086  -0.47641  -0.47458  -0.47320  -0.47135
 Alpha  occ. eigenvalues --   -0.46963  -0.46415  -0.46292  -0.45965  -0.45849
 Alpha  occ. eigenvalues --   -0.45637  -0.45539  -0.45118  -0.45096  -0.44634
 Alpha  occ. eigenvalues --   -0.44448  -0.44320  -0.44294  -0.43916  -0.43788
 Alpha  occ. eigenvalues --   -0.43679  -0.43646  -0.43421  -0.43190  -0.42867
 Alpha  occ. eigenvalues --   -0.42697  -0.42475  -0.42404  -0.42211  -0.41709
 Alpha  occ. eigenvalues --   -0.41657  -0.41514  -0.41362  -0.41206  -0.41135
 Alpha  occ. eigenvalues --   -0.40982  -0.40681  -0.40629  -0.40603  -0.40210
 Alpha  occ. eigenvalues --   -0.40189  -0.39768  -0.39630  -0.39278  -0.39162
 Alpha  occ. eigenvalues --   -0.38791  -0.38768  -0.38528  -0.38256  -0.37853
 Alpha  occ. eigenvalues --   -0.37700  -0.37116  -0.36857  -0.36626  -0.36457
 Alpha  occ. eigenvalues --   -0.36340  -0.36220  -0.36004  -0.35857  -0.35717
 Alpha  occ. eigenvalues --   -0.35579  -0.35081  -0.34421  -0.33992  -0.33812
 Alpha  occ. eigenvalues --   -0.33515  -0.32714  -0.31884  -0.30424  -0.29570
 Alpha  occ. eigenvalues --   -0.29091  -0.28912  -0.28246  -0.27058  -0.23319
 Alpha  occ. eigenvalues --   -0.21716
 Alpha virt. eigenvalues --   -0.05883  -0.03296   0.01059   0.04127   0.06212
 Alpha virt. eigenvalues --    0.06525   0.06562   0.06975   0.07312   0.07737
 Alpha virt. eigenvalues --    0.08203   0.10721   0.11546   0.11923   0.12041

 Mulliken charges:
               1
     1  Mg   0.824379
     2  C    0.029227
     3  C   -0.165148
     4  C   -0.204363
     5  C   -0.175005
     6  N   -0.643014
     7  C    0.270297
     8  C   -0.120348
     9  C   -0.154002
    10  C    0.362623
    11  C   -0.308819
    12  C   -0.186792
    13  C   -0.268154
    14  C    0.610445
    15  O   -0.492852
    16  O   -0.452150
    17  N   -0.687217
    18  C    0.370875
    19  C   -0.013802
    20  C    0.067079
    21  C    0.259016
    22  C   -0.373681
    23  C   -0.069297
    24  C   -0.260040
    25  N   -0.645852
    26  C    0.263736
    27  C   -0.029273
    28  C    0.028080
    29  C    0.278282
    30  C   -0.350542
    31  C   -0.241987
    32  C   -0.308603
    33  N   -0.735853
    34  C    0.244182
    35  C    0.021940
    36  C    0.052777
    37  C    0.299192
    38  C   -0.363021
    39  C    0.313172
    40  O   -0.517489
    41  C   -0.294351
    42  C    0.605014
    43  O   -0.491445
    44  O   -0.392407
    45  C   -0.077358
    46  C    0.018987
    47  C   -0.160398
    48  C    0.110958
    49  C   -0.347098
    50  C   -0.197578
    51  C   -0.211655
    52  C   -0.169397
    53  C   -0.054593
    54  C   -0.315253
    55  C   -0.152861
    56  C   -0.167148
    57  C   -0.168658
    58  C   -0.040246
    59  C   -0.328472
    60  C   -0.180313
    61  C   -0.181334
    62  C   -0.145119
    63  C   -0.044234
    64  C   -0.297769
    65  C   -0.311500
    66  H    0.045517
    67  H    0.097243
    68  H    0.085965
    69  H    0.126332
    70  H    0.079812
    71  H    0.113577
    72  H    0.106432
    73  H    0.126167
    74  H    0.138016
    75  H    0.114445
    76  H    0.129903
    77  H    0.140706
    78  H    0.125678
    79  H    0.128836
    80  H    0.116834
    81  H    0.100271
    82  H    0.110235
    83  H    0.088933
    84  H    0.129243
    85  H    0.116651
    86  H    0.129780
    87  H    0.093388
    88  H    0.112706
    89  H    0.088183
    90  H    0.112846
    91  H    0.126330
    92  H    0.128540
    93  H    0.161550
    94  H    0.150666
    95  H    0.142987
    96  H    0.118724
    97  H    0.110533
    98  H    0.106644
    99  H    0.130874
   100  H    0.118269
   101  H    0.087694
   102  H    0.102346
   103  H    0.128425
   104  H    0.130873
   105  H    0.112927
   106  H    0.111546
   107  H    0.067570
   108  H    0.089983
   109  H    0.095605
   110  H    0.093329
   111  H    0.093719
   112  H    0.089390
   113  H    0.114418
   114  H    0.085519
   115  H    0.078203
   116  H    0.053959
   117  H    0.107751
   118  H    0.062746
   119  H    0.071058
   120  H    0.105257
   121  H    0.089135
   122  H    0.106327
   123  H    0.101929
   124  H    0.106428
   125  H    0.094530
   126  H    0.073114
   127  H    0.074217
   128  H    0.098929
   129  H    0.069555
   130  H    0.080959
   131  H    0.063607
   132  H    0.109596
   133  H    0.092419
   134  H    0.086900
   135  H    0.117047
   136  H    0.091528
   137  H    0.074879
 Sum of Mulliken charges =   0.00000

 Dipole moment (field-independent basis, Debye):
    X=              2.9368    Y=              5.5131    Z=              0.6492  Tot=              6.2802
 Quadrupole moment (field-independent basis, Debye-Ang):
   XX=           -346.7636   YY=           -393.1521   ZZ=           -396.4036
   XY=            -23.9362   XZ=              9.5532   YZ=              2.5925

 Normal termination of Gaussian 09 at Sun Jun 30 22:19:57 2019.
