 Gaussian 09, Revision D.01,
 Gaussian 09:  ES64L-G09RevD.01 24-Apr-2013

 -------------------------------------
 # td=(NStates=1) CAM-B3LYP/6-31G(d,p)
 -------------------------------------

 --
 TD
 --
 Symbolic Z-matrix:
 Charge =  0 Multiplicity = 1

                         Standard orientation:
 ---------------------------------------------------------------------
 Center     Atomic      Atomic             Coordinates (Angstroms)
 Number     Number       Type             X           Y           Z
 ---------------------------------------------------------------------
      1         12           0       -7.165166    0.701594    0.041734
      2          6           0       -4.863494   -1.950089    0.540153
      3          6           0       -4.687030    2.856892    1.220606
      4          6           0       -9.357768    3.130613   -0.273210
      5          6           0       -9.512292   -1.660348   -0.924349
      6          7           0       -5.053708    0.467053    0.653498
      7          6           0       -4.316757   -0.724830    0.796234
      8          6           0       -2.905374   -0.368886    1.266259
      9          6           0       -2.956570    1.114014    1.671406
     10          6           0       -4.303944    1.433397    1.197677
     11          6           0       -2.775175    1.105531    3.112362
     12          6           0       -1.952622   -0.657928    0.140445
     13          6           0       -0.481760   -0.458251    0.499191
     14          6           0        0.527614   -0.792882   -0.567181
     15          8           0        0.248988   -1.131004   -1.684911
     16          8           0        1.818072   -0.419289   -0.119959
     17          7           0       -7.085477    2.636249    0.347334
     18          6           0       -5.986158    3.309661    0.860749
     19          6           0       -6.358729    4.714209    1.007981
     20          6           0       -7.635846    4.883253    0.564235
     21          6           0       -8.070716    3.477084    0.199053
     22          6           0       -5.436881    5.741787    1.515928
     23          6           0       -8.481983    5.990395    0.356018
     24          6           0       -8.105972    7.185342    0.163544
     25          7           0       -9.069309    0.689207   -0.506125
     26          6           0       -9.795228    1.826224   -0.605892
     27          6           0      -11.157863    1.653118   -1.139721
     28          6           0      -11.231614    0.198619   -1.306197
     29          6           0       -9.853276   -0.300187   -1.012626
     30          6           0      -12.292525    2.532009   -1.393266
     31          6           0      -12.355332   -0.530461   -1.808334
     32          6           0      -12.126146   -0.857829   -3.386153
     33          7           0       -7.182558   -1.338233   -0.306397
     34          6           0       -8.255493   -2.101205   -0.591249
     35          6           0       -7.917529   -3.555713   -0.545070
     36          6           0       -6.537862   -3.518970   -0.077853
     37          6           0       -6.250065   -2.196547    0.087952
     38          6           0       -8.789860   -4.693918   -0.897616
     39          6           0       -5.495459   -4.356593    0.214351
     40          8           0       -5.380495   -5.594436    0.092631
     41          6           0       -4.284724   -3.383678    0.544559
     42          6           0       -3.663824   -3.761416    1.962455
     43          8           0       -3.848593   -3.221560    2.979245
     44          8           0       -2.866711   -4.884121    1.797462
     45          6           0       -2.252475   -5.395146    3.040299
     46          6           0        2.837311   -0.976561   -1.188216
     47          6           0        4.173908   -0.587666   -0.496449
     48          6           0        5.003957    0.267775   -1.051300
     49          6           0        4.989574    1.032009   -2.364454
     50          6           0        6.416998    0.492610   -0.318208
     51          6           0        7.599130   -0.036262   -1.087881
     52          6           0        8.943020   -0.052442   -0.211437
     53          6           0       10.177347   -0.588497   -0.943556
     54          6           0        9.993004   -2.117616   -1.273649
     55          6           0       11.373448   -0.283332   -0.081968
     56          6           0       12.792929   -0.512920   -0.733984
     57          6           0       13.976427   -0.149754    0.143891
     58          6           0       15.381309   -0.329023   -0.404201
     59          6           0       15.737329   -1.677681   -0.820248
     60          6           0       16.551653    0.337129    0.479925
     61          6           0       17.894143    0.394369   -0.178908
     62          6           0       18.650900    1.199560    0.798482
     63          6           0       20.185037    1.503128    0.167784
     64          6           0       20.221391    2.353733   -1.048123
     65          6           0       21.133335    2.097867    1.219821
     66          1           0       -4.026334    3.689688    1.649027
     67          1           0      -10.118014    4.000739   -0.410033
     68          1           0      -10.320074   -2.289734   -1.309670
     69          1           0       -2.645667   -1.006424    1.889649
     70          1           0       -2.289327    1.703143    1.287187
     71          1           0       -1.860537    0.915921    3.665724
     72          1           0       -2.976617    2.170297    3.601114
     73          1           0       -3.664652    0.565847    3.766444
     74          1           0       -2.033356   -1.653737   -0.333270
     75          1           0       -2.124125    0.140159   -0.729681
     76          1           0       -0.168330    0.648775    0.749878
     77          1           0       -0.247947   -1.016002    1.359880
     78          1           0       -4.586824    6.110453    0.865442
     79          1           0       -6.030100    6.487502    1.841665
     80          1           0       -4.723769    5.401275    2.500460
     81          1           0       -9.599284    5.871333    0.755888
     82          1           0       -8.870779    8.141043    0.450622
     83          1           0       -7.091473    7.400735    0.102727
     84          1           0      -11.787360    3.389193   -2.100548
     85          1           0      -13.152332    1.924423   -1.783671
     86          1           0      -12.152649    3.079137   -0.255965
     87          1           0      -12.451480   -1.394184   -1.292633
     88          1           0      -13.346333    0.033291   -1.792734
     89          1           0      -12.893174   -1.431123   -3.917156
     90          1           0      -12.258022    0.024985   -3.949676
     91          1           0      -11.193311   -1.238865   -3.717929
     92          1           0       -9.180157   -4.647704   -1.916893
     93          1           0       -8.198453   -5.561618   -0.636723
     94          1           0       -9.651072   -5.000772   -0.236716
     95          1           0       -3.442764   -3.621480    0.008574
     96          1           0       -1.637847   -4.738882    3.670754
     97          1           0       -3.284644   -5.584273    3.624649
     98          1           0       -1.657625   -6.325598    2.756304
     99          1           0        2.648164   -2.098792   -1.389496
    100          1           0        2.590473   -0.557469   -2.141423
    101          1           0        4.390665   -1.060037    0.498571
    102          1           0        4.050601    1.426445   -2.713887
    103          1           0        5.432067    2.092358   -2.149322
    104          1           0        5.380513    0.414507   -3.059128
    105          1           0        6.505215    1.473353   -0.051976
    106          1           0        6.293219   -0.004288    0.759410
    107          1           0        7.485936   -1.141227   -1.270047
    108          1           0        7.817510    0.492989   -1.965788
    109          1           0        9.054502    1.095000   -0.093812
    110          1           0        8.757764   -0.643354    0.644073
    111          1           0       10.157488   -0.070183   -1.889552
    112          1           0        9.226814   -2.389350   -1.878634
    113          1           0       10.856982   -2.624309   -1.581200
    114          1           0        9.674322   -2.704247   -0.424805
    115          1           0       11.272451    0.853319    0.335215
    116          1           0       11.327408   -0.687191    1.006415
    117          1           0       12.956661   -1.645253   -1.018908
    118          1           0       12.779478   -0.004093   -1.685210
    119          1           0       13.872323    0.914603    0.447580
    120          1           0       13.878264   -0.684663    1.085188
    121          1           0       15.294409    0.301525   -1.484126
    122          1           0       15.652518   -2.084947    0.228206
    123          1           0       14.918630   -2.115875   -1.502794
    124          1           0       16.619962   -1.791774   -1.110755
    125          1           0       16.124007    1.341375    0.604706
    126          1           0       16.581993   -0.042947    1.463443
    127          1           0       18.170494   -0.479501   -0.434243
    128          1           0       17.604726    1.002676   -1.040444
    129          1           0       18.290997    2.239561    0.823929
    130          1           0       18.950384    0.939926    1.698755
    131          1           0       20.700480    0.544214   -0.144584
    132          1           0       19.613164    3.397004   -0.863608
    133          1           0       21.294900    2.558277   -1.254866
    134          1           0       19.680614    1.892505   -1.805128
    135          1           0       21.146583    1.308822    1.971787
    136          1           0       22.198607    2.172235    0.940569
    137          1           0       20.693916    3.063270    1.708108
 ---------------------------------------------------------------------

 SCF Done:  E(RCAM-B3LYP) =  -2932.60586661     A.U. after   18 cycles

 Excitation energies and oscillator strengths:

 Excited State   1:      Singlet-A      1.9985 eV  620.40 nm  f=0.2700  <S**2>=0.000
     240 -> 243        0.20871
     241 -> 242        0.66982
 This state for optimization and/or second-order correction.
 Total Energy, E(TD-HF/TD-KS) =  -2932.53242460
 Copying the excited state density for this state as the 1-particle RhoCI density.

 The electronic state is 1-A.
 Alpha  occ. eigenvalues --  -46.84526 -19.25132 -19.25086 -19.21454 -19.21317
 Alpha  occ. eigenvalues --  -19.18716 -14.42660 -14.39906 -14.39477 -14.39379
 Alpha  occ. eigenvalues --  -10.38817 -10.38521 -10.33537 -10.32445 -10.32266
 Alpha  occ. eigenvalues --  -10.32246 -10.30797 -10.30418 -10.29925 -10.29740
 Alpha  occ. eigenvalues --  -10.29296 -10.28652 -10.28503 -10.28306 -10.28260
 Alpha  occ. eigenvalues --  -10.27535 -10.27535 -10.27469 -10.27429 -10.27420
 Alpha  occ. eigenvalues --  -10.27410 -10.27340 -10.27335 -10.27293 -10.27272
 Alpha  occ. eigenvalues --  -10.27231 -10.27128 -10.27087 -10.26993 -10.26811
 Alpha  occ. eigenvalues --  -10.26803 -10.26687 -10.26663 -10.26471 -10.26434
 Alpha  occ. eigenvalues --  -10.26371 -10.26317 -10.26028 -10.26025 -10.25918
 Alpha  occ. eigenvalues --  -10.25696 -10.25521 -10.25446 -10.25389 -10.25356
 Alpha  occ. eigenvalues --  -10.24800 -10.24766 -10.24624 -10.24605 -10.24402
 Alpha  occ. eigenvalues --  -10.24209 -10.23986 -10.23699 -10.23147 -10.23090
 Alpha  occ. eigenvalues --   -3.13725  -1.88413  -1.87979  -1.87910  -1.17664
 Alpha  occ. eigenvalues --   -1.15647  -1.09323  -1.07905  -1.07369  -1.05396
 Alpha  occ. eigenvalues --   -1.04792  -1.04288  -1.02866  -0.92246  -0.91884
 Alpha  occ. eigenvalues --   -0.91429  -0.91163  -0.90544  -0.89314  -0.89157
 Alpha  occ. eigenvalues --   -0.88781  -0.88268  -0.88081  -0.86988  -0.86108
 Alpha  occ. eigenvalues --   -0.85299  -0.84676  -0.83721  -0.83414  -0.82713
 Alpha  occ. eigenvalues --   -0.81552  -0.81099  -0.80219  -0.79841  -0.78658
 Alpha  occ. eigenvalues --   -0.78216  -0.76765  -0.76697  -0.75787  -0.75557
 Alpha  occ. eigenvalues --   -0.75293  -0.74729  -0.74637  -0.73130  -0.72447
 Alpha  occ. eigenvalues --   -0.72305  -0.71155  -0.70178  -0.69410  -0.68530
 Alpha  occ. eigenvalues --   -0.67548  -0.67291  -0.66489  -0.64758  -0.64592
 Alpha  occ. eigenvalues --   -0.63725  -0.63600  -0.61877  -0.61730  -0.61254
 Alpha  occ. eigenvalues --   -0.61169  -0.60890  -0.60265  -0.59657  -0.59110
 Alpha  occ. eigenvalues --   -0.58747  -0.57987  -0.57489  -0.56680  -0.56161
 Alpha  occ. eigenvalues --   -0.56093  -0.56013  -0.55538  -0.55209  -0.54950
 Alpha  occ. eigenvalues --   -0.54487  -0.54391  -0.54102  -0.53307  -0.53260
 Alpha  occ. eigenvalues --   -0.53043  -0.52667  -0.52506  -0.52283  -0.52029
 Alpha  occ. eigenvalues --   -0.51668  -0.51386  -0.51178  -0.51006  -0.50827
 Alpha  occ. eigenvalues --   -0.50662  -0.50387  -0.50136  -0.50013  -0.49875
 Alpha  occ. eigenvalues --   -0.49610  -0.49338  -0.48975  -0.48700  -0.48445
 Alpha  occ. eigenvalues --   -0.48282  -0.47930  -0.47815  -0.47659  -0.47378
 Alpha  occ. eigenvalues --   -0.46975  -0.46860  -0.46682  -0.46582  -0.46306
 Alpha  occ. eigenvalues --   -0.46123  -0.45778  -0.45586  -0.44804  -0.44723
 Alpha  occ. eigenvalues --   -0.44423  -0.44349  -0.44241  -0.44179  -0.44004
 Alpha  occ. eigenvalues --   -0.43946  -0.43747  -0.43611  -0.43572  -0.43312
 Alpha  occ. eigenvalues --   -0.43183  -0.43143  -0.42796  -0.42432  -0.42269
 Alpha  occ. eigenvalues --   -0.42184  -0.42119  -0.42044  -0.42010  -0.41773
 Alpha  occ. eigenvalues --   -0.41445  -0.41304  -0.40946  -0.40755  -0.40687
 Alpha  occ. eigenvalues --   -0.40529  -0.40507  -0.39986  -0.39720  -0.39438
 Alpha  occ. eigenvalues --   -0.39303  -0.38990  -0.38668  -0.38334  -0.38224
 Alpha  occ. eigenvalues --   -0.37616  -0.37583  -0.37225  -0.36685  -0.36543
 Alpha  occ. eigenvalues --   -0.36309  -0.35942  -0.35702  -0.35590  -0.35335
 Alpha  occ. eigenvalues --   -0.35066  -0.34133  -0.33888  -0.33773  -0.33558
 Alpha  occ. eigenvalues --   -0.33342  -0.32161  -0.32094  -0.30781  -0.30592
 Alpha  occ. eigenvalues --   -0.29191  -0.28944  -0.28712  -0.26691  -0.23525
 Alpha  occ. eigenvalues --   -0.20660
 Alpha virt. eigenvalues --   -0.06433  -0.02847   0.01357   0.03874   0.05888
 Alpha virt. eigenvalues --    0.06276   0.06479   0.06881   0.06913   0.08051
 Alpha virt. eigenvalues --    0.08448   0.09625   0.10615   0.10750   0.11379

 Mulliken charges:
               1
     1  Mg   0.843211
     2  C    0.073218
     3  C   -0.209872
     4  C   -0.210685
     5  C   -0.155666
     6  N   -0.608507
     7  C    0.253237
     8  C   -0.094105
     9  C   -0.097935
    10  C    0.340690
    11  C   -0.323431
    12  C   -0.181450
    13  C   -0.269430
    14  C    0.613051
    15  O   -0.456779
    16  O   -0.517170
    17  N   -0.751502
    18  C    0.333086
    19  C    0.010785
    20  C    0.040926
    21  C    0.324365
    22  C   -0.378422
    23  C   -0.062871
    24  C   -0.245776
    25  N   -0.699299
    26  C    0.331666
    27  C    0.029374
    28  C    0.020389
    29  C    0.261918
    30  C   -0.350694
    31  C   -0.262165
    32  C   -0.336255
    33  N   -0.686630
    34  C    0.265219
    35  C    0.039763
    36  C    0.061255
    37  C    0.265111
    38  C   -0.400257
    39  C    0.326015
    40  O   -0.494423
    41  C   -0.321858
    42  C    0.586188
    43  O   -0.429706
    44  O   -0.476866
    45  C   -0.084274
    46  C   -0.014574
    47  C   -0.128665
    48  C    0.108588
    49  C   -0.361983
    50  C   -0.216201
    51  C   -0.184885
    52  C   -0.182887
    53  C   -0.043292
    54  C   -0.334764
    55  C   -0.167864
    56  C   -0.173186
    57  C   -0.166695
    58  C   -0.067973
    59  C   -0.263952
    60  C   -0.204544
    61  C   -0.149754
    62  C   -0.174738
    63  C   -0.086605
    64  C   -0.275252
    65  C   -0.312983
    66  H    0.091342
    67  H    0.084412
    68  H    0.100295
    69  H    0.104582
    70  H    0.117792
    71  H    0.131243
    72  H    0.075744
    73  H    0.108849
    74  H    0.126652
    75  H    0.092090
    76  H    0.125012
    77  H    0.134632
    78  H    0.127634
    79  H    0.127822
    80  H    0.082876
    81  H    0.095455
    82  H    0.084918
    83  H    0.103665
    84  H    0.116273
    85  H    0.122021
    86  H    0.108852
    87  H    0.121138
    88  H    0.098464
    89  H    0.097453
    90  H    0.113702
    91  H    0.122638
    92  H    0.129445
    93  H    0.153546
    94  H    0.119909
    95  H    0.159279
    96  H    0.129597
    97  H    0.121880
    98  H    0.128351
    99  H    0.121648
   100  H    0.143702
   101  H    0.101086
   102  H    0.121351
   103  H    0.104451
   104  H    0.145778
   105  H    0.107219
   106  H    0.070764
   107  H    0.093307
   108  H    0.103715
   109  H    0.079722
   110  H    0.101222
   111  H    0.089817
   112  H    0.112020
   113  H    0.108041
   114  H    0.095533
   115  H    0.066091
   116  H    0.083557
   117  H    0.079125
   118  H    0.098954
   119  H    0.086501
   120  H    0.086048
   121  H    0.022931
   122  H    0.081733
   123  H    0.090913
   124  H    0.104332
   125  H    0.095349
   126  H    0.094896
   127  H    0.104648
   128  H    0.110385
   129  H    0.101108
   130  H    0.106049
   131  H    0.072018
   132  H    0.060147
   133  H    0.097984
   134  H    0.105639
   135  H    0.094901
   136  H    0.100735
   137  H    0.087785
 Sum of Mulliken charges =   0.00000

 Dipole moment (field-independent basis, Debye):
    X=              1.4296    Y=              5.2303    Z=              0.9451  Tot=              5.5039
 Quadrupole moment (field-independent basis, Debye-Ang):
   XX=           -346.2617   YY=           -400.6476   ZZ=           -394.3652
   XY=            -35.4277   XZ=              9.4529   YZ=              0.7125

 Normal termination of Gaussian 09 at Thu Jun 27 23:14:40 2019.
