 Gaussian 09, Revision D.01,
 Gaussian 09:  ES64L-G09RevD.01 24-Apr-2013

 -------------------------------------
 # td=(NStates=1) CAM-B3LYP/6-31G(d,p)
 -------------------------------------

 --
 TD
 --
 Symbolic Z-matrix:
 Charge =  0 Multiplicity = 1

                         Standard orientation:
 ---------------------------------------------------------------------
 Center     Atomic      Atomic             Coordinates (Angstroms)
 Number     Number       Type             X           Y           Z
 ---------------------------------------------------------------------
      1         12           0       -7.159318    0.622059    0.101489
      2          6           0       -4.765559   -1.907665    0.522313
      3          6           0       -4.798725    2.892474    1.235061
      4          6           0       -9.383867    3.015367   -0.365215
      5          6           0       -9.379275   -1.753336   -0.776828
      6          7           0       -5.098290    0.524381    0.801110
      7          6           0       -4.297776   -0.694167    0.804220
      8          6           0       -2.878410   -0.370881    1.326703
      9          6           0       -3.078249    1.142054    1.847749
     10          6           0       -4.379892    1.466173    1.287633
     11          6           0       -2.892169    1.238066    3.274193
     12          6           0       -1.870274   -0.468712    0.104893
     13          6           0       -0.353875   -0.242966    0.481508
     14          6           0        0.633044   -0.550033   -0.583931
     15          8           0        0.201866   -0.808946   -1.714258
     16          8           0        1.855323   -0.379367   -0.278339
     17          7           0       -7.140734    2.571236    0.330223
     18          6           0       -6.129711    3.340382    0.861982
     19          6           0       -6.557698    4.740693    0.794451
     20          6           0       -7.803505    4.883335    0.340870
     21          6           0       -8.196221    3.436060    0.019978
     22          6           0       -5.611062    5.869134    1.287598
     23          6           0       -8.649977    6.039981    0.296920
     24          6           0       -8.326238    7.317829    0.211622
     25          7           0       -9.098596    0.629082   -0.572726
     26          6           0       -9.880539    1.735314   -0.665407
     27          6           0      -11.221889    1.330974   -1.075296
     28          6           0      -11.230187   -0.010970   -1.183438
     29          6           0       -9.918296   -0.434493   -0.854911
     30          6           0      -12.303277    2.238998   -1.415425
     31          6           0      -12.324473   -0.962726   -1.741910
     32          6           0      -12.162975   -1.270028   -3.324023
     33          7           0       -7.150159   -1.400836   -0.148717
     34          6           0       -8.194815   -2.358924   -0.528520
     35          6           0       -7.712663   -3.721370   -0.486661
     36          6           0       -6.414310   -3.573824   -0.074474
     37          6           0       -6.155876   -2.222670    0.135908
     38          6           0       -8.522938   -4.825560   -0.863126
     39          6           0       -5.264308   -4.348693    0.159350
     40          8           0       -5.059298   -5.554701    0.083940
     41          6           0       -4.085347   -3.265985    0.554534
     42          6           0       -3.504716   -3.659494    1.866740
     43          8           0       -3.675995   -3.066471    2.902130
     44          8           0       -2.663704   -4.775771    1.791143
     45          6           0       -2.157519   -5.193104    2.983926
     46          6           0        2.765672   -0.534260   -1.315775
     47          6           0        4.128275   -0.332639   -0.572904
     48          6           0        5.064246    0.446080   -0.958188
     49          6           0        5.079479    1.404773   -2.259190
     50          6           0        6.385686    0.531663   -0.132328
     51          6           0        7.569086   -0.125663   -1.024948
     52          6           0        8.872002   -0.089797   -0.127209
     53          6           0       10.185035   -0.601093   -0.885126
     54          6           0       10.046943   -2.182917   -1.052902
     55          6           0       11.408402   -0.325069   -0.032789
     56          6           0       12.766549   -0.541598   -0.705954
     57          6           0       13.960751   -0.259538    0.178222
     58          6           0       15.258869   -0.255112   -0.576887
     59          6           0       15.561116   -1.794153   -0.962993
     60          6           0       16.327857    0.341013    0.354837
     61          6           0       17.722577    0.486764   -0.220695
     62          6           0       18.672398    1.271158    0.772028
     63          6           0       20.056376    1.350202    0.239721
     64          6           0       20.269480    2.145481   -1.010539
     65          6           0       21.092545    2.029338    1.242169
     66          1           0       -4.105722    3.724975    1.432592
     67          1           0      -10.042305    3.804847   -0.611725
     68          1           0      -10.170832   -2.359394   -1.056050
     69          1           0       -2.503566   -0.917480    2.239898
     70          1           0       -2.344553    1.597336    1.062814
     71          1           0       -2.018804    1.188442    3.823923
     72          1           0       -3.537290    2.323501    3.415754
     73          1           0       -3.594007    0.603770    3.682399
     74          1           0       -2.060283   -1.421650   -0.469260
     75          1           0       -2.044077    0.314826   -0.645492
     76          1           0       -0.055824    0.777701    0.936835
     77          1           0        0.063558   -0.860196    1.223372
     78          1           0       -5.241564    6.549657    0.356848
     79          1           0       -6.260354    6.541250    1.860812
     80          1           0       -4.816748    5.602104    1.869517
     81          1           0       -9.655950    5.951966    0.344628
     82          1           0       -9.092870    8.035710    0.168956
     83          1           0       -7.346328    7.587878    0.026565
     84          1           0      -12.064784    3.099890   -2.176277
     85          1           0      -13.095817    1.689474   -1.995117
     86          1           0      -12.639984    2.803991   -0.646638
     87          1           0      -12.514545   -1.911064   -1.103258
     88          1           0      -13.232908   -0.114417   -1.929972
     89          1           0      -12.809095   -2.115675   -3.539865
     90          1           0      -12.292350   -0.265256   -3.797147
     91          1           0      -11.331883   -1.870973   -3.272057
     92          1           0       -8.889556   -4.801565   -1.943049
     93          1           0       -8.081657   -5.788085   -0.849722
     94          1           0       -9.558871   -4.836993   -0.281994
     95          1           0       -3.338040   -3.458480   -0.277118
     96          1           0       -1.587837   -4.465268    3.519435
     97          1           0       -2.849339   -5.532767    3.831899
     98          1           0       -1.368104   -5.996997    2.636683
     99          1           0        2.792801   -1.507731   -1.916035
    100          1           0        2.714256    0.199820   -2.237096
    101          1           0        4.046884   -1.242706    0.248398
    102          1           0        4.166964    1.377798   -2.823619
    103          1           0        5.416092    2.411881   -1.886975
    104          1           0        5.716317    1.046472   -2.992510
    105          1           0        6.857395    1.638629    0.220330
    106          1           0        6.508745    0.093217    0.757994
    107          1           0        7.210331   -1.149166   -1.428984
    108          1           0        7.651848    0.565182   -1.734208
    109          1           0        8.965380    0.984370    0.092964
    110          1           0        8.861145   -0.777630    0.797436
    111          1           0       10.251315   -0.130535   -1.844791
    112          1           0        9.013228   -2.224858   -1.630064
    113          1           0       10.822498   -2.699714   -1.511095
    114          1           0        9.817202   -2.717547   -0.060692
    115          1           0       11.454286    0.659163    0.458920
    116          1           0       11.429749   -0.979227    0.896312
    117          1           0       12.763482   -1.637567   -1.162310
    118          1           0       12.918100    0.067997   -1.553819
    119          1           0       13.787484    0.662212    0.453844
    120          1           0       14.018716   -1.005398    0.985779
    121          1           0       15.291615    0.275309   -1.440176
    122          1           0       15.399594   -2.415575   -0.115009
    123          1           0       14.813686   -2.033959   -1.761295
    124          1           0       16.622063   -2.083398   -1.203153
    125          1           0       16.096296    1.416545    0.736797
    126          1           0       16.345973   -0.257568    1.272812
    127          1           0       18.185577   -0.274663   -0.253560
    128          1           0       17.497777    1.139174   -0.906696
    129          1           0       18.318794    2.145926    1.012339
    130          1           0       18.696256    0.746197    1.679547
    131          1           0       20.474731    0.264603    0.250387
    132          1           0       19.945921    3.110445   -0.878009
    133          1           0       21.437939    2.377147   -1.246086
    134          1           0       19.692971    1.868167   -2.035695
    135          1           0       21.271064    1.390276    2.117223
    136          1           0       22.049391    2.283375    0.610260
    137          1           0       20.700509    2.987403    1.383094
 ---------------------------------------------------------------------

 SCF Done:  E(RCAM-B3LYP) =  -2932.62052873     A.U. after   16 cycles

 Excitation energies and oscillator strengths:

 Excited State   1:      Singlet-A      2.2011 eV  563.27 nm  f=0.2227  <S**2>=0.000
     240 -> 243       -0.23929
     241 -> 242        0.65338
 This state for optimization and/or second-order correction.
 Total Energy, E(TD-HF/TD-KS) =  -2932.53963809
 Copying the excited state density for this state as the 1-particle RhoCI density.

 The electronic state is 1-A.
 Alpha  occ. eigenvalues --  -46.84304 -19.28788 -19.25513 -19.21106 -19.20280
 Alpha  occ. eigenvalues --  -19.19276 -14.42130 -14.40084 -14.39266 -14.38872
 Alpha  occ. eigenvalues --  -10.39081 -10.38546 -10.35030 -10.33233 -10.31894
 Alpha  occ. eigenvalues --  -10.30924 -10.30563 -10.30557 -10.29480 -10.29224
 Alpha  occ. eigenvalues --  -10.28923 -10.28877 -10.28788 -10.28776 -10.28714
 Alpha  occ. eigenvalues --  -10.28268 -10.27821 -10.27821 -10.27663 -10.27615
 Alpha  occ. eigenvalues --  -10.27541 -10.27536 -10.27413 -10.27273 -10.27118
 Alpha  occ. eigenvalues --  -10.27025 -10.26962 -10.26758 -10.26671 -10.26643
 Alpha  occ. eigenvalues --  -10.26496 -10.26415 -10.26303 -10.26176 -10.26073
 Alpha  occ. eigenvalues --  -10.26010 -10.25934 -10.25658 -10.25571 -10.25533
 Alpha  occ. eigenvalues --  -10.25507 -10.25367 -10.25313 -10.25286 -10.25061
 Alpha  occ. eigenvalues --  -10.24970 -10.24913 -10.24852 -10.24647 -10.24598
 Alpha  occ. eigenvalues --  -10.24560 -10.24530 -10.23169 -10.22667 -10.21351
 Alpha  occ. eigenvalues --   -3.13414  -1.88113  -1.87658  -1.87598  -1.22783
 Alpha  occ. eigenvalues --   -1.17914  -1.10344  -1.09764  -1.08311  -1.04940
 Alpha  occ. eigenvalues --   -1.03883  -1.03292  -1.02183  -0.92297  -0.91345
 Alpha  occ. eigenvalues --   -0.90603  -0.90191  -0.89915  -0.89751  -0.89341
 Alpha  occ. eigenvalues --   -0.88677  -0.88257  -0.88106  -0.87404  -0.86500
 Alpha  occ. eigenvalues --   -0.85215  -0.84660  -0.83940  -0.83337  -0.83210
 Alpha  occ. eigenvalues --   -0.81684  -0.81455  -0.80462  -0.79894  -0.78775
 Alpha  occ. eigenvalues --   -0.78190  -0.77543  -0.76574  -0.75803  -0.75455
 Alpha  occ. eigenvalues --   -0.75170  -0.74674  -0.74255  -0.73613  -0.72790
 Alpha  occ. eigenvalues --   -0.72110  -0.70653  -0.69919  -0.69150  -0.68935
 Alpha  occ. eigenvalues --   -0.67896  -0.67260  -0.65612  -0.65197  -0.64801
 Alpha  occ. eigenvalues --   -0.64563  -0.64442  -0.63985  -0.63386  -0.62726
 Alpha  occ. eigenvalues --   -0.62111  -0.61010  -0.60353  -0.60104  -0.59788
 Alpha  occ. eigenvalues --   -0.59337  -0.58394  -0.58009  -0.57902  -0.57740
 Alpha  occ. eigenvalues --   -0.57258  -0.56368  -0.55460  -0.55304  -0.55198
 Alpha  occ. eigenvalues --   -0.54852  -0.54795  -0.54574  -0.54059  -0.53584
 Alpha  occ. eigenvalues --   -0.53541  -0.53190  -0.53003  -0.52210  -0.51959
 Alpha  occ. eigenvalues --   -0.51026  -0.50881  -0.50802  -0.50619  -0.50488
 Alpha  occ. eigenvalues --   -0.50410  -0.50181  -0.49832  -0.49721  -0.49507
 Alpha  occ. eigenvalues --   -0.49384  -0.49151  -0.48949  -0.48882  -0.48737
 Alpha  occ. eigenvalues --   -0.48291  -0.48107  -0.47946  -0.47534  -0.47198
 Alpha  occ. eigenvalues --   -0.47079  -0.46925  -0.46328  -0.45875  -0.45829
 Alpha  occ. eigenvalues --   -0.45600  -0.45494  -0.45224  -0.45024  -0.44923
 Alpha  occ. eigenvalues --   -0.44603  -0.44503  -0.44407  -0.44162  -0.43983
 Alpha  occ. eigenvalues --   -0.43847  -0.43614  -0.43512  -0.43366  -0.43159
 Alpha  occ. eigenvalues --   -0.43113  -0.42865  -0.42760  -0.42598  -0.42485
 Alpha  occ. eigenvalues --   -0.42441  -0.42068  -0.41707  -0.41631  -0.41259
 Alpha  occ. eigenvalues --   -0.41072  -0.40816  -0.40786  -0.40587  -0.40448
 Alpha  occ. eigenvalues --   -0.40283  -0.40065  -0.39705  -0.39598  -0.39498
 Alpha  occ. eigenvalues --   -0.39194  -0.38819  -0.38210  -0.37806  -0.37541
 Alpha  occ. eigenvalues --   -0.37451  -0.37417  -0.37285  -0.37007  -0.36634
 Alpha  occ. eigenvalues --   -0.36494  -0.36158  -0.35750  -0.35727  -0.35280
 Alpha  occ. eigenvalues --   -0.34997  -0.34661  -0.34646  -0.33877  -0.33654
 Alpha  occ. eigenvalues --   -0.33523  -0.32607  -0.32532  -0.30989  -0.30588
 Alpha  occ. eigenvalues --   -0.30001  -0.29895  -0.28598  -0.28252  -0.23854
 Alpha  occ. eigenvalues --   -0.21290
 Alpha virt. eigenvalues --   -0.05752  -0.02909   0.01479   0.04252   0.05737
 Alpha virt. eigenvalues --    0.06218   0.06505   0.06838   0.07395   0.07881
 Alpha virt. eigenvalues --    0.08166   0.09808   0.11081   0.11509   0.11838

 Mulliken charges:
               1
     1  Mg   0.824219
     2  C    0.110728
     3  C   -0.231305
     4  C   -0.193697
     5  C   -0.193531
     6  N   -0.599269
     7  C    0.232498
     8  C   -0.165094
     9  C   -0.137548
    10  C    0.359668
    11  C   -0.302606
    12  C   -0.178354
    13  C   -0.276527
    14  C    0.596116
    15  O   -0.505932
    16  O   -0.396837
    17  N   -0.742114
    18  C    0.340485
    19  C   -0.026084
    20  C    0.075490
    21  C    0.301359
    22  C   -0.365684
    23  C   -0.076435
    24  C   -0.231486
    25  N   -0.688196
    26  C    0.311545
    27  C    0.017143
    28  C    0.069564
    29  C    0.260507
    30  C   -0.381408
    31  C   -0.268790
    32  C   -0.289493
    33  N   -0.702200
    34  C    0.229639
    35  C    0.151676
    36  C    0.022580
    37  C    0.322362
    38  C   -0.409777
    39  C    0.318233
    40  O   -0.463213
    41  C   -0.360255
    42  C    0.643854
    43  O   -0.464324
    44  O   -0.443094
    45  C   -0.077848
    46  C   -0.016385
    47  C   -0.121816
    48  C    0.093448
    49  C   -0.359724
    50  C   -0.223355
    51  C   -0.188150
    52  C   -0.177965
    53  C   -0.066951
    54  C   -0.307232
    55  C   -0.162005
    56  C   -0.189627
    57  C   -0.142016
    58  C   -0.067129
    59  C   -0.326221
    60  C   -0.200863
    61  C   -0.104416
    62  C   -0.190120
    63  C   -0.055121
    64  C   -0.304340
    65  C   -0.313180
    66  H    0.087104
    67  H    0.072343
    68  H    0.057076
    69  H    0.127362
    70  H    0.112884
    71  H    0.130110
    72  H    0.072643
    73  H    0.143575
    74  H    0.125937
    75  H    0.123705
    76  H    0.126465
    77  H    0.129631
    78  H    0.103497
    79  H    0.127530
    80  H    0.122009
    81  H    0.091912
    82  H    0.103193
    83  H    0.098868
    84  H    0.099023
    85  H    0.102229
    86  H    0.133590
    87  H    0.107896
    88  H    0.072160
    89  H    0.107524
    90  H    0.120827
    91  H    0.118173
    92  H    0.127219
    93  H    0.153600
    94  H    0.116933
    95  H    0.167470
    96  H    0.112354
    97  H    0.111617
    98  H    0.102141
    99  H    0.130352
   100  H    0.107129
   101  H    0.095050
   102  H    0.112927
   103  H    0.123330
   104  H    0.136186
   105  H    0.057332
   106  H    0.117680
   107  H    0.096451
   108  H    0.117298
   109  H    0.092579
   110  H    0.089163
   111  H    0.089011
   112  H    0.081834
   113  H    0.115743
   114  H    0.091498
   115  H    0.077621
   116  H    0.078719
   117  H    0.067261
   118  H    0.091628
   119  H    0.097434
   120  H    0.092677
   121  H    0.087262
   122  H    0.103964
   123  H    0.104967
   124  H    0.094230
   125  H    0.064989
   126  H    0.076644
   127  H    0.083352
   128  H    0.102757
   129  H    0.088075
   130  H    0.090826
   131  H    0.071407
   132  H    0.114880
   133  H    0.080099
   134  H    0.080358
   135  H    0.101521
   136  H    0.085265
   137  H    0.108506
 Sum of Mulliken charges =   0.00000

 Dipole moment (field-independent basis, Debye):
    X=              0.8878    Y=              5.0207    Z=              0.1596  Tot=              5.1011
 Quadrupole moment (field-independent basis, Debye-Ang):
   XX=           -357.6178   YY=           -391.9579   ZZ=           -397.3438
   XY=            -12.9415   XZ=             13.8207   YZ=             -1.2404

 Normal termination of Gaussian 09 at Sat Jun 29 14:03:16 2019.
