 Gaussian 09, Revision D.01,
 Gaussian 09:  ES64L-G09RevD.01 24-Apr-2013

 -------------------------------------
 # td=(NStates=1) CAM-B3LYP/6-31G(d,p)
 -------------------------------------

 --
 TD
 --
 Symbolic Z-matrix:
 Charge =  0 Multiplicity = 1

                         Standard orientation:
 ---------------------------------------------------------------------
 Center     Atomic      Atomic             Coordinates (Angstroms)
 Number     Number       Type             X           Y           Z
 ---------------------------------------------------------------------
      1         12           0       -7.156208    0.496395    0.016893
      2          6           0       -4.854741   -1.965679    0.458191
      3          6           0       -4.774740    2.790409    1.202141
      4          6           0       -9.401855    3.093782   -0.309890
      5          6           0       -9.598425   -1.753020   -0.823764
      6          7           0       -5.118156    0.388314    0.701638
      7          6           0       -4.319491   -0.697932    0.782282
      8          6           0       -2.934558   -0.455447    1.197700
      9          6           0       -3.020455    1.004549    1.722039
     10          6           0       -4.374867    1.380078    1.170901
     11          6           0       -2.917632    1.172168    3.223588
     12          6           0       -1.898352   -0.571959   -0.027924
     13          6           0       -0.455727   -0.332917    0.550652
     14          6           0        0.605063   -0.544631   -0.687868
     15          8           0        0.224307   -1.005936   -1.741785
     16          8           0        1.751959   -0.358849   -0.234878
     17          7           0       -7.076328    2.633661    0.439667
     18          6           0       -6.079572    3.349623    0.869502
     19          6           0       -6.443561    4.748391    0.917569
     20          6           0       -7.780711    4.766774    0.489508
     21          6           0       -8.182539    3.397197    0.118485
     22          6           0       -5.614069    5.841199    1.403376
     23          6           0       -8.628073    5.942460    0.371740
     24          6           0       -8.331256    7.215313    0.062629
     25          7           0       -9.110120    0.605204   -0.497294
     26          6           0       -9.880395    1.762763   -0.641570
     27          6           0      -11.221148    1.387687   -1.178834
     28          6           0      -11.265863    0.091340   -1.270521
     29          6           0       -9.947448   -0.425640   -0.897148
     30          6           0      -12.352140    2.504932   -1.230553
     31          6           0      -12.376802   -0.785710   -1.643951
     32          6           0      -12.382692   -1.033743   -3.219185
     33          7           0       -7.212546   -1.414799   -0.309112
     34          6           0       -8.217934   -2.349506   -0.637513
     35          6           0       -7.766793   -3.629314   -0.559565
     36          6           0       -6.488559   -3.596489   -0.070883
     37          6           0       -6.150605   -2.262515    0.058805
     38          6           0       -8.644659   -4.841926   -0.758473
     39          6           0       -5.315393   -4.473183    0.053020
     40          8           0       -5.184201   -5.596781    0.173590
     41          6           0       -4.170800   -3.325691    0.561438
     42          6           0       -3.487499   -3.677282    1.866300
     43          8           0       -3.715499   -3.106872    2.948532
     44          8           0       -2.623841   -4.724599    1.731934
     45          6           0       -2.094718   -5.217242    2.914147
     46          6           0        2.868029   -0.462614   -1.157506
     47          6           0        4.188486   -0.211902   -0.587961
     48          6           0        5.129847    0.685860   -0.896165
     49          6           0        4.940773    1.491846   -2.168566
     50          6           0        6.476221    0.679451   -0.187535
     51          6           0        7.632226   -0.016060   -1.005554
     52          6           0        8.929146    0.005104   -0.244569
     53          6           0       10.176760   -0.410900   -0.944363
     54          6           0       10.073154   -1.873944   -1.482144
     55          6           0       11.456234   -0.256534   -0.113826
     56          6           0       12.746389   -0.583132   -0.706721
     57          6           0       13.912966   -0.153035    0.217315
     58          6           0       15.365721   -0.193413   -0.470715
     59          6           0       15.597722   -1.678009   -0.982072
     60          6           0       16.503048    0.191992    0.563991
     61          6           0       17.828985    0.428845   -0.095602
     62          6           0       18.799959    1.239981    0.730842
     63          6           0       20.311805    1.204649    0.307110
     64          6           0       20.404959    1.769998   -1.148745
     65          6           0       21.052917    1.994664    1.393632
     66          1           0       -4.041473    3.477694    1.489981
     67          1           0      -10.165243    3.884750   -0.384521
     68          1           0      -10.347437   -2.621875   -0.997794
     69          1           0       -2.774952   -1.006007    2.228695
     70          1           0       -2.171110    1.409699    1.062781
     71          1           0       -2.072524    0.796852    3.641043
     72          1           0       -2.920104    2.322481    3.321604
     73          1           0       -3.537325    0.567660    3.690042
     74          1           0       -1.927189   -1.561615   -0.469639
     75          1           0       -2.326329    0.173356   -0.531999
     76          1           0       -0.304493    0.570030    1.195926
     77          1           0       -0.237544   -0.995192    1.334481
     78          1           0       -4.856474    6.148240    0.514183
     79          1           0       -6.182457    6.743693    1.860715
     80          1           0       -4.810038    5.408604    1.960546
     81          1           0       -9.772055    5.877977    0.688981
     82          1           0       -9.154936    7.890032   -0.248560
     83          1           0       -7.376918    7.747753    0.029951
     84          1           0      -11.998373    3.296282   -1.950763
     85          1           0      -13.133433    1.944053   -1.609489
     86          1           0      -12.438972    3.006437   -0.347774
     87          1           0      -12.227725   -1.784716   -1.129824
     88          1           0      -13.257408   -0.204666   -1.338129
     89          1           0      -13.398237   -1.574750   -3.359477
     90          1           0      -12.496106   -0.047957   -3.794554
     91          1           0      -11.556451   -1.688334   -3.363296
     92          1           0       -8.976013   -5.107068   -1.911497
     93          1           0       -8.294039   -5.887170   -0.187480
     94          1           0       -9.512228   -4.764851   -0.196352
     95          1           0       -3.448333   -3.683103   -0.216432
     96          1           0       -1.848922   -4.306868    3.594644
     97          1           0       -2.851215   -5.777946    3.650090
     98          1           0       -1.157466   -5.825054    2.502955
     99          1           0        2.862619   -1.464907   -1.517317
    100          1           0        2.398793    0.056988   -2.141171
    101          1           0        4.135781   -0.969669    0.159786
    102          1           0        3.921074    1.726267   -2.559357
    103          1           0        5.253731    2.672035   -1.901815
    104          1           0        5.691154    1.250413   -2.972496
    105          1           0        6.778990    1.855210    0.068905
    106          1           0        6.359914    0.254644    0.861941
    107          1           0        7.330973   -1.112116   -1.183457
    108          1           0        7.681015    0.395218   -2.013717
    109          1           0        9.126889    1.060618    0.074665
    110          1           0        8.951639   -0.546932    0.665035
    111          1           0       10.513458    0.059829   -1.938125
    112          1           0        9.411416   -1.839894   -2.408739
    113          1           0       11.130108   -2.056638   -1.807475
    114          1           0        9.688720   -2.620092   -0.750753
    115          1           0       11.569811    0.766276    0.367960
    116          1           0       11.509407   -0.845824    0.804314
    117          1           0       12.847237   -1.616224   -0.979202
    118          1           0       12.810600    0.039445   -1.793092
    119          1           0       13.933559    0.733520    0.800019
    120          1           0       13.864326   -0.787504    1.158992
    121          1           0       15.187190    0.566807   -1.145594
    122          1           0       15.721564   -2.253981   -0.150884
    123          1           0       14.762036   -2.041090   -1.624559
    124          1           0       16.519599   -1.728894   -1.415519
    125          1           0       16.159785    1.174221    1.186964
    126          1           0       16.409909   -0.637042    1.447992
    127          1           0       18.313481   -0.594254   -0.264747
    128          1           0       17.662336    0.730492   -1.100170
    129          1           0       18.476000    2.294311    0.882506
    130          1           0       18.738512    0.834768    1.751740
    131          1           0       20.717349    0.415669    0.147620
    132          1           0       20.036444    2.820343   -1.267685
    133          1           0       21.520457    1.980784   -1.425232
    134          1           0       20.074524    1.002938   -1.816723
    135          1           0       20.898900    1.507081    2.380998
    136          1           0       22.095251    2.053270    1.354509
    137          1           0       20.623695    3.166265    1.425376
 ---------------------------------------------------------------------

 SCF Done:  E(RCAM-B3LYP) =  -2932.64810019     A.U. after   18 cycles

 Excitation energies and oscillator strengths:

 Excited State   1:      Singlet-A      2.1042 eV  589.23 nm  f=0.2904  <S**2>=0.000
     240 -> 242       -0.16798
     240 -> 243        0.19626
     241 -> 242        0.64539
     241 -> 243        0.11281
 This state for optimization and/or second-order correction.
 Total Energy, E(TD-HF/TD-KS) =  -2932.57077274
 Copying the excited state density for this state as the 1-particle RhoCI density.

 The electronic state is 1-A.
 Alpha  occ. eigenvalues --  -46.84288 -19.28005 -19.25853 -19.21227 -19.20328
 Alpha  occ. eigenvalues --  -19.19733 -14.41801 -14.40072 -14.38895 -14.38243
 Alpha  occ. eigenvalues --  -10.39152 -10.38451 -10.34940 -10.32855 -10.32112
 Alpha  occ. eigenvalues --  -10.31168 -10.30466 -10.30013 -10.29539 -10.29359
 Alpha  occ. eigenvalues --  -10.29326 -10.29008 -10.28909 -10.28802 -10.28400
 Alpha  occ. eigenvalues --  -10.28112 -10.28079 -10.27430 -10.27332 -10.27310
 Alpha  occ. eigenvalues --  -10.27299 -10.27037 -10.27016 -10.26990 -10.26962
 Alpha  occ. eigenvalues --  -10.26935 -10.26926 -10.26877 -10.26865 -10.26790
 Alpha  occ. eigenvalues --  -10.26620 -10.26531 -10.26491 -10.26466 -10.26394
 Alpha  occ. eigenvalues --  -10.26305 -10.26012 -10.25934 -10.25926 -10.25876
 Alpha  occ. eigenvalues --  -10.25842 -10.25795 -10.25622 -10.25404 -10.25384
 Alpha  occ. eigenvalues --  -10.25324 -10.25179 -10.25146 -10.25105 -10.24966
 Alpha  occ. eigenvalues --  -10.24830 -10.24517 -10.24420 -10.23620 -10.23373
 Alpha  occ. eigenvalues --   -3.13320  -1.88018  -1.87588  -1.87476  -1.22001
 Alpha  occ. eigenvalues --   -1.17427  -1.15815  -1.09855  -1.07309  -1.05671
 Alpha  occ. eigenvalues --   -1.04302  -1.02688  -1.01655  -0.92076  -0.91112
 Alpha  occ. eigenvalues --   -0.90742  -0.89943  -0.89758  -0.89678  -0.88882
 Alpha  occ. eigenvalues --   -0.88275  -0.88242  -0.86778  -0.86471  -0.85754
 Alpha  occ. eigenvalues --   -0.85163  -0.84447  -0.83214  -0.82730  -0.82384
 Alpha  occ. eigenvalues --   -0.82125  -0.80528  -0.80299  -0.79604  -0.78152
 Alpha  occ. eigenvalues --   -0.77760  -0.76971  -0.76193  -0.75693  -0.75518
 Alpha  occ. eigenvalues --   -0.74716  -0.74571  -0.74318  -0.73686  -0.71898
 Alpha  occ. eigenvalues --   -0.71526  -0.70715  -0.69844  -0.69306  -0.67619
 Alpha  occ. eigenvalues --   -0.67354  -0.66876  -0.65459  -0.64946  -0.64742
 Alpha  occ. eigenvalues --   -0.64650  -0.64448  -0.63811  -0.62872  -0.62644
 Alpha  occ. eigenvalues --   -0.62253  -0.61538  -0.59801  -0.59623  -0.59570
 Alpha  occ. eigenvalues --   -0.58434  -0.58089  -0.57570  -0.57032  -0.56043
 Alpha  occ. eigenvalues --   -0.55699  -0.55135  -0.54835  -0.54760  -0.54624
 Alpha  occ. eigenvalues --   -0.54150  -0.54036  -0.53814  -0.53355  -0.53057
 Alpha  occ. eigenvalues --   -0.52971  -0.52525  -0.52118  -0.52023  -0.51702
 Alpha  occ. eigenvalues --   -0.51510  -0.51281  -0.50659  -0.50483  -0.50417
 Alpha  occ. eigenvalues --   -0.50299  -0.50220  -0.49937  -0.49841  -0.49690
 Alpha  occ. eigenvalues --   -0.49548  -0.49246  -0.48996  -0.48693  -0.48322
 Alpha  occ. eigenvalues --   -0.48225  -0.48039  -0.47568  -0.47519  -0.47150
 Alpha  occ. eigenvalues --   -0.46979  -0.46715  -0.46513  -0.46398  -0.45932
 Alpha  occ. eigenvalues --   -0.45707  -0.45479  -0.45097  -0.45068  -0.45013
 Alpha  occ. eigenvalues --   -0.44761  -0.44512  -0.44351  -0.44224  -0.44168
 Alpha  occ. eigenvalues --   -0.43986  -0.43794  -0.43721  -0.43594  -0.43048
 Alpha  occ. eigenvalues --   -0.42912  -0.42764  -0.42526  -0.42255  -0.42053
 Alpha  occ. eigenvalues --   -0.41850  -0.41744  -0.41506  -0.41445  -0.41204
 Alpha  occ. eigenvalues --   -0.41156  -0.40926  -0.40802  -0.40645  -0.40328
 Alpha  occ. eigenvalues --   -0.40276  -0.39944  -0.39630  -0.39479  -0.39153
 Alpha  occ. eigenvalues --   -0.39015  -0.38567  -0.38302  -0.38248  -0.38162
 Alpha  occ. eigenvalues --   -0.37540  -0.37416  -0.36778  -0.36763  -0.36643
 Alpha  occ. eigenvalues --   -0.36541  -0.36064  -0.35831  -0.35794  -0.35481
 Alpha  occ. eigenvalues --   -0.35111  -0.34567  -0.34267  -0.34059  -0.33255
 Alpha  occ. eigenvalues --   -0.32930  -0.32731  -0.31642  -0.30686  -0.30128
 Alpha  occ. eigenvalues --   -0.29554  -0.28783  -0.28359  -0.26942  -0.22867
 Alpha  occ. eigenvalues --   -0.20702
 Alpha virt. eigenvalues --   -0.06252  -0.02183   0.02040   0.04322   0.04424
 Alpha virt. eigenvalues --    0.05912   0.06073   0.07045   0.07591   0.07915
 Alpha virt. eigenvalues --    0.08842   0.10875   0.11423   0.11828   0.12196

 Mulliken charges:
               1
     1  Mg   0.833938
     2  C    0.072339
     3  C   -0.214438
     4  C   -0.189378
     5  C   -0.200007
     6  N   -0.595956
     7  C    0.305226
     8  C   -0.209461
     9  C   -0.164180
    10  C    0.341689
    11  C   -0.292078
    12  C   -0.137839
    13  C   -0.300268
    14  C    0.596385
    15  O   -0.484319
    16  O   -0.403368
    17  N   -0.724912
    18  C    0.342862
    19  C    0.052011
    20  C   -0.009654
    21  C    0.372134
    22  C   -0.385352
    23  C   -0.115180
    24  C   -0.241677
    25  N   -0.685015
    26  C    0.276431
    27  C   -0.034546
    28  C    0.087141
    29  C    0.311763
    30  C   -0.344174
    31  C   -0.261480
    32  C   -0.297431
    33  N   -0.736097
    34  C    0.247421
    35  C    0.026076
    36  C   -0.002242
    37  C    0.254377
    38  C   -0.380658
    39  C    0.355230
    40  O   -0.367733
    41  C   -0.373018
    42  C    0.638965
    43  O   -0.505866
    44  O   -0.433995
    45  C   -0.081311
    46  C   -0.026118
    47  C   -0.106997
    48  C    0.122522
    49  C   -0.363995
    50  C   -0.222247
    51  C   -0.174838
    52  C   -0.157003
    53  C   -0.067260
    54  C   -0.311233
    55  C   -0.166521
    56  C   -0.168677
    57  C   -0.200189
    58  C   -0.068484
    59  C   -0.310306
    60  C   -0.177179
    61  C   -0.173516
    62  C   -0.168319
    63  C   -0.020977
    64  C   -0.323861
    65  C   -0.305424
    66  H    0.063484
    67  H    0.093460
    68  H    0.091178
    69  H    0.123819
    70  H    0.102983
    71  H    0.114979
    72  H    0.104249
    73  H    0.136957
    74  H    0.137412
    75  H    0.119130
    76  H    0.114225
    77  H    0.137502
    78  H    0.104309
    79  H    0.128264
    80  H    0.124894
    81  H    0.090509
    82  H    0.099381
    83  H    0.107017
    84  H    0.116328
    85  H    0.114445
    86  H    0.137890
    87  H    0.107589
    88  H    0.102807
    89  H    0.096547
    90  H    0.111109
    91  H    0.127391
    92  H    0.099248
    93  H    0.109133
    94  H    0.132486
    95  H    0.142510
    96  H    0.119913
    97  H    0.113031
    98  H    0.110624
    99  H    0.140557
   100  H    0.110136
   101  H    0.101864
   102  H    0.131544
   103  H    0.075566
   104  H    0.128867
   105  H    0.077334
   106  H    0.108580
   107  H    0.097909
   108  H    0.105792
   109  H    0.087912
   110  H    0.104750
   111  H    0.076655
   112  H    0.095165
   113  H    0.096488
   114  H    0.097328
   115  H    0.086013
   116  H    0.085838
   117  H    0.114478
   118  H    0.045827
   119  H    0.093715
   120  H    0.070647
   121  H    0.100592
   122  H    0.113189
   123  H    0.100394
   124  H    0.104255
   125  H    0.063699
   126  H    0.073126
   127  H    0.084729
   128  H    0.109586
   129  H    0.091342
   130  H    0.090355
   131  H    0.088021
   132  H    0.100282
   133  H    0.076797
   134  H    0.111632
   135  H    0.098933
   136  H    0.104185
   137  H    0.069379
 Sum of Mulliken charges =   0.00000

 Dipole moment (field-independent basis, Debye):
    X=              3.0857    Y=              4.9518    Z=              0.1885  Tot=              5.8376
 Quadrupole moment (field-independent basis, Debye-Ang):
   XX=           -315.1404   YY=           -396.9018   ZZ=           -401.1097
   XY=            -31.7287   XZ=             12.0055   YZ=             -0.9975

 Normal termination of Gaussian 09 at Fri Jun 28 07:22:50 2019.
