 Gaussian 09, Revision D.01,
 Gaussian 09:  ES64L-G09RevD.01 24-Apr-2013

 -------------------------------------
 # td=(NStates=1) CAM-B3LYP/6-31G(d,p)
 -------------------------------------

 --
 TD
 --
 Symbolic Z-matrix:
 Charge =  0 Multiplicity = 1

                         Standard orientation:
 ---------------------------------------------------------------------
 Center     Atomic      Atomic             Coordinates (Angstroms)
 Number     Number       Type             X           Y           Z
 ---------------------------------------------------------------------
      1         12           0       -7.157864    0.661104    0.017357
      2          6           0       -4.800937   -1.995335    0.523337
      3          6           0       -4.887781    2.744262    1.181717
      4          6           0       -9.347757    3.182546   -0.374444
      5          6           0       -9.604453   -1.612220   -0.716857
      6          7           0       -5.037154    0.476650    0.616608
      7          6           0       -4.311970   -0.751945    0.686674
      8          6           0       -2.915773   -0.377147    1.257286
      9          6           0       -2.962816    1.111190    1.660932
     10          6           0       -4.347905    1.436406    1.132879
     11          6           0       -3.005345    1.304717    3.151887
     12          6           0       -1.935534   -0.566234   -0.002822
     13          6           0       -0.457600   -0.338273    0.497129
     14          6           0        0.518927   -0.642904   -0.651121
     15          8           0        0.165191   -1.033209   -1.740396
     16          8           0        1.768524   -0.487019   -0.229673
     17          7           0       -7.118378    2.682895    0.271587
     18          6           0       -6.122185    3.401219    0.819716
     19          6           0       -6.411838    4.795050    0.883004
     20          6           0       -7.703861    4.908725    0.390426
     21          6           0       -8.147495    3.518626    0.076407
     22          6           0       -5.394629    5.790537    1.362055
     23          6           0       -8.588468    6.020993    0.360836
     24          6           0       -8.163397    7.294004    0.167486
     25          7           0       -9.118841    0.693436   -0.422417
     26          6           0       -9.837076    1.819987   -0.669783
     27          6           0      -11.182923    1.531768   -1.091615
     28          6           0      -11.229117    0.128787   -1.272178
     29          6           0       -9.901563   -0.325877   -0.797103
     30          6           0      -12.223007    2.573419   -1.415763
     31          6           0      -12.371004   -0.682918   -1.625357
     32          6           0      -12.371909   -1.177304   -3.138321
     33          7           0       -7.177996   -1.426093   -0.136752
     34          6           0       -8.325866   -2.216097   -0.531545
     35          6           0       -7.888151   -3.584115   -0.530906
     36          6           0       -6.603426   -3.519228   -0.082517
     37          6           0       -6.262094   -2.159926    0.098410
     38          6           0       -8.711952   -4.799974   -0.809721
     39          6           0       -5.458921   -4.389313    0.185892
     40          8           0       -5.195202   -5.618459    0.124442
     41          6           0       -4.212054   -3.378669    0.587114
     42          6           0       -3.724846   -3.709572    1.841438
     43          8           0       -3.886131   -3.119206    2.980369
     44          8           0       -2.830255   -4.736958    1.685348
     45          6           0       -2.302576   -5.259694    2.993603
     46          6           0        2.854901   -0.772629   -1.228123
     47          6           0        4.155777   -0.569000   -0.558508
     48          6           0        5.176852    0.072473   -0.984767
     49          6           0        5.148290    0.985675   -2.341101
     50          6           0        6.446822    0.155563   -0.187813
     51          6           0        7.648644   -0.324236   -0.949355
     52          6           0        9.001965   -0.116534   -0.124839
     53          6           0       10.180749   -0.589651   -0.825741
     54          6           0       10.102422   -1.990157   -1.456859
     55          6           0       11.447664   -0.249920    0.025990
     56          6           0       12.797221   -0.504326   -0.603442
     57          6           0       14.006346   -0.126241    0.331618
     58          6           0       15.325248   -0.243208   -0.350491
     59          6           0       15.634926   -1.716248   -0.850366
     60          6           0       16.488530    0.317651    0.514570
     61          6           0       17.764931    0.646630   -0.226344
     62          6           0       18.810173    1.264904    0.756720
     63          6           0       20.390187    1.436520    0.250511
     64          6           0       20.346606    2.129338   -1.107363
     65          6           0       21.136927    2.185949    1.307715
     66          1           0       -4.208154    3.717785    1.629744
     67          1           0      -10.233549    3.954905   -0.605353
     68          1           0      -10.265161   -2.286431   -0.943611
     69          1           0       -2.665171   -1.030037    1.971566
     70          1           0       -2.227628    1.849342    1.265162
     71          1           0       -2.021587    0.940992    3.482234
     72          1           0       -3.221889    2.356915    3.338339
     73          1           0       -3.941190    0.857540    3.547603
     74          1           0       -2.017467   -1.555372   -0.410665
     75          1           0       -2.204295    0.271526   -0.764054
     76          1           0       -0.185920    0.530480    0.865396
     77          1           0       -0.039640   -1.143006    1.303224
     78          1           0       -4.604010    6.137566    0.645421
     79          1           0       -6.039857    6.588571    1.596855
     80          1           0       -4.946369    5.357810    2.130487
     81          1           0       -9.535570    5.741802    0.582636
     82          1           0       -8.921294    8.028499    0.172260
     83          1           0       -7.061527    7.536872   -0.079038
     84          1           0      -12.077063    3.196322   -2.332884
     85          1           0      -13.217132    2.058180   -1.301090
     86          1           0      -12.176963    3.338972   -0.586881
     87          1           0      -12.306590   -1.482799   -1.032187
     88          1           0      -13.300686   -0.131843   -1.593245
     89          1           0      -13.396144   -1.752329   -3.524431
     90          1           0      -12.329688   -0.259318   -3.887132
     91          1           0      -11.477631   -1.877829   -3.406854
     92          1           0       -8.834766   -4.652239   -1.857278
     93          1           0       -8.084924   -5.564540   -0.725274
     94          1           0       -9.683882   -4.882679   -0.132268
     95          1           0       -3.533114   -3.515724   -0.192489
     96          1           0       -1.945919   -4.391047    3.515849
     97          1           0       -3.157092   -5.706233    3.556228
     98          1           0       -1.048203   -5.618652    2.743956
     99          1           0        2.580378   -1.949519   -1.365733
    100          1           0        2.844867   -0.279786   -2.119665
    101          1           0        4.327017   -0.947370    0.297004
    102          1           0        4.154827    1.113365   -2.817463
    103          1           0        5.256988    2.226387   -2.278887
    104          1           0        5.964443    0.719378   -3.011437
    105          1           0        6.776083    1.149367    0.133624
    106          1           0        6.297272   -0.706317    0.674912
    107          1           0        7.614570   -1.429283   -1.167398
    108          1           0        7.797281    0.202179   -1.873991
    109          1           0        9.141171    0.981474    0.252069
    110          1           0        8.743379   -0.724999    0.914963
    111          1           0       10.321574   -0.030102   -1.789261
    112          1           0        9.440698   -2.007046   -2.216760
    113          1           0       11.070079   -2.022893   -1.863565
    114          1           0        9.792275   -2.587751   -0.646175
    115          1           0       11.279850    0.692628    0.321367
    116          1           0       11.329365   -1.081616    0.960421
    117          1           0       13.160144   -1.509213   -0.973668
    118          1           0       12.885541    0.284239   -1.442513
    119          1           0       13.834677    0.808082    0.787094
    120          1           0       14.299123   -0.871597    1.204171
    121          1           0       15.373422    0.442729   -1.206326
    122          1           0       15.851535   -2.524237   -0.061295
    123          1           0       15.048777   -1.879235   -1.765869
    124          1           0       16.457318   -1.722792   -1.514561
    125          1           0       16.180247    1.288557    1.010406
    126          1           0       16.487820   -0.365598    1.279543
    127          1           0       18.258379   -0.193104   -0.580950
    128          1           0       17.657652    1.307558   -1.179027
    129          1           0       18.527813    2.261949    0.859583
    130          1           0       18.842677    0.644109    1.755245
    131          1           0       20.964795    0.600353    0.126889
    132          1           0       19.867406    3.124616   -1.006349
    133          1           0       21.288205    2.213441   -1.623901
    134          1           0       19.860686    1.564050   -1.922521
    135          1           0       21.061707    1.760306    2.289273
    136          1           0       22.291440    2.164534    0.986892
    137          1           0       20.855238    3.298201    1.288350
 ---------------------------------------------------------------------

 SCF Done:  E(RCAM-B3LYP) =  -2932.60883691     A.U. after   15 cycles

 Excitation energies and oscillator strengths:

 Excited State   1:      Singlet-A      2.2111 eV  560.74 nm  f=0.1771  <S**2>=0.000
     240 -> 243        0.23459
     241 -> 242        0.64977
 This state for optimization and/or second-order correction.
 Total Energy, E(TD-HF/TD-KS) =  -2932.52758080
 Copying the excited state density for this state as the 1-particle RhoCI density.

 The electronic state is 1-A.
 Alpha  occ. eigenvalues --  -46.85354 -19.26039 -19.25128 -19.20010 -19.19849
 Alpha  occ. eigenvalues --  -19.19221 -14.41170 -14.39777 -14.39207 -14.38874
 Alpha  occ. eigenvalues --  -10.38065 -10.38019 -10.35498 -10.32582 -10.32363
 Alpha  occ. eigenvalues --  -10.31171 -10.30353 -10.29946 -10.29790 -10.29212
 Alpha  occ. eigenvalues --  -10.28521 -10.28346 -10.28039 -10.27953 -10.27926
 Alpha  occ. eigenvalues --  -10.27921 -10.27556 -10.27553 -10.27461 -10.27411
 Alpha  occ. eigenvalues --  -10.27378 -10.27332 -10.27296 -10.27235 -10.27135
 Alpha  occ. eigenvalues --  -10.26934 -10.26923 -10.26870 -10.26863 -10.26804
 Alpha  occ. eigenvalues --  -10.26714 -10.26663 -10.26473 -10.26453 -10.26213
 Alpha  occ. eigenvalues --  -10.26138 -10.25976 -10.25734 -10.25734 -10.25561
 Alpha  occ. eigenvalues --  -10.25516 -10.25416 -10.25384 -10.25383 -10.25328
 Alpha  occ. eigenvalues --  -10.25270 -10.25229 -10.25066 -10.24888 -10.24868
 Alpha  occ. eigenvalues --  -10.24222 -10.24209 -10.24183 -10.24153 -10.22647
 Alpha  occ. eigenvalues --   -3.14266  -1.88989  -1.88492  -1.88439  -1.17438
 Alpha  occ. eigenvalues --   -1.14587  -1.08475  -1.08189  -1.06504  -1.05219
 Alpha  occ. eigenvalues --   -1.04253  -1.04098  -1.03709  -0.92228  -0.91707
 Alpha  occ. eigenvalues --   -0.90823  -0.90410  -0.89993  -0.89810  -0.89278
 Alpha  occ. eigenvalues --   -0.89078  -0.88515  -0.88061  -0.87734  -0.86331
 Alpha  occ. eigenvalues --   -0.85565  -0.84270  -0.84024  -0.83517  -0.83013
 Alpha  occ. eigenvalues --   -0.81300  -0.80977  -0.79909  -0.79721  -0.78606
 Alpha  occ. eigenvalues --   -0.77968  -0.77034  -0.76746  -0.76221  -0.75846
 Alpha  occ. eigenvalues --   -0.75752  -0.75118  -0.74921  -0.73420  -0.73077
 Alpha  occ. eigenvalues --   -0.71275  -0.70394  -0.69775  -0.69170  -0.68685
 Alpha  occ. eigenvalues --   -0.67474  -0.66339  -0.65589  -0.64487  -0.64201
 Alpha  occ. eigenvalues --   -0.64118  -0.63479  -0.63386  -0.62379  -0.61652
 Alpha  occ. eigenvalues --   -0.61529  -0.60802  -0.60300  -0.60199  -0.59260
 Alpha  occ. eigenvalues --   -0.59088  -0.58386  -0.58116  -0.57405  -0.56398
 Alpha  occ. eigenvalues --   -0.56267  -0.55903  -0.55760  -0.55321  -0.54815
 Alpha  occ. eigenvalues --   -0.54455  -0.53916  -0.53686  -0.53596  -0.53215
 Alpha  occ. eigenvalues --   -0.52863  -0.52698  -0.52568  -0.52324  -0.51804
 Alpha  occ. eigenvalues --   -0.51600  -0.51368  -0.51148  -0.50940  -0.50899
 Alpha  occ. eigenvalues --   -0.50388  -0.50309  -0.49914  -0.49755  -0.49601
 Alpha  occ. eigenvalues --   -0.49515  -0.49096  -0.48941  -0.48818  -0.48491
 Alpha  occ. eigenvalues --   -0.48185  -0.48064  -0.47904  -0.47507  -0.47397
 Alpha  occ. eigenvalues --   -0.47294  -0.46921  -0.46725  -0.46574  -0.45830
 Alpha  occ. eigenvalues --   -0.45730  -0.45491  -0.45312  -0.45211  -0.45093
 Alpha  occ. eigenvalues --   -0.45015  -0.44717  -0.44361  -0.44283  -0.44020
 Alpha  occ. eigenvalues --   -0.43884  -0.43293  -0.43108  -0.43055  -0.42914
 Alpha  occ. eigenvalues --   -0.42767  -0.42674  -0.42541  -0.42287  -0.42006
 Alpha  occ. eigenvalues --   -0.41803  -0.41533  -0.41285  -0.41262  -0.41192
 Alpha  occ. eigenvalues --   -0.41087  -0.40821  -0.40677  -0.40177  -0.39946
 Alpha  occ. eigenvalues --   -0.39874  -0.39777  -0.39630  -0.39541  -0.39160
 Alpha  occ. eigenvalues --   -0.38965  -0.38666  -0.38383  -0.38276  -0.38231
 Alpha  occ. eigenvalues --   -0.37906  -0.37145  -0.36982  -0.36858  -0.36673
 Alpha  occ. eigenvalues --   -0.36415  -0.36347  -0.35975  -0.35811  -0.35486
 Alpha  occ. eigenvalues --   -0.35278  -0.34419  -0.33890  -0.33243  -0.32811
 Alpha  occ. eigenvalues --   -0.32590  -0.32553  -0.32061  -0.31036  -0.30688
 Alpha  occ. eigenvalues --   -0.29825  -0.29169  -0.28577  -0.27921  -0.22982
 Alpha  occ. eigenvalues --   -0.21780
 Alpha virt. eigenvalues --   -0.06054  -0.02631   0.02316   0.03908   0.05299
 Alpha virt. eigenvalues --    0.05597   0.05716   0.06536   0.07311   0.08178
 Alpha virt. eigenvalues --    0.09012   0.10737   0.10856   0.11297   0.11716

 Mulliken charges:
               1
     1  Mg   0.829765
     2  C    0.090181
     3  C   -0.236012
     4  C   -0.226907
     5  C   -0.124623
     6  N   -0.628234
     7  C    0.249566
     8  C   -0.148772
     9  C   -0.131481
    10  C    0.365589
    11  C   -0.299934
    12  C   -0.163789
    13  C   -0.256767
    14  C    0.598844
    15  O   -0.482705
    16  O   -0.485637
    17  N   -0.728416
    18  C    0.329440
    19  C    0.017006
    20  C   -0.012886
    21  C    0.367067
    22  C   -0.347785
    23  C   -0.060065
    24  C   -0.252123
    25  N   -0.702356
    26  C    0.291757
    27  C    0.000553
    28  C    0.047351
    29  C    0.321031
    30  C   -0.370843
    31  C   -0.240617
    32  C   -0.306471
    33  N   -0.699618
    34  C    0.154930
    35  C    0.008772
    36  C   -0.004866
    37  C    0.355441
    38  C   -0.345328
    39  C    0.341330
    40  O   -0.486983
    41  C   -0.326698
    42  C    0.653673
    43  O   -0.532040
    44  O   -0.469559
    45  C   -0.083574
    46  C    0.029253
    47  C   -0.099345
    48  C    0.152224
    49  C   -0.377061
    50  C   -0.225365
    51  C   -0.188217
    52  C   -0.162204
    53  C   -0.080533
    54  C   -0.303425
    55  C   -0.134220
    56  C   -0.187292
    57  C   -0.149947
    58  C   -0.079205
    59  C   -0.333843
    60  C   -0.162787
    61  C   -0.183035
    62  C   -0.175063
    63  C   -0.063908
    64  C   -0.315054
    65  C   -0.292303
    66  H    0.030856
    67  H    0.084683
    68  H    0.066750
    69  H    0.121051
    70  H    0.114629
    71  H    0.111894
    72  H    0.108826
    73  H    0.126760
    74  H    0.127672
    75  H    0.109558
    76  H    0.133519
    77  H    0.111056
    78  H    0.125607
    79  H    0.120473
    80  H    0.131861
    81  H    0.102664
    82  H    0.106690
    83  H    0.112256
    84  H    0.130413
    85  H    0.110711
    86  H    0.110503
    87  H    0.122902
    88  H    0.116024
    89  H    0.082128
    90  H    0.100561
    91  H    0.103084
    92  H    0.132645
    93  H    0.152004
    94  H    0.117040
    95  H    0.180000
    96  H    0.146486
    97  H    0.154710
    98  H    0.096753
    99  H    0.114469
   100  H    0.129690
   101  H    0.070166
   102  H    0.117469
   103  H    0.083229
   104  H    0.128062
   105  H    0.116045
   106  H    0.078581
   107  H    0.100544
   108  H    0.099624
   109  H    0.074425
   110  H    0.059530
   111  H    0.070170
   112  H    0.113191
   113  H    0.108685
   114  H    0.103748
   115  H    0.100530
   116  H    0.054988
   117  H    0.110987
   118  H    0.077490
   119  H    0.091510
   120  H    0.062477
   121  H    0.072968
   122  H    0.107741
   123  H    0.106453
   124  H    0.107655
   125  H    0.077426
   126  H    0.095109
   127  H    0.105598
   128  H    0.083238
   129  H    0.102378
   130  H    0.076998
   131  H    0.094551
   132  H    0.095890
   133  H    0.096903
   134  H    0.099209
   135  H    0.110362
   136  H    0.074035
   137  H    0.089234
 Sum of Mulliken charges =   0.00000

 Dipole moment (field-independent basis, Debye):
    X=              1.2316    Y=              6.1326    Z=             -0.9374  Tot=              6.3249
 Quadrupole moment (field-independent basis, Debye-Ang):
   XX=           -309.7399   YY=           -398.1509   ZZ=           -399.6639
   XY=            -32.7855   XZ=              1.0588   YZ=             -2.1738

 Normal termination of Gaussian 09 at Fri Jun 28 02:33:49 2019.
