 Gaussian 09, Revision D.01,
 Gaussian 09:  ES64L-G09RevD.01 24-Apr-2013

 -------------------------------------
 # td=(NStates=1) CAM-B3LYP/6-31G(d,p)
 -------------------------------------

 --
 TD
 --
 Symbolic Z-matrix:
 Charge =  0 Multiplicity = 1

                         Standard orientation:
 ---------------------------------------------------------------------
 Center     Atomic      Atomic             Coordinates (Angstroms)
 Number     Number       Type             X           Y           Z
 ---------------------------------------------------------------------
      1         12           0       -7.240081    0.611594    0.037864
      2          6           0       -4.848856   -2.006526    0.510233
      3          6           0       -4.726440    2.796591    1.146101
      4          6           0       -9.404249    3.204178   -0.336174
      5          6           0       -9.593859   -1.709547   -0.828039
      6          7           0       -5.013785    0.394104    0.613038
      7          6           0       -4.303572   -0.717118    0.787601
      8          6           0       -2.922842   -0.478999    1.186544
      9          6           0       -2.956004    0.994186    1.695416
     10          6           0       -4.367398    1.474484    1.127917
     11          6           0       -2.860470    1.069713    3.215630
     12          6           0       -1.880824   -0.826974    0.126068
     13          6           0       -0.549598   -0.449257    0.479300
     14          6           0        0.544974   -0.706217   -0.668855
     15          8           0        0.241954   -0.917864   -1.794980
     16          8           0        1.763450   -0.448826   -0.129412
     17          7           0       -7.068115    2.663165    0.337963
     18          6           0       -6.018702    3.369650    0.867418
     19          6           0       -6.314069    4.733514    0.887509
     20          6           0       -7.683844    4.812127    0.432226
     21          6           0       -8.099286    3.535463    0.176001
     22          6           0       -5.528479    5.909741    1.420924
     23          6           0       -8.523614    5.925748    0.287154
     24          6           0       -8.129303    7.239897    0.228344
     25          7           0       -9.193543    0.705725   -0.553109
     26          6           0       -9.852776    1.814202   -0.604866
     27          6           0      -11.144914    1.520461   -0.991116
     28          6           0      -11.287637    0.106334   -1.217247
     29          6           0       -9.935633   -0.312566   -0.918435
     30          6           0      -12.289684    2.586517   -1.322141
     31          6           0      -12.438047   -0.708487   -1.721930
     32          6           0      -12.215005   -1.062790   -3.132709
     33          7           0       -7.322804   -1.396820   -0.133300
     34          6           0       -8.348365   -2.228493   -0.501337
     35          6           0       -7.916739   -3.638901   -0.427269
     36          6           0       -6.593548   -3.555524   -0.072068
     37          6           0       -6.214301   -2.234830    0.074075
     38          6           0       -8.811696   -4.744947   -1.026692
     39          6           0       -5.434052   -4.328182    0.180765
     40          8           0       -5.323831   -5.592255    0.159712
     41          6           0       -4.208927   -3.366416    0.538284
     42          6           0       -3.517575   -3.767798    1.850621
     43          8           0       -3.703435   -3.250294    2.902463
     44          8           0       -2.700854   -4.774839    1.625322
     45          6           0       -2.107148   -5.251077    2.882986
     46          6           0        2.872541   -0.627524   -1.191278
     47          6           0        4.161219   -0.369265   -0.528904
     48          6           0        5.092471    0.428096   -0.974758
     49          6           0        5.059564    1.251649   -2.238242
     50          6           0        6.432040    0.480441   -0.180193
     51          6           0        7.625062   -0.113788   -0.974971
     52          6           0        8.844962   -0.214758   -0.025328
     53          6           0       10.244749   -0.434173   -0.834039
     54          6           0       10.097501   -1.968715   -1.281707
     55          6           0       11.381759   -0.109288    0.059502
     56          6           0       12.671877   -0.472678   -0.625088
     57          6           0       13.900869   -0.066782    0.256051
     58          6           0       15.281311   -0.195022   -0.499542
     59          6           0       15.601629   -1.538373   -0.980916
     60          6           0       16.419276    0.374533    0.418046
     61          6           0       17.786911    0.580760   -0.184623
     62          6           0       18.825973    1.189018    0.740073
     63          6           0       20.247795    1.192721    0.175631
     64          6           0       20.349200    2.146432   -1.097866
     65          6           0       21.257029    1.705861    1.249281
     66          1           0       -4.093064    3.569751    1.649512
     67          1           0      -10.034077    4.174573   -0.535158
     68          1           0      -10.495006   -2.401019   -1.166889
     69          1           0       -2.684439   -1.208221    1.850579
     70          1           0       -2.145305    1.383386    1.227074
     71          1           0       -1.845040    0.679756    3.583023
     72          1           0       -2.922127    2.213327    3.627059
     73          1           0       -3.762585    0.843325    3.849330
     74          1           0       -2.045470   -1.789180   -0.139030
     75          1           0       -2.206333   -0.334223   -0.780364
     76          1           0       -0.261964    0.632584    0.744312
     77          1           0       -0.294211   -1.018698    1.433878
     78          1           0       -5.016905    6.375985    0.534400
     79          1           0       -6.065800    6.667734    1.849251
     80          1           0       -4.654227    5.815974    2.154427
     81          1           0       -9.582784    5.883569    0.298659
     82          1           0       -8.967657    8.021689    0.299249
     83          1           0       -7.115758    7.527804    0.108411
     84          1           0      -11.980045    3.001509   -2.419346
     85          1           0      -13.335387    2.283072   -1.519570
     86          1           0      -12.368773    3.325951   -0.306285
     87          1           0      -12.397804   -1.607078   -1.072778
     88          1           0      -13.462531   -0.228176   -1.793689
     89          1           0      -13.041098   -1.765447   -3.439484
     90          1           0      -12.169909   -0.112056   -3.888682
     91          1           0      -11.307187   -1.748701   -3.536297
     92          1           0       -9.141036   -4.515595   -2.023037
     93          1           0       -8.394175   -5.619569   -0.996324
     94          1           0       -9.557697   -4.898919   -0.425844
     95          1           0       -3.371241   -3.434492   -0.098867
     96          1           0       -1.764838   -4.350664    3.452950
     97          1           0       -2.892171   -5.676853    3.277223
     98          1           0       -1.167568   -6.000742    2.589916
     99          1           0        2.912225   -1.621866   -1.441114
    100          1           0        2.462464   -0.160806   -2.161062
    101          1           0        4.265028   -1.039570    0.319765
    102          1           0        4.018955    1.346167   -2.628060
    103          1           0        5.505022    2.132551   -1.820132
    104          1           0        5.811586    0.878966   -2.972080
    105          1           0        6.640275    1.469295    0.124377
    106          1           0        6.263637   -0.187017    0.725920
    107          1           0        7.518743   -0.940944   -1.515275
    108          1           0        8.058659    0.669594   -1.878180
    109          1           0        9.028359    0.751099    0.543012
    110          1           0        8.851467   -0.810279    0.874362
    111          1           0       10.336501    0.062301   -1.781568
    112          1           0        9.274108   -2.015469   -2.079187
    113          1           0       11.282415   -2.146346   -1.777669
    114          1           0       10.067682   -2.853982   -0.564888
    115          1           0       11.454373    0.930739    0.481494
    116          1           0       11.106999   -0.480957    1.021572
    117          1           0       12.863333   -1.577294   -0.832298
    118          1           0       12.892448   -0.002752   -1.531769
    119          1           0       13.620913    0.920415    0.766104
    120          1           0       14.123188   -0.889135    1.092199
    121          1           0       15.098343    0.479506   -1.493231
    122          1           0       15.756827   -2.232760   -0.268737
    123          1           0       14.971749   -2.030646   -1.761491
    124          1           0       16.739922   -1.659058   -1.426853
    125          1           0       16.004939    1.366842    0.839992
    126          1           0       16.289886   -0.207769    1.339059
    127          1           0       18.173112   -0.338887   -0.510743
    128          1           0       17.771798    1.163394   -1.150001
    129          1           0       18.666086    2.199631    0.932122
    130          1           0       19.056651    0.614411    1.787390
    131          1           0       20.444920    0.152382   -0.213459
    132          1           0       20.065996    3.240682   -0.655542
    133          1           0       21.494663    2.094620   -1.418708
    134          1           0       19.722574    1.811403   -1.907458
    135          1           0       21.284854    1.162880    2.175547
    136          1           0       22.326055    1.679577    0.802132
    137          1           0       21.140350    2.925185    1.485300
 ---------------------------------------------------------------------

 SCF Done:  E(RCAM-B3LYP) =  -2932.64943367     A.U. after   16 cycles

 Excitation energies and oscillator strengths:

 Excited State   1:      Singlet-A      2.0359 eV  608.99 nm  f=0.2032  <S**2>=0.000
     240 -> 242       -0.16773
     240 -> 243       -0.28293
     241 -> 242        0.60990
     241 -> 243       -0.10236
 This state for optimization and/or second-order correction.
 Total Energy, E(TD-HF/TD-KS) =  -2932.57461619
 Copying the excited state density for this state as the 1-particle RhoCI density.

 The electronic state is 1-A.
 Alpha  occ. eigenvalues --  -46.85180 -19.26427 -19.26207 -19.21560 -19.20576
 Alpha  occ. eigenvalues --  -19.19895 -14.41222 -14.39380 -14.38784 -14.38771
 Alpha  occ. eigenvalues --  -10.39190 -10.38541 -10.35155 -10.31789 -10.31721
 Alpha  occ. eigenvalues --  -10.30558 -10.30500 -10.29757 -10.29566 -10.29336
 Alpha  occ. eigenvalues --  -10.29298 -10.29225 -10.28693 -10.28590 -10.28590
 Alpha  occ. eigenvalues --  -10.28519 -10.28267 -10.27909 -10.27804 -10.27350
 Alpha  occ. eigenvalues --  -10.27315 -10.27273 -10.27181 -10.27163 -10.27106
 Alpha  occ. eigenvalues --  -10.27062 -10.26933 -10.26831 -10.26783 -10.26754
 Alpha  occ. eigenvalues --  -10.26589 -10.26525 -10.26523 -10.26495 -10.26448
 Alpha  occ. eigenvalues --  -10.26360 -10.26316 -10.26063 -10.26012 -10.25899
 Alpha  occ. eigenvalues --  -10.25899 -10.25877 -10.25853 -10.25736 -10.25640
 Alpha  occ. eigenvalues --  -10.25562 -10.25444 -10.25207 -10.25142 -10.25124
 Alpha  occ. eigenvalues --  -10.25090 -10.25083 -10.24862 -10.24700 -10.23912
 Alpha  occ. eigenvalues --   -3.13993  -1.88715  -1.88243  -1.88140  -1.19648
 Alpha  occ. eigenvalues --   -1.17412  -1.10142  -1.09727  -1.07929  -1.06225
 Alpha  occ. eigenvalues --   -1.04410  -1.03539  -1.02946  -0.92649  -0.91696
 Alpha  occ. eigenvalues --   -0.91167  -0.90679  -0.89614  -0.89212  -0.88751
 Alpha  occ. eigenvalues --   -0.87975  -0.87711  -0.87260  -0.86412  -0.85831
 Alpha  occ. eigenvalues --   -0.85038  -0.83905  -0.83520  -0.82905  -0.81850
 Alpha  occ. eigenvalues --   -0.81805  -0.81391  -0.80536  -0.79935  -0.78878
 Alpha  occ. eigenvalues --   -0.77973  -0.76481  -0.76271  -0.75686  -0.75155
 Alpha  occ. eigenvalues --   -0.74382  -0.74290  -0.74087  -0.73171  -0.72774
 Alpha  occ. eigenvalues --   -0.71255  -0.70627  -0.69732  -0.68802  -0.68682
 Alpha  occ. eigenvalues --   -0.67556  -0.66720  -0.65882  -0.65329  -0.64589
 Alpha  occ. eigenvalues --   -0.64188  -0.63660  -0.62840  -0.62323  -0.62134
 Alpha  occ. eigenvalues --   -0.61625  -0.61084  -0.60893  -0.59931  -0.59318
 Alpha  occ. eigenvalues --   -0.59099  -0.58433  -0.57527  -0.57176  -0.56765
 Alpha  occ. eigenvalues --   -0.56116  -0.55541  -0.55074  -0.54987  -0.54713
 Alpha  occ. eigenvalues --   -0.54562  -0.54077  -0.53508  -0.53226  -0.52884
 Alpha  occ. eigenvalues --   -0.52689  -0.52409  -0.52248  -0.52067  -0.52007
 Alpha  occ. eigenvalues --   -0.51208  -0.51186  -0.50821  -0.50565  -0.50375
 Alpha  occ. eigenvalues --   -0.50158  -0.50037  -0.49705  -0.49496  -0.49372
 Alpha  occ. eigenvalues --   -0.49344  -0.49184  -0.48982  -0.48319  -0.48168
 Alpha  occ. eigenvalues --   -0.47869  -0.47665  -0.47613  -0.47271  -0.47104
 Alpha  occ. eigenvalues --   -0.47023  -0.46501  -0.46211  -0.46028  -0.45948
 Alpha  occ. eigenvalues --   -0.45881  -0.45740  -0.45585  -0.45512  -0.45299
 Alpha  occ. eigenvalues --   -0.45255  -0.45127  -0.44796  -0.44434  -0.44335
 Alpha  occ. eigenvalues --   -0.43795  -0.43646  -0.43614  -0.43386  -0.43329
 Alpha  occ. eigenvalues --   -0.43170  -0.43121  -0.42822  -0.42744  -0.42500
 Alpha  occ. eigenvalues --   -0.42205  -0.42028  -0.41833  -0.41537  -0.41331
 Alpha  occ. eigenvalues --   -0.41166  -0.41131  -0.40968  -0.40617  -0.40555
 Alpha  occ. eigenvalues --   -0.40212  -0.40056  -0.39402  -0.39131  -0.38768
 Alpha  occ. eigenvalues --   -0.38509  -0.38195  -0.38164  -0.37619  -0.37429
 Alpha  occ. eigenvalues --   -0.37156  -0.37131  -0.37072  -0.36884  -0.36809
 Alpha  occ. eigenvalues --   -0.36406  -0.36257  -0.36204  -0.35765  -0.35512
 Alpha  occ. eigenvalues --   -0.35205  -0.35052  -0.33676  -0.33603  -0.33504
 Alpha  occ. eigenvalues --   -0.33075  -0.32401  -0.32154  -0.30542  -0.30380
 Alpha  occ. eigenvalues --   -0.29978  -0.29774  -0.27530  -0.26011  -0.22488
 Alpha  occ. eigenvalues --   -0.21673
 Alpha virt. eigenvalues --   -0.06875  -0.03901   0.01347   0.04322   0.05830
 Alpha virt. eigenvalues --    0.06539   0.06770   0.07231   0.07700   0.07855
 Alpha virt. eigenvalues --    0.09106   0.10395   0.11112   0.11373   0.11655

 Mulliken charges:
               1
     1  Mg   0.839232
     2  C    0.049134
     3  C   -0.187459
     4  C   -0.154797
     5  C   -0.180904
     6  N   -0.629004
     7  C    0.343528
     8  C   -0.161247
     9  C   -0.114214
    10  C    0.311321
    11  C   -0.302708
    12  C   -0.165756
    13  C   -0.272883
    14  C    0.609931
    15  O   -0.452138
    16  O   -0.498015
    17  N   -0.724499
    18  C    0.276598
    19  C    0.028214
    20  C    0.035212
    21  C    0.317071
    22  C   -0.390886
    23  C   -0.108658
    24  C   -0.255594
    25  N   -0.705646
    26  C    0.337466
    27  C   -0.049388
    28  C    0.026205
    29  C    0.283892
    30  C   -0.349161
    31  C   -0.228873
    32  C   -0.291911
    33  N   -0.742916
    34  C    0.289890
    35  C   -0.014196
    36  C    0.074078
    37  C    0.272489
    38  C   -0.339244
    39  C    0.332029
    40  O   -0.492418
    41  C   -0.322741
    42  C    0.608678
    43  O   -0.466965
    44  O   -0.447711
    45  C   -0.082328
    46  C   -0.021890
    47  C   -0.142384
    48  C    0.114936
    49  C   -0.347172
    50  C   -0.230108
    51  C   -0.157453
    52  C   -0.191999
    53  C   -0.055066
    54  C   -0.296111
    55  C   -0.169605
    56  C   -0.182010
    57  C   -0.179001
    58  C   -0.056247
    59  C   -0.305708
    60  C   -0.169942
    61  C   -0.177669
    62  C   -0.141352
    63  C   -0.069401
    64  C   -0.293421
    65  C   -0.299027
    66  H    0.086507
    67  H    0.119350
    68  H    0.094035
    69  H    0.120176
    70  H    0.104560
    71  H    0.107023
    72  H    0.070787
    73  H    0.129651
    74  H    0.115594
    75  H    0.116860
    76  H    0.135975
    77  H    0.112248
    78  H    0.119345
    79  H    0.137184
    80  H    0.106935
    81  H    0.096613
    82  H    0.091952
    83  H    0.102947
    84  H    0.106200
    85  H    0.114707
    86  H    0.089022
    87  H    0.110258
    88  H    0.118039
    89  H    0.095196
    90  H    0.093803
    91  H    0.088866
    92  H    0.132777
    93  H    0.142632
    94  H    0.133602
    95  H    0.160714
    96  H    0.140316
    97  H    0.154982
    98  H    0.110712
    99  H    0.139005
   100  H    0.136986
   101  H    0.100856
   102  H    0.114530
   103  H    0.120906
   104  H    0.126987
   105  H    0.115920
   106  H    0.100504
   107  H    0.115565
   108  H    0.055582
   109  H    0.071188
   110  H    0.101972
   111  H    0.094004
   112  H    0.099742
   113  H    0.048711
   114  H    0.106663
   115  H    0.087306
   116  H    0.099359
   117  H    0.102667
   118  H    0.108189
   119  H    0.083949
   120  H    0.066115
   121  H    0.052430
   122  H    0.115643
   123  H    0.103633
   124  H    0.072372
   125  H    0.079426
   126  H    0.093996
   127  H    0.100040
   128  H    0.095883
   129  H    0.096743
   130  H    0.063995
   131  H    0.082225
   132  H    0.081860
   133  H    0.086737
   134  H    0.109635
   135  H    0.110487
   136  H    0.091835
   137  H    0.074704
 Sum of Mulliken charges =   0.00000

 Dipole moment (field-independent basis, Debye):
    X=              2.6960    Y=              2.6364    Z=              0.3804  Tot=              3.7899
 Quadrupole moment (field-independent basis, Debye-Ang):
   XX=           -340.6182   YY=           -396.7261   ZZ=           -398.1432
   XY=            -19.5945   XZ=             12.1405   YZ=             -0.0709

 Normal termination of Gaussian 09 at Thu Jun 27 18:38:27 2019.
