 Gaussian 09, Revision D.01,
 Gaussian 09:  ES64L-G09RevD.01 24-Apr-2013

 -------------------------------------
 # td=(NStates=1) CAM-B3LYP/6-31G(d,p)
 -------------------------------------

 --
 TD
 --
 Symbolic Z-matrix:
 Charge =  0 Multiplicity = 1

                         Standard orientation:
 ---------------------------------------------------------------------
 Center     Atomic      Atomic             Coordinates (Angstroms)
 Number     Number       Type             X           Y           Z
 ---------------------------------------------------------------------
      1         12           0       -7.176886    0.614021    0.192458
      2          6           0       -4.828830   -1.928174    0.547720
      3          6           0       -4.890914    2.796640    1.246142
      4          6           0       -9.377665    3.057979   -0.350693
      5          6           0       -9.551964   -1.822430   -0.884187
      6          7           0       -5.173147    0.423071    0.748498
      7          6           0       -4.302153   -0.683044    0.830619
      8          6           0       -2.884349   -0.296992    1.331328
      9          6           0       -3.019140    1.144506    1.705262
     10          6           0       -4.433871    1.471783    1.199257
     11          6           0       -2.835897    1.417528    3.248931
     12          6           0       -1.940581   -0.582661    0.098218
     13          6           0       -0.440242   -0.246171    0.457715
     14          6           0        0.520265   -0.597745   -0.610542
     15          8           0        0.151786   -0.906797   -1.771548
     16          8           0        1.817982   -0.427478   -0.162691
     17          7           0       -7.182727    2.580373    0.360881
     18          6           0       -6.111679    3.252301    0.916728
     19          6           0       -6.432142    4.756117    0.907902
     20          6           0       -7.700049    4.848518    0.358395
     21          6           0       -8.186831    3.461497    0.127653
     22          6           0       -5.678184    5.809770    1.400346
     23          6           0       -8.533542    5.976106    0.177827
     24          6           0       -8.335200    7.247311   -0.145029
     25          7           0       -9.063585    0.658945   -0.509683
     26          6           0       -9.883594    1.734238   -0.658259
     27          6           0      -11.317869    1.354229   -1.075849
     28          6           0      -11.220425   -0.036693   -1.315517
     29          6           0       -9.920080   -0.400273   -0.802551
     30          6           0      -12.387377    2.244457   -1.383143
     31          6           0      -12.331385   -0.919228   -1.616999
     32          6           0      -12.178737   -1.398752   -3.100166
     33          7           0       -7.235926   -1.431329   -0.138110
     34          6           0       -8.240047   -2.299928   -0.493407
     35          6           0       -7.715039   -3.670200   -0.538330
     36          6           0       -6.399794   -3.554419   -0.082671
     37          6           0       -6.127945   -2.121776    0.146990
     38          6           0       -8.574286   -4.895253   -0.742388
     39          6           0       -5.265185   -4.253018    0.151694
     40          8           0       -5.160760   -5.511394    0.163704
     41          6           0       -4.116596   -3.242217    0.502281
     42          6           0       -3.529415   -3.645081    1.828224
     43          8           0       -3.698454   -3.104187    2.923026
     44          8           0       -2.701507   -4.653585    1.686404
     45          6           0       -1.951492   -5.035613    2.907218
     46          6           0        2.828258   -0.598091   -1.185559
     47          6           0        4.143742   -0.411602   -0.617597
     48          6           0        5.108915    0.472373   -1.078743
     49          6           0        5.051023    1.421475   -2.121030
     50          6           0        6.432310    0.574716   -0.264134
     51          6           0        7.593792    0.014550   -1.126493
     52          6           0        8.966753   -0.111242   -0.271034
     53          6           0       10.204154   -0.522696   -0.999521
     54          6           0        9.978485   -1.974392   -1.346644
     55          6           0       11.305827   -0.283073   -0.093083
     56          6           0       12.770695   -0.518373   -0.775855
     57          6           0       13.930712   -0.190918    0.201055
     58          6           0       15.273146   -0.235466   -0.489112
     59          6           0       15.645921   -1.697081   -0.807302
     60          6           0       16.378031    0.283415    0.478426
     61          6           0       17.861121    0.513441   -0.169290
     62          6           0       18.853690    1.098627    0.881335
     63          6           0       20.237999    1.293080    0.248330
     64          6           0       20.278513    2.132023   -1.042757
     65          6           0       21.210020    1.742116    1.351213
     66          1           0       -3.969827    3.588279    1.245124
     67          1           0       -9.946834    3.992938   -0.619057
     68          1           0      -10.239903   -2.421515   -1.379374
     69          1           0       -2.626634   -0.838718    2.137876
     70          1           0       -2.167502    1.711422    1.122478
     71          1           0       -1.991384    0.924651    3.616688
     72          1           0       -3.011337    2.502273    3.331265
     73          1           0       -3.899993    1.132335    3.634979
     74          1           0       -2.021693   -1.572417   -0.019124
     75          1           0       -2.432057    0.009870   -0.742102
     76          1           0       -0.277848    0.917163    0.544365
     77          1           0       -0.213786   -0.757092    1.538769
     78          1           0       -4.795683    6.236542    0.672119
     79          1           0       -6.171857    6.664375    1.809479
     80          1           0       -5.105814    5.360537    2.149969
     81          1           0       -9.557103    5.736998    0.189462
     82          1           0       -8.940112    8.121972   -0.146943
     83          1           0       -7.151061    7.475076   -0.168154
     84          1           0      -12.212225    2.793666   -2.224714
     85          1           0      -13.289472    1.691306   -1.644579
     86          1           0      -12.630715    2.924778   -0.622616
     87          1           0      -12.391470   -1.731733   -0.828019
     88          1           0      -13.392376   -0.582701   -1.528773
     89          1           0      -13.011305   -2.070887   -3.411119
     90          1           0      -12.419622   -0.424284   -3.881674
     91          1           0      -11.179795   -1.879507   -3.357269
     92          1           0       -9.205989   -4.737169   -1.691609
     93          1           0       -7.881413   -5.803711   -0.847659
     94          1           0       -9.253293   -5.001389    0.186631
     95          1           0       -3.497651   -3.390188   -0.442543
     96          1           0       -1.613089   -4.067827    3.423889
     97          1           0       -2.778515   -5.400718    3.554899
     98          1           0       -1.392509   -5.936599    2.668003
     99          1           0        3.056065   -1.550018   -1.518807
    100          1           0        2.494328   -0.007295   -2.048016
    101          1           0        4.264878   -0.971237    0.249630
    102          1           0        4.096008    1.556850   -2.564681
    103          1           0        5.212221    2.578016   -1.828798
    104          1           0        5.725675    1.198533   -2.920059
    105          1           0        6.734231    1.662499   -0.152636
    106          1           0        6.000223    0.300535    0.775263
    107          1           0        7.507656   -1.063310   -1.655228
    108          1           0        7.901477    0.576938   -2.018278
    109          1           0        8.981256    0.872383    0.298006
    110          1           0        8.667402   -1.002410    0.409033
    111          1           0       10.219177    0.101552   -1.899403
    112          1           0        9.332264   -2.189547   -2.158128
    113          1           0       10.787715   -2.161805   -2.051930
    114          1           0        9.682935   -2.709349   -0.593573
    115          1           0       11.228771    0.652275    0.549940
    116          1           0       11.193292   -1.066429    0.742806
    117          1           0       12.817909   -1.624540   -1.137851
    118          1           0       12.831118    0.207631   -1.760207
    119          1           0       13.678186    0.881040    0.423823
    120          1           0       14.078154   -0.741797    1.135292
    121          1           0       15.265457    0.320911   -1.457705
    122          1           0       15.461303   -2.285242    0.082070
    123          1           0       15.047022   -2.121468   -1.681369
    124          1           0       16.667750   -1.904069   -0.915655
    125          1           0       15.894127    1.323828    0.899253
    126          1           0       16.315228   -0.267689    1.579815
    127          1           0       18.186604   -0.482558   -0.368996
    128          1           0       17.812226    1.167938   -1.235913
    129          1           0       18.436447    2.003445    1.278355
    130          1           0       18.873849    0.375195    1.800425
    131          1           0       20.671401    0.443750    0.126577
    132          1           0       19.917727    2.975759   -0.689111
    133          1           0       21.295238    2.396763   -1.422389
    134          1           0       19.654535    1.946566   -1.862796
    135          1           0       21.374892    0.789777    2.098609
    136          1           0       22.239248    2.005362    0.724819
    137          1           0       20.918594    2.808171    1.867844
 ---------------------------------------------------------------------

 SCF Done:  E(RCAM-B3LYP) =  -2932.65238449     A.U. after   17 cycles

 Excitation energies and oscillator strengths:

 Excited State   1:      Singlet-A      2.0364 eV  608.85 nm  f=0.2403  <S**2>=0.000
     240 -> 243        0.24143
     241 -> 242        0.65141
 This state for optimization and/or second-order correction.
 Total Energy, E(TD-HF/TD-KS) =  -2932.57754946
 Copying the excited state density for this state as the 1-particle RhoCI density.

 The electronic state is 1-A.
 Alpha  occ. eigenvalues --  -46.84115 -19.27045 -19.25810 -19.21450 -19.19860
 Alpha  occ. eigenvalues --  -19.18041 -14.42798 -14.40147 -14.39695 -14.39483
 Alpha  occ. eigenvalues --  -10.40103 -10.38688 -10.32857 -10.31923 -10.31819
 Alpha  occ. eigenvalues --  -10.30887 -10.30769 -10.30615 -10.30331 -10.30107
 Alpha  occ. eigenvalues --  -10.29206 -10.29138 -10.28982 -10.28472 -10.28447
 Alpha  occ. eigenvalues --  -10.28334 -10.28162 -10.27982 -10.27923 -10.27784
 Alpha  occ. eigenvalues --  -10.27542 -10.27482 -10.27452 -10.27346 -10.27210
 Alpha  occ. eigenvalues --  -10.27186 -10.27092 -10.27082 -10.27032 -10.26956
 Alpha  occ. eigenvalues --  -10.26941 -10.26906 -10.26781 -10.26742 -10.26521
 Alpha  occ. eigenvalues --  -10.26488 -10.26484 -10.26480 -10.26451 -10.26206
 Alpha  occ. eigenvalues --  -10.25986 -10.25767 -10.25677 -10.25618 -10.25597
 Alpha  occ. eigenvalues --  -10.25496 -10.25381 -10.25333 -10.25054 -10.24599
 Alpha  occ. eigenvalues --  -10.24108 -10.24043 -10.23701 -10.23571 -10.23073
 Alpha  occ. eigenvalues --   -3.13352  -1.88036  -1.87615  -1.87533  -1.18080
 Alpha  occ. eigenvalues --   -1.16814  -1.08148  -1.07342  -1.07081  -1.04506
 Alpha  occ. eigenvalues --   -1.03437  -1.03111  -1.01960  -0.93168  -0.91622
 Alpha  occ. eigenvalues --   -0.90943  -0.90559  -0.90349  -0.89744  -0.89728
 Alpha  occ. eigenvalues --   -0.88992  -0.88699  -0.87027  -0.86428  -0.86273
 Alpha  occ. eigenvalues --   -0.85280  -0.84149  -0.83471  -0.83153  -0.82469
 Alpha  occ. eigenvalues --   -0.81321  -0.81010  -0.80624  -0.79583  -0.78740
 Alpha  occ. eigenvalues --   -0.78317  -0.77538  -0.76540  -0.76340  -0.76088
 Alpha  occ. eigenvalues --   -0.75316  -0.74673  -0.73659  -0.72976  -0.71756
 Alpha  occ. eigenvalues --   -0.71505  -0.70605  -0.69467  -0.68426  -0.68179
 Alpha  occ. eigenvalues --   -0.67386  -0.65753  -0.65390  -0.65131  -0.63658
 Alpha  occ. eigenvalues --   -0.63614  -0.63371  -0.63277  -0.63068  -0.61884
 Alpha  occ. eigenvalues --   -0.61807  -0.61326  -0.60548  -0.60036  -0.59338
 Alpha  occ. eigenvalues --   -0.58570  -0.58538  -0.58046  -0.57503  -0.56563
 Alpha  occ. eigenvalues --   -0.55908  -0.55709  -0.55263  -0.55113  -0.54513
 Alpha  occ. eigenvalues --   -0.54270  -0.53980  -0.53601  -0.53403  -0.53171
 Alpha  occ. eigenvalues --   -0.53044  -0.52429  -0.52316  -0.51944  -0.51410
 Alpha  occ. eigenvalues --   -0.51232  -0.51041  -0.51012  -0.50789  -0.50699
 Alpha  occ. eigenvalues --   -0.50370  -0.50269  -0.50146  -0.49971  -0.49528
 Alpha  occ. eigenvalues --   -0.49491  -0.49204  -0.48756  -0.48197  -0.48095
 Alpha  occ. eigenvalues --   -0.47978  -0.47915  -0.47814  -0.47136  -0.46814
 Alpha  occ. eigenvalues --   -0.46529  -0.46450  -0.46218  -0.45844  -0.45750
 Alpha  occ. eigenvalues --   -0.45506  -0.45400  -0.45342  -0.45084  -0.45023
 Alpha  occ. eigenvalues --   -0.44844  -0.44652  -0.44265  -0.44174  -0.44120
 Alpha  occ. eigenvalues --   -0.43835  -0.43752  -0.43688  -0.43066  -0.43016
 Alpha  occ. eigenvalues --   -0.42810  -0.42456  -0.42257  -0.42164  -0.42055
 Alpha  occ. eigenvalues --   -0.41794  -0.41696  -0.41306  -0.41225  -0.41093
 Alpha  occ. eigenvalues --   -0.40897  -0.40708  -0.40618  -0.40271  -0.40151
 Alpha  occ. eigenvalues --   -0.40037  -0.40035  -0.39559  -0.38988  -0.38903
 Alpha  occ. eigenvalues --   -0.38726  -0.38459  -0.38369  -0.38319  -0.37944
 Alpha  occ. eigenvalues --   -0.37479  -0.37426  -0.36955  -0.36911  -0.36751
 Alpha  occ. eigenvalues --   -0.36537  -0.36423  -0.35943  -0.35508  -0.35453
 Alpha  occ. eigenvalues --   -0.35268  -0.35032  -0.34177  -0.33695  -0.33548
 Alpha  occ. eigenvalues --   -0.33109  -0.32714  -0.32223  -0.30686  -0.29027
 Alpha  occ. eigenvalues --   -0.28558  -0.28510  -0.28048  -0.27532  -0.23493
 Alpha  occ. eigenvalues --   -0.20721
 Alpha virt. eigenvalues --   -0.05983  -0.03424   0.00995   0.03467   0.04588
 Alpha virt. eigenvalues --    0.05387   0.05617   0.06504   0.06636   0.07029
 Alpha virt. eigenvalues --    0.08220   0.10241   0.11115   0.11254   0.11760

 Mulliken charges:
               1
     1  Mg   0.819177
     2  C    0.058232
     3  C   -0.241125
     4  C   -0.218071
     5  C   -0.150819
     6  N   -0.626868
     7  C    0.275266
     8  C   -0.127356
     9  C   -0.144539
    10  C    0.338559
    11  C   -0.302967
    12  C   -0.152130
    13  C   -0.271548
    14  C    0.632560
    15  O   -0.488226
    16  O   -0.489389
    17  N   -0.733066
    18  C    0.345366
    19  C    0.053141
    20  C    0.046622
    21  C    0.328513
    22  C   -0.406543
    23  C   -0.085162
    24  C   -0.251333
    25  N   -0.648171
    26  C    0.283577
    27  C    0.016776
    28  C    0.069053
    29  C    0.252725
    30  C   -0.385790
    31  C   -0.263460
    32  C   -0.302137
    33  N   -0.726376
    34  C    0.242694
    35  C    0.015927
    36  C    0.083082
    37  C    0.333528
    38  C   -0.363333
    39  C    0.266772
    40  O   -0.510267
    41  C   -0.347089
    42  C    0.650197
    43  O   -0.511001
    44  O   -0.443779
    45  C   -0.098076
    46  C    0.034465
    47  C   -0.168535
    48  C    0.126264
    49  C   -0.371385
    50  C   -0.218210
    51  C   -0.190609
    52  C   -0.169561
    53  C   -0.046780
    54  C   -0.323441
    55  C   -0.162373
    56  C   -0.184345
    57  C   -0.154462
    58  C   -0.052775
    59  C   -0.308177
    60  C   -0.178286
    61  C   -0.168794
    62  C   -0.172589
    63  C   -0.037183
    64  C   -0.327882
    65  C   -0.296335
    66  H    0.092074
    67  H    0.077751
    68  H    0.096737
    69  H    0.124755
    70  H    0.090249
    71  H    0.126122
    72  H    0.117133
    73  H    0.116227
    74  H    0.130322
    75  H    0.120303
    76  H    0.132990
    77  H    0.120170
    78  H    0.099254
    79  H    0.135621
    80  H    0.123328
    81  H    0.088282
    82  H    0.122217
    83  H    0.071460
    84  H    0.137341
    85  H    0.109056
    86  H    0.123365
    87  H    0.112392
    88  H    0.112793
    89  H    0.103822
    90  H    0.078999
    91  H    0.115973
    92  H    0.108182
    93  H    0.147387
    94  H    0.130173
    95  H    0.177468
    96  H    0.139939
    97  H    0.141546
    98  H    0.139671
    99  H    0.135886
   100  H    0.122222
   101  H    0.100112
   102  H    0.110988
   103  H    0.098567
   104  H    0.130623
   105  H    0.098493
   106  H    0.104344
   107  H    0.076042
   108  H    0.100611
   109  H    0.073126
   110  H    0.080923
   111  H    0.083318
   112  H    0.106666
   113  H    0.097567
   114  H    0.117279
   115  H    0.088827
   116  H    0.082881
   117  H    0.096087
   118  H    0.068383
   119  H    0.088354
   120  H    0.094805
   121  H    0.082922
   122  H    0.094174
   123  H    0.090458
   124  H    0.103277
   125  H    0.055031
   126  H    0.065672
   127  H    0.110366
   128  H    0.074922
   129  H    0.099243
   130  H    0.080679
   131  H    0.105110
   132  H    0.120505
   133  H    0.094570
   134  H    0.109547
   135  H    0.090620
   136  H    0.071040
   137  H    0.080507
 Sum of Mulliken charges =   0.00000

 Dipole moment (field-independent basis, Debye):
    X=              1.4923    Y=              5.1245    Z=              0.4596  Tot=              5.3571
 Quadrupole moment (field-independent basis, Debye-Ang):
   XX=           -343.3367   YY=           -397.8220   ZZ=           -397.9738
   XY=            -29.3735   XZ=              2.5051   YZ=             -1.8228

 Normal termination of Gaussian 09 at Sun Jun 30 14:18:03 2019.
