 Gaussian 09, Revision D.01,
 Gaussian 09:  ES64L-G09RevD.01 24-Apr-2013

 -------------------------------------
 # td=(NStates=1) CAM-B3LYP/6-31G(d,p)
 -------------------------------------

 --
 TD
 --
 Symbolic Z-matrix:
 Charge =  0 Multiplicity = 1

                         Standard orientation:
 ---------------------------------------------------------------------
 Center     Atomic      Atomic             Coordinates (Angstroms)
 Number     Number       Type             X           Y           Z
 ---------------------------------------------------------------------
      1         12           0       -7.236028    0.603210    0.152533
      2          6           0       -4.869012   -1.931618    0.592635
      3          6           0       -4.850847    2.842388    1.110635
      4          6           0       -9.518279    3.144812   -0.333883
      5          6           0       -9.566907   -1.819851   -0.906108
      6          7           0       -5.221651    0.427361    0.832134
      7          6           0       -4.383741   -0.754659    0.741959
      8          6           0       -2.994674   -0.355006    1.245650
      9          6           0       -3.021873    1.173973    1.665478
     10          6           0       -4.465168    1.510095    1.188133
     11          6           0       -3.012524    1.373028    3.204123
     12          6           0       -2.012766   -0.536563    0.061882
     13          6           0       -0.552247   -0.475608    0.576972
     14          6           0        0.504837   -0.593973   -0.551183
     15          8           0        0.223003   -1.085503   -1.655599
     16          8           0        1.736108   -0.356159   -0.165943
     17          7           0       -7.253036    2.505540    0.430533
     18          6           0       -6.258407    3.339682    0.838837
     19          6           0       -6.557103    4.823364    0.851655
     20          6           0       -7.885390    4.769216    0.430023
     21          6           0       -8.300547    3.470542    0.158915
     22          6           0       -5.749087    5.890895    1.303572
     23          6           0       -8.693398    5.914174    0.223593
     24          6           0       -8.414314    7.279336    0.037158
     25          7           0       -9.220850    0.606988   -0.450920
     26          6           0       -9.963737    1.732025   -0.680005
     27          6           0      -11.258273    1.423902   -1.130926
     28          6           0      -11.285738    0.029111   -1.224132
     29          6           0      -10.013447   -0.509328   -0.838940
     30          6           0      -12.512243    2.396200   -1.272813
     31          6           0      -12.455799   -0.730546   -1.753680
     32          6           0      -12.390258   -1.077489   -3.228651
     33          7           0       -7.210675   -1.372942   -0.195218
     34          6           0       -8.320209   -2.263151   -0.544341
     35          6           0       -7.777388   -3.657393   -0.531623
     36          6           0       -6.505338   -3.502186   -0.076386
     37          6           0       -6.190609   -2.207766    0.073351
     38          6           0       -8.558644   -4.922799   -0.820959
     39          6           0       -5.309773   -4.305784    0.280242
     40          8           0       -5.060045   -5.526330    0.288618
     41          6           0       -4.109597   -3.346306    0.558881
     42          6           0       -3.491761   -3.582213    1.865043
     43          8           0       -3.707262   -3.101388    2.889565
     44          8           0       -2.598365   -4.572898    1.794692
     45          6           0       -2.093401   -4.953125    3.124304
     46          6           0        2.780399   -0.662247   -1.201035
     47          6           0        4.185834   -0.447469   -0.643220
     48          6           0        5.174787    0.249171   -1.142286
     49          6           0        5.153755    0.984752   -2.415081
     50          6           0        6.444320    0.376481   -0.425134
     51          6           0        7.718107   -0.335653   -1.135028
     52          6           0        9.005309   -0.145474   -0.356340
     53          6           0       10.326454   -0.595341   -1.048452
     54          6           0       10.126870   -2.160961   -1.308767
     55          6           0       11.565509   -0.396359   -0.106550
     56          6           0       12.843612   -0.430973   -0.828511
     57          6           0       13.980322   -0.071694    0.052370
     58          6           0       15.512005   -0.252416   -0.499480
     59          6           0       15.851779   -1.718466   -0.636056
     60          6           0       16.583875    0.449037    0.436537
     61          6           0       17.951956    0.647037   -0.063504
     62          6           0       18.920043    1.414519    0.741752
     63          6           0       20.376767    1.383119    0.314482
     64          6           0       20.755192    2.201593   -0.939454
     65          6           0       21.159170    2.044186    1.494361
     66          1           0       -3.917139    3.523501    1.152933
     67          1           0      -10.246575    3.850115   -0.522081
     68          1           0      -10.340330   -2.448066   -1.304835
     69          1           0       -2.771632   -1.005677    2.066513
     70          1           0       -2.337667    1.763149    1.156608
     71          1           0       -1.965833    0.976542    3.416872
     72          1           0       -3.283267    2.277175    3.627042
     73          1           0       -3.637138    0.814285    3.640271
     74          1           0       -1.853187   -1.624550   -0.378140
     75          1           0       -2.056462   -0.069584   -0.877992
     76          1           0       -0.327319    0.624606    0.991733
     77          1           0       -0.194398   -1.125021    1.541415
     78          1           0       -5.031702    6.102274    0.431457
     79          1           0       -6.385318    6.857594    1.685874
     80          1           0       -5.145984    5.425843    2.212772
     81          1           0       -9.920211    5.973188    0.096347
     82          1           0       -9.281638    7.996087    0.263011
     83          1           0       -7.389290    7.733833    0.036417
     84          1           0      -12.347761    2.766608   -2.384781
     85          1           0      -13.446801    1.787162   -1.182249
     86          1           0      -12.592942    3.097391   -0.568569
     87          1           0      -12.498213   -1.776106   -1.187803
     88          1           0      -13.463229   -0.259245   -1.664734
     89          1           0      -13.373785   -1.607850   -3.442920
     90          1           0      -12.515936   -0.181767   -3.782642
     91          1           0      -11.440707   -1.551745   -3.479744
     92          1           0       -8.945114   -4.796822   -1.912644
     93          1           0       -7.880403   -5.984317   -0.706480
     94          1           0       -9.440556   -5.084687    0.051381
     95          1           0       -3.288395   -3.486493   -0.141877
     96          1           0       -1.734902   -4.203356    3.635787
     97          1           0       -2.808717   -5.401590    3.769169
     98          1           0       -1.367650   -5.819582    2.911121
     99          1           0        2.678565   -1.793693   -1.379545
    100          1           0        2.753505   -0.226382   -2.057672
    101          1           0        4.424905   -1.004806    0.247537
    102          1           0        4.163136    1.179003   -3.069275
    103          1           0        5.513306    2.015450   -2.472722
    104          1           0        5.740359    0.811662   -3.267511
    105          1           0        6.569477    1.489052   -0.428816
    106          1           0        6.359618   -0.085466    0.618656
    107          1           0        7.552412   -1.467094   -1.360266
    108          1           0        7.912190    0.082698   -2.116124
    109          1           0        8.924427    0.895152    0.001603
    110          1           0        9.030251   -0.569080    0.600203
    111          1           0       10.370013   -0.030380   -1.942956
    112          1           0        9.226408   -2.284846   -1.944984
    113          1           0       11.003056   -2.603251   -1.849449
    114          1           0        9.788574   -2.574010   -0.261171
    115          1           0       11.408664    0.674108    0.222546
    116          1           0       11.546353   -0.933960    0.935436
    117          1           0       13.016629   -1.370103   -1.280021
    118          1           0       12.798521    0.283319   -1.682721
    119          1           0       14.067544    1.096558    0.224516
    120          1           0       13.988962   -0.557645    1.127852
    121          1           0       15.398311    0.260657   -1.402486
    122          1           0       15.833950   -2.214774    0.192724
    123          1           0       15.311926   -2.129599   -1.323805
    124          1           0       16.862319   -1.903844   -1.011565
    125          1           0       16.039310    1.485757    0.724437
    126          1           0       16.557994   -0.187083    1.421026
    127          1           0       18.188286   -0.519167   -0.492793
    128          1           0       17.826664    1.246659   -1.222609
    129          1           0       18.560389    2.470525    0.981937
    130          1           0       19.067439    1.015402    1.735568
    131          1           0       20.788463    0.446524    0.136128
    132          1           0       20.326204    3.293981   -0.932794
    133          1           0       21.804577    2.221474   -1.109604
    134          1           0       20.267601    1.863942   -1.746482
    135          1           0       21.170863    1.290331    2.378492
    136          1           0       22.296344    2.098666    1.266196
    137          1           0       21.050579    3.101135    1.854435
 ---------------------------------------------------------------------

 SCF Done:  E(RCAM-B3LYP) =  -2932.61732821     A.U. after   17 cycles

 Excitation energies and oscillator strengths:

 Excited State   1:      Singlet-A      2.2391 eV  553.71 nm  f=0.1771  <S**2>=0.000
     240 -> 242        0.12175
     240 -> 243        0.27760
     241 -> 242        0.61849
 This state for optimization and/or second-order correction.
 Total Energy, E(TD-HF/TD-KS) =  -2932.53504149
 Copying the excited state density for this state as the 1-particle RhoCI density.

 The electronic state is 1-A.
 Alpha  occ. eigenvalues --  -46.82800 -19.27049 -19.24692 -19.20053 -19.19940
 Alpha  occ. eigenvalues --  -19.19766 -14.40649 -14.40060 -14.39605 -14.38888
 Alpha  occ. eigenvalues --  -10.38895 -10.37263 -10.35327 -10.32534 -10.31746
 Alpha  occ. eigenvalues --  -10.30374 -10.29763 -10.29639 -10.29487 -10.29362
 Alpha  occ. eigenvalues --  -10.29340 -10.29277 -10.29213 -10.29211 -10.28968
 Alpha  occ. eigenvalues --  -10.28960 -10.28628 -10.28401 -10.28347 -10.28071
 Alpha  occ. eigenvalues --  -10.28033 -10.28008 -10.27868 -10.27704 -10.27570
 Alpha  occ. eigenvalues --  -10.27520 -10.27465 -10.27383 -10.27364 -10.26840
 Alpha  occ. eigenvalues --  -10.26769 -10.26732 -10.26713 -10.26508 -10.26486
 Alpha  occ. eigenvalues --  -10.26439 -10.26394 -10.25951 -10.25932 -10.25872
 Alpha  occ. eigenvalues --  -10.25845 -10.25843 -10.25796 -10.25764 -10.25663
 Alpha  occ. eigenvalues --  -10.25603 -10.25588 -10.25348 -10.24864 -10.24863
 Alpha  occ. eigenvalues --  -10.24784 -10.24492 -10.23882 -10.23274 -10.21450
 Alpha  occ. eigenvalues --   -3.12098  -1.86783  -1.86373  -1.86276  -1.19660
 Alpha  occ. eigenvalues --   -1.18139  -1.09393  -1.09101  -1.07216  -1.03587
 Alpha  occ. eigenvalues --   -1.03124  -1.01370  -1.00495  -0.92287  -0.91896
 Alpha  occ. eigenvalues --   -0.90655  -0.90543  -0.89885  -0.88898  -0.88595
 Alpha  occ. eigenvalues --   -0.88212  -0.87621  -0.87453  -0.86863  -0.85966
 Alpha  occ. eigenvalues --   -0.85457  -0.84299  -0.83421  -0.82996  -0.82460
 Alpha  occ. eigenvalues --   -0.82271  -0.81416  -0.80322  -0.79848  -0.78409
 Alpha  occ. eigenvalues --   -0.78242  -0.77254  -0.77120  -0.76463  -0.76378
 Alpha  occ. eigenvalues --   -0.75220  -0.74517  -0.74074  -0.73593  -0.72090
 Alpha  occ. eigenvalues --   -0.71690  -0.70389  -0.69456  -0.68806  -0.68097
 Alpha  occ. eigenvalues --   -0.67168  -0.66678  -0.65441  -0.64539  -0.64470
 Alpha  occ. eigenvalues --   -0.64019  -0.63604  -0.63366  -0.62859  -0.61916
 Alpha  occ. eigenvalues --   -0.61590  -0.61411  -0.60606  -0.59423  -0.59123
 Alpha  occ. eigenvalues --   -0.58368  -0.57849  -0.57388  -0.57087  -0.56140
 Alpha  occ. eigenvalues --   -0.55820  -0.55360  -0.54789  -0.54573  -0.54256
 Alpha  occ. eigenvalues --   -0.54144  -0.53661  -0.53498  -0.53164  -0.52746
 Alpha  occ. eigenvalues --   -0.52710  -0.52546  -0.52206  -0.52017  -0.51615
 Alpha  occ. eigenvalues --   -0.51418  -0.51090  -0.50770  -0.50648  -0.50384
 Alpha  occ. eigenvalues --   -0.50133  -0.50120  -0.50014  -0.49774  -0.49250
 Alpha  occ. eigenvalues --   -0.49140  -0.49021  -0.48739  -0.48561  -0.47913
 Alpha  occ. eigenvalues --   -0.47790  -0.47669  -0.47538  -0.47387  -0.47034
 Alpha  occ. eigenvalues --   -0.46962  -0.46649  -0.46291  -0.45976  -0.45772
 Alpha  occ. eigenvalues --   -0.45644  -0.45578  -0.45330  -0.45128  -0.45076
 Alpha  occ. eigenvalues --   -0.44901  -0.44681  -0.44312  -0.43997  -0.43929
 Alpha  occ. eigenvalues --   -0.43902  -0.43723  -0.43510  -0.43266  -0.43085
 Alpha  occ. eigenvalues --   -0.42889  -0.42664  -0.42580  -0.42524  -0.42269
 Alpha  occ. eigenvalues --   -0.42237  -0.41997  -0.41848  -0.41612  -0.41345
 Alpha  occ. eigenvalues --   -0.40936  -0.40868  -0.40531  -0.40522  -0.40375
 Alpha  occ. eigenvalues --   -0.40307  -0.39968  -0.39727  -0.39260  -0.38804
 Alpha  occ. eigenvalues --   -0.38800  -0.38565  -0.38269  -0.37901  -0.37893
 Alpha  occ. eigenvalues --   -0.37740  -0.37324  -0.36955  -0.36588  -0.36518
 Alpha  occ. eigenvalues --   -0.36323  -0.36022  -0.35865  -0.35814  -0.35650
 Alpha  occ. eigenvalues --   -0.35033  -0.34990  -0.34236  -0.33267  -0.33224
 Alpha  occ. eigenvalues --   -0.33146  -0.32611  -0.31840  -0.31204  -0.30166
 Alpha  occ. eigenvalues --   -0.29857  -0.29583  -0.27812  -0.27116  -0.22993
 Alpha  occ. eigenvalues --   -0.22242
 Alpha virt. eigenvalues --   -0.06254  -0.03584   0.02164   0.03321   0.05645
 Alpha virt. eigenvalues --    0.06280   0.06403   0.06864   0.07326   0.08085
 Alpha virt. eigenvalues --    0.08471   0.10652   0.11069   0.11484   0.12249

 Mulliken charges:
               1
     1  Mg   0.819643
     2  C    0.088335
     3  C   -0.238669
     4  C   -0.171591
     5  C   -0.137028
     6  N   -0.636316
     7  C    0.256682
     8  C   -0.174839
     9  C   -0.130289
    10  C    0.334828
    11  C   -0.294854
    12  C   -0.187414
    13  C   -0.263961
    14  C    0.602741
    15  O   -0.499490
    16  O   -0.462516
    17  N   -0.705728
    18  C    0.282661
    19  C    0.092876
    20  C    0.048472
    21  C    0.341695
    22  C   -0.393819
    23  C   -0.117339
    24  C   -0.259697
    25  N   -0.696877
    26  C    0.273589
    27  C   -0.015047
    28  C    0.024732
    29  C    0.272448
    30  C   -0.344149
    31  C   -0.254412
    32  C   -0.296431
    33  N   -0.711603
    34  C    0.221699
    35  C    0.031425
    36  C    0.040167
    37  C    0.298175
    38  C   -0.364308
    39  C    0.374377
    40  O   -0.479965
    41  C   -0.303773
    42  C    0.636104
    43  O   -0.452919
    44  O   -0.472501
    45  C   -0.084261
    46  C    0.042195
    47  C   -0.179323
    48  C    0.205963
    49  C   -0.410950
    50  C   -0.246296
    51  C   -0.182028
    52  C   -0.178553
    53  C   -0.071953
    54  C   -0.305440
    55  C   -0.168837
    56  C   -0.163401
    57  C   -0.179904
    58  C   -0.075602
    59  C   -0.298438
    60  C   -0.154051
    61  C   -0.133742
    62  C   -0.150204
    63  C   -0.052185
    64  C   -0.305626
    65  C   -0.324228
    66  H    0.078185
    67  H    0.089525
    68  H    0.104468
    69  H    0.133848
    70  H    0.112141
    71  H    0.094979
    72  H    0.115627
    73  H    0.136464
    74  H    0.113832
    75  H    0.140056
    76  H    0.095912
    77  H    0.125289
    78  H    0.133187
    79  H    0.121075
    80  H    0.120175
    81  H    0.088287
    82  H    0.104021
    83  H    0.099314
    84  H    0.113793
    85  H    0.112566
    86  H    0.128852
    87  H    0.079238
    88  H    0.100123
    89  H    0.096343
    90  H    0.113486
    91  H    0.109062
    92  H    0.123238
    93  H    0.132952
    94  H    0.113576
    95  H    0.171485
    96  H    0.135623
    97  H    0.131449
    98  H    0.110939
    99  H    0.125753
   100  H    0.129810
   101  H    0.086685
   102  H    0.096809
   103  H    0.113386
   104  H    0.136948
   105  H    0.107323
   106  H    0.099837
   107  H    0.090322
   108  H    0.097475
   109  H    0.081432
   110  H    0.094552
   111  H    0.089260
   112  H    0.099632
   113  H    0.101508
   114  H    0.095825
   115  H    0.087544
   116  H    0.086381
   117  H    0.103286
   118  H    0.094990
   119  H    0.073107
   120  H    0.072479
   121  H    0.088282
   122  H    0.112394
   123  H    0.105333
   124  H    0.086960
   125  H    0.058602
   126  H    0.075151
   127  H    0.065401
   128  H    0.040337
   129  H    0.097890
   130  H    0.098669
   131  H    0.104570
   132  H    0.076222
   133  H    0.104759
   134  H    0.109213
   135  H    0.085414
   136  H    0.078404
   137  H    0.110704
 Sum of Mulliken charges =   0.00000

 Dipole moment (field-independent basis, Debye):
    X=              1.5895    Y=              5.1896    Z=             -0.0261  Tot=              5.4277
 Quadrupole moment (field-independent basis, Debye-Ang):
   XX=           -338.1702   YY=           -393.1337   ZZ=           -394.3289
   XY=            -28.8588   XZ=              2.5649   YZ=             -1.8760

 Normal termination of Gaussian 09 at Thu Jun 27 12:14:03 2019.
