 Gaussian 09, Revision D.01,
 Gaussian 09:  ES64L-G09RevD.01 24-Apr-2013

 -------------------------------------
 # td=(NStates=1) CAM-B3LYP/6-31G(d,p)
 -------------------------------------

 --
 TD
 --
 Symbolic Z-matrix:
 Charge =  0 Multiplicity = 1

                         Standard orientation:
 ---------------------------------------------------------------------
 Center     Atomic      Atomic             Coordinates (Angstroms)
 Number     Number       Type             X           Y           Z
 ---------------------------------------------------------------------
      1         12           0       -7.127439    0.585371    0.109435
      2          6           0       -4.927332   -2.033533    0.401304
      3          6           0       -4.778854    2.884601    1.123476
      4          6           0       -9.410746    3.066272   -0.256894
      5          6           0       -9.539929   -1.749819   -0.883152
      6          7           0       -5.004871    0.388030    0.761297
      7          6           0       -4.326379   -0.781505    0.859115
      8          6           0       -2.888460   -0.488871    1.261058
      9          6           0       -3.033111    1.060021    1.708520
     10          6           0       -4.406193    1.553251    1.131299
     11          6           0       -3.071940    1.215180    3.280758
     12          6           0       -1.948832   -0.684944    0.098112
     13          6           0       -0.481956   -0.368599    0.548880
     14          6           0        0.491739   -0.611269   -0.616147
     15          8           0        0.178587   -0.833697   -1.762628
     16          8           0        1.800182   -0.288077   -0.270249
     17          7           0       -7.075466    2.723785    0.383740
     18          6           0       -6.052319    3.435772    0.815956
     19          6           0       -6.372835    4.765162    0.807346
     20          6           0       -7.711314    4.792493    0.378112
     21          6           0       -8.133785    3.519531    0.142665
     22          6           0       -5.557207    5.860256    1.382885
     23          6           0       -8.596567    5.947360    0.281851
     24          6           0       -8.215674    7.255183    0.205350
     25          7           0       -9.120120    0.652415   -0.389711
     26          6           0       -9.796406    1.733596   -0.473027
     27          6           0      -11.193665    1.433516   -1.007365
     28          6           0      -11.280182    0.137856   -1.174225
     29          6           0       -9.961591   -0.416189   -0.823497
     30          6           0      -12.195550    2.525420   -1.386504
     31          6           0      -12.322668   -0.734878   -1.763239
     32          6           0      -12.195146   -1.042398   -3.168733
     33          7           0       -7.208996   -1.398281   -0.190083
     34          6           0       -8.346067   -2.202165   -0.563354
     35          6           0       -7.867921   -3.598958   -0.485807
     36          6           0       -6.571146   -3.639472   -0.182001
     37          6           0       -6.279429   -2.277707    0.097239
     38          6           0       -8.642273   -4.778222   -0.933298
     39          6           0       -5.330949   -4.481145    0.121422
     40          8           0       -5.250667   -5.641032    0.137377
     41          6           0       -4.317580   -3.386355    0.497291
     42          6           0       -3.585057   -3.806335    1.856822
     43          8           0       -3.768338   -3.221375    2.871713
     44          8           0       -2.789165   -4.863792    1.640561
     45          6           0       -2.015060   -5.352778    2.816023
     46          6           0        2.933895   -0.461692   -1.221496
     47          6           0        4.237979   -0.352504   -0.605802
     48          6           0        5.177402    0.561944   -0.980927
     49          6           0        5.136977    1.474040   -2.197309
     50          6           0        6.474813    0.481628   -0.160312
     51          6           0        7.677116   -0.107413   -0.963276
     52          6           0        8.895359   -0.063147   -0.107745
     53          6           0       10.292609   -0.544157   -0.864519
     54          6           0       10.085096   -1.969454   -1.300210
     55          6           0       11.305742   -0.316084   -0.004200
     56          6           0       12.771273   -0.387857   -0.669281
     57          6           0       13.968304   -0.063762    0.224496
     58          6           0       15.328914   -0.316734   -0.421762
     59          6           0       15.647946   -1.677179   -0.792295
     60          6           0       16.349351    0.264785    0.472225
     61          6           0       17.694057    0.539501   -0.198784
     62          6           0       18.712699    1.256886    0.744060
     63          6           0       20.167427    1.260210    0.306002
     64          6           0       20.427317    1.940995   -1.159837
     65          6           0       21.175181    1.905777    1.285173
     66          1           0       -3.920403    3.533920    1.442993
     67          1           0      -10.128456    3.817130   -0.512428
     68          1           0      -10.326443   -2.440585   -1.273771
     69          1           0       -2.615640   -1.032650    2.122858
     70          1           0       -2.131463    1.642851    1.366117
     71          1           0       -2.045796    1.108378    3.840831
     72          1           0       -3.141873    2.303177    3.484473
     73          1           0       -3.939462    0.522416    3.735939
     74          1           0       -2.138778   -1.771831   -0.422396
     75          1           0       -2.161030    0.125429   -0.715470
     76          1           0       -0.314511    0.621298    0.687583
     77          1           0       -0.140933   -0.986542    1.453747
     78          1           0       -5.136218    6.317657    0.513128
     79          1           0       -6.369747    6.702399    1.718074
     80          1           0       -4.833093    5.612370    2.039578
     81          1           0       -9.569603    5.598423    0.346976
     82          1           0       -8.792404    8.256275    0.210886
     83          1           0       -7.083671    7.531283    0.005388
     84          1           0      -11.931153    3.207068   -2.299841
     85          1           0      -13.224596    2.138251   -1.808498
     86          1           0      -12.368723    3.066872   -0.525488
     87          1           0      -12.286623   -1.754956   -1.146361
     88          1           0      -13.463009   -0.510281   -1.616764
     89          1           0      -12.877840   -1.710966   -3.528936
     90          1           0      -12.048537   -0.195105   -3.874730
     91          1           0      -11.161010   -1.571065   -3.530845
     92          1           0       -8.830260   -4.852536   -1.974118
     93          1           0       -8.218473   -5.667044   -0.625630
     94          1           0       -9.666039   -4.646990   -0.337823
     95          1           0       -3.604084   -3.283567   -0.213827
     96          1           0       -1.664359   -4.630875    3.480834
     97          1           0       -2.977993   -5.915317    3.289032
     98          1           0       -1.224476   -5.968299    2.161943
     99          1           0        2.831459   -1.590694   -1.621733
    100          1           0        2.850469    0.339218   -2.120249
    101          1           0        4.242581   -0.886402    0.362392
    102          1           0        4.148156    1.731536   -2.513283
    103          1           0        5.152425    2.480560   -1.870426
    104          1           0        5.596936    1.080106   -3.109589
    105          1           0        6.775793    1.524271    0.042460
    106          1           0        6.253935    0.070343    0.706074
    107          1           0        7.560633   -1.194009   -1.303586
    108          1           0        7.831149    0.562736   -1.857030
    109          1           0        9.243262    0.856013    0.626111
    110          1           0        8.556704   -0.905023    0.593991
    111          1           0       10.506803    0.066668   -1.727309
    112          1           0        9.284044   -2.063995   -2.091829
    113          1           0       11.046254   -2.413622   -1.806734
    114          1           0        9.879344   -2.733022   -0.474319
    115          1           0       11.341190    0.645696    0.426694
    116          1           0       11.392503   -1.116483    0.701881
    117          1           0       12.815284   -1.484833   -1.019763
    118          1           0       12.763912   -0.037476   -1.603197
    119          1           0       13.875260    0.993235    0.593308
    120          1           0       13.952314   -0.664023    1.103089
    121          1           0       15.501836    0.302392   -1.361486
    122          1           0       15.491463   -2.680564   -0.001026
    123          1           0       14.902243   -1.845931   -1.630319
    124          1           0       16.623099   -1.950690   -1.125164
    125          1           0       16.038029    1.293996    0.744461
    126          1           0       16.501703    0.074456    1.643045
    127          1           0       18.274804   -0.505189   -0.470009
    128          1           0       17.444711    1.129874   -1.004276
    129          1           0       18.484544    2.316696    0.663499
    130          1           0       18.672020    0.760972    1.717299
    131          1           0       20.325151    0.071834    0.311147
    132          1           0       20.040676    3.057798   -1.020523
    133          1           0       21.547942    1.997269   -1.566709
    134          1           0       19.967909    1.334641   -1.986205
    135          1           0       21.037517    1.450546    2.273546
    136          1           0       22.219306    1.933210    0.964639
    137          1           0       20.811551    2.972320    1.218912
 ---------------------------------------------------------------------

 SCF Done:  E(RCAM-B3LYP) =  -2932.63998416     A.U. after   15 cycles

 Excitation energies and oscillator strengths:

 Excited State   1:      Singlet-A      2.0640 eV  600.71 nm  f=0.2512  <S**2>=0.000
     240 -> 243       -0.26750
     241 -> 242        0.65107
 This state for optimization and/or second-order correction.
 Total Energy, E(TD-HF/TD-KS) =  -2932.56413478
 Copying the excited state density for this state as the 1-particle RhoCI density.

 The electronic state is 1-A.
 Alpha  occ. eigenvalues --  -46.85140 -19.26596 -19.24785 -19.22037 -19.21511
 Alpha  occ. eigenvalues --  -19.20613 -14.41196 -14.39854 -14.39059 -14.37798
 Alpha  occ. eigenvalues --  -10.39476 -10.39001 -10.36174 -10.33829 -10.32862
 Alpha  occ. eigenvalues --  -10.31638 -10.30356 -10.29321 -10.28856 -10.28688
 Alpha  occ. eigenvalues --  -10.28676 -10.28354 -10.28180 -10.28008 -10.27980
 Alpha  occ. eigenvalues --  -10.27862 -10.27734 -10.27588 -10.27359 -10.27290
 Alpha  occ. eigenvalues --  -10.27191 -10.27153 -10.27098 -10.27097 -10.27061
 Alpha  occ. eigenvalues --  -10.26939 -10.26815 -10.26781 -10.26684 -10.26621
 Alpha  occ. eigenvalues --  -10.26528 -10.26324 -10.26276 -10.26122 -10.26109
 Alpha  occ. eigenvalues --  -10.26068 -10.25955 -10.25940 -10.25744 -10.25543
 Alpha  occ. eigenvalues --  -10.25493 -10.25342 -10.25273 -10.25193 -10.25155
 Alpha  occ. eigenvalues --  -10.25082 -10.24983 -10.24924 -10.24836 -10.24821
 Alpha  occ. eigenvalues --  -10.24710 -10.24695 -10.24631 -10.24162 -10.23275
 Alpha  occ. eigenvalues --   -3.13911  -1.88644  -1.88137  -1.88073  -1.18491
 Alpha  occ. eigenvalues --   -1.15643  -1.15324  -1.10485  -1.07656  -1.05120
 Alpha  occ. eigenvalues --   -1.04274  -1.03643  -1.02505  -0.92666  -0.92366
 Alpha  occ. eigenvalues --   -0.91383  -0.90642  -0.90036  -0.89276  -0.88647
 Alpha  occ. eigenvalues --   -0.88170  -0.88079  -0.87750  -0.87216  -0.85844
 Alpha  occ. eigenvalues --   -0.84828  -0.84036  -0.83745  -0.82950  -0.82458
 Alpha  occ. eigenvalues --   -0.81399  -0.81049  -0.80375  -0.80229  -0.78352
 Alpha  occ. eigenvalues --   -0.77983  -0.77166  -0.76783  -0.76100  -0.75858
 Alpha  occ. eigenvalues --   -0.75226  -0.74836  -0.73807  -0.72581  -0.71767
 Alpha  occ. eigenvalues --   -0.71074  -0.70481  -0.69766  -0.68614  -0.68279
 Alpha  occ. eigenvalues --   -0.66713  -0.66157  -0.64862  -0.64702  -0.64281
 Alpha  occ. eigenvalues --   -0.64039  -0.63608  -0.62657  -0.62443  -0.61476
 Alpha  occ. eigenvalues --   -0.60414  -0.60368  -0.60152  -0.59951  -0.59155
 Alpha  occ. eigenvalues --   -0.58801  -0.58340  -0.58232  -0.57434  -0.56125
 Alpha  occ. eigenvalues --   -0.55921  -0.55829  -0.55684  -0.55126  -0.55022
 Alpha  occ. eigenvalues --   -0.54659  -0.54307  -0.53848  -0.53515  -0.53465
 Alpha  occ. eigenvalues --   -0.52816  -0.52397  -0.52311  -0.52208  -0.51966
 Alpha  occ. eigenvalues --   -0.51632  -0.51379  -0.51218  -0.50955  -0.50797
 Alpha  occ. eigenvalues --   -0.50795  -0.50448  -0.50243  -0.50072  -0.49818
 Alpha  occ. eigenvalues --   -0.49571  -0.49159  -0.49074  -0.48804  -0.48479
 Alpha  occ. eigenvalues --   -0.48291  -0.48096  -0.47744  -0.47171  -0.46960
 Alpha  occ. eigenvalues --   -0.46727  -0.46574  -0.46455  -0.46337  -0.46262
 Alpha  occ. eigenvalues --   -0.45911  -0.45776  -0.45644  -0.45473  -0.45250
 Alpha  occ. eigenvalues --   -0.45028  -0.44825  -0.44705  -0.44416  -0.44178
 Alpha  occ. eigenvalues --   -0.43865  -0.43780  -0.43575  -0.43390  -0.43218
 Alpha  occ. eigenvalues --   -0.43089  -0.43054  -0.42583  -0.42233  -0.42063
 Alpha  occ. eigenvalues --   -0.42018  -0.41854  -0.41633  -0.41055  -0.40850
 Alpha  occ. eigenvalues --   -0.40835  -0.40720  -0.40574  -0.40435  -0.40383
 Alpha  occ. eigenvalues --   -0.40042  -0.39934  -0.39616  -0.39286  -0.38907
 Alpha  occ. eigenvalues --   -0.38805  -0.38215  -0.37730  -0.37652  -0.37630
 Alpha  occ. eigenvalues --   -0.36778  -0.36678  -0.36485  -0.36393  -0.36197
 Alpha  occ. eigenvalues --   -0.36045  -0.35924  -0.35287  -0.35176  -0.35010
 Alpha  occ. eigenvalues --   -0.34985  -0.34592  -0.34227  -0.34148  -0.33146
 Alpha  occ. eigenvalues --   -0.32411  -0.32220  -0.32051  -0.31019  -0.30813
 Alpha  occ. eigenvalues --   -0.30501  -0.29495  -0.29002  -0.25879  -0.22558
 Alpha  occ. eigenvalues --   -0.20897
 Alpha virt. eigenvalues --   -0.06164  -0.02531   0.01953   0.05041   0.05180
 Alpha virt. eigenvalues --    0.05867   0.06635   0.06895   0.07291   0.07902
 Alpha virt. eigenvalues --    0.09077   0.10733   0.11317   0.11679   0.11858

 Mulliken charges:
               1
     1  Mg   0.823393
     2  C    0.001461
     3  C   -0.183148
     4  C   -0.160444
     5  C   -0.198983
     6  N   -0.641835
     7  C    0.305027
     8  C   -0.145253
     9  C   -0.173840
    10  C    0.354734
    11  C   -0.301540
    12  C   -0.165220
    13  C   -0.251822
    14  C    0.583677
    15  O   -0.453546
    16  O   -0.517840
    17  N   -0.730244
    18  C    0.326051
    19  C    0.012492
    20  C   -0.032555
    21  C    0.329773
    22  C   -0.365484
    23  C   -0.030573
    24  C   -0.288993
    25  N   -0.704383
    26  C    0.345837
    27  C   -0.013368
    28  C    0.084302
    29  C    0.232120
    30  C   -0.371101
    31  C   -0.246777
    32  C   -0.292443
    33  N   -0.721301
    34  C    0.322003
    35  C   -0.063862
    36  C    0.030157
    37  C    0.286858
    38  C   -0.364108
    39  C    0.408448
    40  O   -0.402417
    41  C   -0.297976
    42  C    0.590097
    43  O   -0.450200
    44  O   -0.457325
    45  C   -0.093203
    46  C    0.036748
    47  C   -0.109588
    48  C    0.082048
    49  C   -0.375815
    50  C   -0.201451
    51  C   -0.180770
    52  C   -0.171084
    53  C   -0.030251
    54  C   -0.322325
    55  C   -0.157037
    56  C   -0.221621
    57  C   -0.164653
    58  C   -0.047228
    59  C   -0.281595
    60  C   -0.187428
    61  C   -0.163002
    62  C   -0.163739
    63  C   -0.062572
    64  C   -0.309809
    65  C   -0.290721
    66  H    0.086386
    67  H    0.095498
    68  H    0.103972
    69  H    0.129427
    70  H    0.085167
    71  H    0.089198
    72  H    0.106370
    73  H    0.118002
    74  H    0.105184
    75  H    0.117624
    76  H    0.154595
    77  H    0.126318
    78  H    0.127905
    79  H    0.109535
    80  H    0.114747
    81  H    0.083124
    82  H    0.106240
    83  H    0.091548
    84  H    0.114807
    85  H    0.101061
    86  H    0.133070
    87  H    0.087785
    88  H    0.102060
    89  H    0.117643
    90  H    0.111773
    91  H    0.073611
    92  H    0.136301
    93  H    0.142903
    94  H    0.094274
    95  H    0.161217
    96  H    0.154751
    97  H    0.137293
    98  H    0.137110
    99  H    0.101520
   100  H    0.099702
   101  H    0.096436
   102  H    0.112245
   103  H    0.127984
   104  H    0.141497
   105  H    0.095372
   106  H    0.104221
   107  H    0.102672
   108  H    0.090570
   109  H    0.070421
   110  H    0.084338
   111  H    0.085534
   112  H    0.102906
   113  H    0.086806
   114  H    0.100400
   115  H    0.093342
   116  H    0.095593
   117  H    0.075178
   118  H    0.094394
   119  H    0.087121
   120  H    0.106489
   121  H    0.086762
   122  H    0.056495
   123  H    0.092199
   124  H    0.119019
   125  H    0.083519
   126  H    0.071891
   127  H    0.061184
   128  H    0.105166
   129  H    0.084767
   130  H    0.097137
   131  H    0.053025
   132  H    0.086064
   133  H    0.088836
   134  H    0.109197
   135  H    0.099058
   136  H    0.111347
   137  H    0.088341
 Sum of Mulliken charges =   0.00000

 Dipole moment (field-independent basis, Debye):
    X=              2.2265    Y=              1.9116    Z=              0.0050  Tot=              2.9346
 Quadrupole moment (field-independent basis, Debye-Ang):
   XX=           -362.4774   YY=           -394.4009   ZZ=           -396.9414
   XY=             -0.6919   XZ=             11.7075   YZ=             -5.9801

 Normal termination of Gaussian 09 at Sun Jun 30 20:43:08 2019.
