 Gaussian 09, Revision D.01,
 Gaussian 09:  ES64L-G09RevD.01 24-Apr-2013

 -------------------------------------
 # td=(NStates=1) CAM-B3LYP/6-31G(d,p)
 -------------------------------------

 --
 TD
 --
 Symbolic Z-matrix:
 Charge =  0 Multiplicity = 1

                         Standard orientation:
 ---------------------------------------------------------------------
 Center     Atomic      Atomic             Coordinates (Angstroms)
 Number     Number       Type             X           Y           Z
 ---------------------------------------------------------------------
      1         12           0       -7.186071    0.568981    0.135161
      2          6           0       -4.796814   -1.939824    0.564287
      3          6           0       -4.775457    2.890101    1.071202
      4          6           0       -9.477736    3.039210   -0.348256
      5          6           0       -9.556839   -1.733792   -0.763162
      6          7           0       -5.137169    0.516729    0.795218
      7          6           0       -4.372660   -0.631223    0.798466
      8          6           0       -2.880534   -0.369264    1.182185
      9          6           0       -2.911060    1.068741    1.579984
     10          6           0       -4.372641    1.534083    1.151209
     11          6           0       -2.918470    1.300789    3.175487
     12          6           0       -1.846659   -0.611825    0.067070
     13          6           0       -0.406933   -0.527623    0.682599
     14          6           0        0.484391   -0.783187   -0.601029
     15          8           0        0.182297   -1.115398   -1.741245
     16          8           0        1.758677   -0.656573   -0.141398
     17          7           0       -7.171459    2.639089    0.322974
     18          6           0       -6.059817    3.388757    0.785354
     19          6           0       -6.451215    4.740941    0.803771
     20          6           0       -7.751141    4.854252    0.378126
     21          6           0       -8.129656    3.478255    0.147594
     22          6           0       -5.546432    5.896650    1.303702
     23          6           0       -8.701587    5.922869    0.386108
     24          6           0       -8.213227    7.190190    0.007050
     25          7           0       -9.125818    0.622561   -0.323607
     26          6           0       -9.864690    1.743636   -0.603678
     27          6           0      -11.189011    1.464154   -1.071271
     28          6           0      -11.276280    0.048800   -1.186125
     29          6           0       -9.927989   -0.403749   -0.784980
     30          6           0      -12.212579    2.471460   -1.493830
     31          6           0      -12.371368   -0.840309   -1.718938
     32          6           0      -12.153236   -1.036481   -3.191851
     33          7           0       -7.275553   -1.385845   -0.149949
     34          6           0       -8.244331   -2.234797   -0.431564
     35          6           0       -7.743458   -3.576144   -0.434490
     36          6           0       -6.456813   -3.541726    0.033515
     37          6           0       -6.143172   -2.184345    0.227436
     38          6           0       -8.595637   -4.778126   -0.749291
     39          6           0       -5.310205   -4.238354    0.168019
     40          8           0       -5.230965   -5.517992    0.107659
     41          6           0       -4.127144   -3.267876    0.513893
     42          6           0       -3.425495   -3.654345    1.857262
     43          8           0       -3.746456   -3.123351    2.907272
     44          8           0       -2.630097   -4.678063    1.638645
     45          6           0       -2.019256   -5.187881    2.825991
     46          6           0        2.790326   -0.731223   -1.099643
     47          6           0        4.117598   -0.456214   -0.511137
     48          6           0        5.048871    0.399282   -0.977798
     49          6           0        4.843610    1.265709   -2.219708
     50          6           0        6.323020    0.543360   -0.280243
     51          6           0        7.507508   -0.138487   -1.092626
     52          6           0        8.930626    0.021495   -0.343764
     53          6           0       10.209666   -0.568808   -1.089738
     54          6           0       10.035700   -2.044446   -1.391359
     55          6           0       11.451924   -0.412593   -0.145480
     56          6           0       12.884728   -0.588935   -0.792422
     57          6           0       13.981349   -0.315532    0.181075
     58          6           0       15.420593   -0.225627   -0.462144
     59          6           0       15.875925   -1.631144   -1.068493
     60          6           0       16.372926    0.352756    0.516831
     61          6           0       17.759671    0.560164   -0.056846
     62          6           0       18.738849    1.237899    0.972437
     63          6           0       20.123536    1.431685    0.319219
     64          6           0       20.201987    2.276478   -0.928012
     65          6           0       21.155221    2.069555    1.349286
     66          1           0       -4.094385    3.644960    1.443427
     67          1           0      -10.150405    3.844200   -0.523609
     68          1           0      -10.086657   -2.490772   -1.030352
     69          1           0       -2.687977   -1.034472    1.917617
     70          1           0       -2.126337    1.591504    1.048109
     71          1           0       -2.092185    1.034551    3.590322
     72          1           0       -3.182606    2.284862    3.313856
     73          1           0       -3.907632    0.870523    3.812795
     74          1           0       -2.061504   -1.689704   -0.302050
     75          1           0       -1.956908   -0.127288   -0.904355
     76          1           0       -0.182197    0.423450    0.963108
     77          1           0       -0.367739   -1.167436    1.508386
     78          1           0       -4.972716    6.447685    0.343827
     79          1           0       -6.286467    6.554361    1.875747
     80          1           0       -4.874809    5.576044    1.961039
     81          1           0       -9.677867    5.636177    0.459771
     82          1           0       -8.891628    7.895652    0.101652
     83          1           0       -7.248695    7.339934   -0.469532
     84          1           0      -11.794428    2.924426   -2.494547
     85          1           0      -13.241430    1.937346   -1.764856
     86          1           0      -12.338524    3.113141   -0.612079
     87          1           0      -12.491141   -1.743699   -1.358471
     88          1           0      -13.341188   -0.293041   -1.381552
     89          1           0      -12.887925   -1.786990   -3.542386
     90          1           0      -12.374830   -0.111504   -3.813559
     91          1           0      -11.259355   -1.422059   -3.304589
     92          1           0       -8.727322   -4.858605   -1.867802
     93          1           0       -7.872456   -5.623662   -0.403957
     94          1           0       -9.470830   -4.781815   -0.098128
     95          1           0       -3.209720   -3.297065   -0.169327
     96          1           0       -1.651558   -4.271550    3.485989
     97          1           0       -2.982615   -5.816128    3.336802
     98          1           0       -1.410706   -5.812693    2.578722
     99          1           0        2.792528   -1.708743   -1.636009
    100          1           0        2.589081    0.002037   -1.875276
    101          1           0        4.277235   -0.858875    0.317848
    102          1           0        3.808959    1.270558   -2.733547
    103          1           0        5.273755    2.180613   -1.833147
    104          1           0        5.465852    0.701554   -2.988953
    105          1           0        6.842819    1.433615    0.002583
    106          1           0        6.324456   -0.011876    0.767875
    107          1           0        7.437931   -1.201638   -1.258110
    108          1           0        7.531481    0.501361   -1.964146
    109          1           0        9.119483    0.972257   -0.037415
    110          1           0        8.895550   -0.638012    0.618143
    111          1           0       10.384098   -0.125715   -2.003396
    112          1           0        9.159720   -2.122627   -2.154462
    113          1           0       10.983032   -2.548309   -1.821843
    114          1           0        9.600698   -2.744088   -0.454430
    115          1           0       11.254124    0.555719    0.359879
    116          1           0       11.363968   -1.020931    0.594413
    117          1           0       12.856468   -1.537599   -1.456013
    118          1           0       12.938482    0.184688   -1.653618
    119          1           0       13.862544    0.579454    0.708892
    120          1           0       13.958472   -0.880158    0.993403
    121          1           0       15.173963    0.377100   -1.444636
    122          1           0       15.757809   -2.515799   -0.382840
    123          1           0       15.203875   -1.997949   -1.940693
    124          1           0       16.890350   -1.495468   -1.346950
    125          1           0       15.885284    1.287404    0.912850
    126          1           0       16.436403   -0.292172    1.256010
    127          1           0       18.016656   -0.410792   -0.562150
    128          1           0       17.388723    1.365527   -1.057414
    129          1           0       18.297777    2.091574    1.258901
    130          1           0       18.844935    0.871917    1.996888
    131          1           0       20.432028    0.449233    0.348536
    132          1           0       19.827171    3.361741   -0.685462
    133          1           0       21.217375    2.404131   -1.222781
    134          1           0       19.745001    1.776031   -1.793508
    135          1           0       21.230932    1.681447    2.460512
    136          1           0       22.207766    2.249731    0.888306
    137          1           0       20.990236    2.953881    1.552205
 ---------------------------------------------------------------------

 SCF Done:  E(RCAM-B3LYP) =  -2932.57330531     A.U. after   18 cycles

 Excitation energies and oscillator strengths:

 Excited State   1:      Singlet-A      1.8295 eV  677.68 nm  f=0.3145  <S**2>=0.000
     240 -> 243        0.20795
     241 -> 242        0.67358
 This state for optimization and/or second-order correction.
 Total Energy, E(TD-HF/TD-KS) =  -2932.50607072
 Copying the excited state density for this state as the 1-particle RhoCI density.

 The electronic state is 1-A.
 Alpha  occ. eigenvalues --  -46.83814 -19.27766 -19.26617 -19.22411 -19.21118
 Alpha  occ. eigenvalues --  -19.18578 -14.42683 -14.38921 -14.38768 -14.38721
 Alpha  occ. eigenvalues --  -10.40444 -10.39446 -10.33770 -10.32206 -10.31196
 Alpha  occ. eigenvalues --  -10.31176 -10.30402 -10.29261 -10.29034 -10.28945
 Alpha  occ. eigenvalues --  -10.28894 -10.28703 -10.28209 -10.28028 -10.27939
 Alpha  occ. eigenvalues --  -10.27820 -10.27652 -10.27553 -10.27527 -10.27119
 Alpha  occ. eigenvalues --  -10.27066 -10.26965 -10.26888 -10.26851 -10.26815
 Alpha  occ. eigenvalues --  -10.26809 -10.26794 -10.26755 -10.26612 -10.26514
 Alpha  occ. eigenvalues --  -10.26453 -10.26450 -10.26402 -10.26216 -10.26205
 Alpha  occ. eigenvalues --  -10.25987 -10.25878 -10.25808 -10.25777 -10.25700
 Alpha  occ. eigenvalues --  -10.25625 -10.25563 -10.25495 -10.25464 -10.25264
 Alpha  occ. eigenvalues --  -10.25026 -10.24940 -10.24560 -10.24346 -10.23905
 Alpha  occ. eigenvalues --  -10.23821 -10.23772 -10.23669 -10.23571 -10.23294
 Alpha  occ. eigenvalues --   -3.12976  -1.87671  -1.87239  -1.87142  -1.19937
 Alpha  occ. eigenvalues --   -1.18550  -1.09963  -1.09936  -1.06624  -1.04898
 Alpha  occ. eigenvalues --   -1.04112  -1.03310  -1.02096  -0.93476  -0.91775
 Alpha  occ. eigenvalues --   -0.90806  -0.90568  -0.89313  -0.89180  -0.88919
 Alpha  occ. eigenvalues --   -0.88220  -0.88139  -0.87437  -0.86273  -0.86246
 Alpha  occ. eigenvalues --   -0.84860  -0.84391  -0.84146  -0.83401  -0.82755
 Alpha  occ. eigenvalues --   -0.81396  -0.81215  -0.80625  -0.79619  -0.78357
 Alpha  occ. eigenvalues --   -0.77437  -0.77216  -0.76329  -0.76186  -0.75850
 Alpha  occ. eigenvalues --   -0.75759  -0.75198  -0.74577  -0.73780  -0.72168
 Alpha  occ. eigenvalues --   -0.71539  -0.70764  -0.70074  -0.69476  -0.69050
 Alpha  occ. eigenvalues --   -0.67776  -0.67375  -0.65977  -0.65826  -0.64857
 Alpha  occ. eigenvalues --   -0.64817  -0.64628  -0.64341  -0.63573  -0.62631
 Alpha  occ. eigenvalues --   -0.62186  -0.61461  -0.60839  -0.60333  -0.59408
 Alpha  occ. eigenvalues --   -0.59020  -0.58367  -0.57910  -0.57312  -0.56845
 Alpha  occ. eigenvalues --   -0.56503  -0.56229  -0.55719  -0.55240  -0.55103
 Alpha  occ. eigenvalues --   -0.54851  -0.54110  -0.54010  -0.53857  -0.52930
 Alpha  occ. eigenvalues --   -0.52618  -0.52572  -0.52367  -0.52120  -0.52047
 Alpha  occ. eigenvalues --   -0.51756  -0.51252  -0.51069  -0.50962  -0.50824
 Alpha  occ. eigenvalues --   -0.50709  -0.50461  -0.50175  -0.49733  -0.49673
 Alpha  occ. eigenvalues --   -0.49471  -0.49347  -0.49210  -0.49144  -0.48847
 Alpha  occ. eigenvalues --   -0.48088  -0.47950  -0.47454  -0.47307  -0.47146
 Alpha  occ. eigenvalues --   -0.47061  -0.46771  -0.46429  -0.46328  -0.46043
 Alpha  occ. eigenvalues --   -0.45919  -0.45524  -0.45428  -0.45173  -0.45118
 Alpha  occ. eigenvalues --   -0.44847  -0.44409  -0.44146  -0.44092  -0.44044
 Alpha  occ. eigenvalues --   -0.43864  -0.43707  -0.43512  -0.43459  -0.43167
 Alpha  occ. eigenvalues --   -0.43097  -0.42817  -0.42713  -0.42492  -0.42300
 Alpha  occ. eigenvalues --   -0.41912  -0.41803  -0.41740  -0.41475  -0.41338
 Alpha  occ. eigenvalues --   -0.41134  -0.41058  -0.41018  -0.40907  -0.40714
 Alpha  occ. eigenvalues --   -0.40683  -0.40312  -0.40024  -0.39708  -0.39694
 Alpha  occ. eigenvalues --   -0.39162  -0.38917  -0.38327  -0.38051  -0.37603
 Alpha  occ. eigenvalues --   -0.37521  -0.37394  -0.36988  -0.36857  -0.36673
 Alpha  occ. eigenvalues --   -0.36553  -0.36306  -0.36097  -0.36005  -0.35830
 Alpha  occ. eigenvalues --   -0.35702  -0.35475  -0.34758  -0.34565  -0.33551
 Alpha  occ. eigenvalues --   -0.33483  -0.33330  -0.31855  -0.31008  -0.29301
 Alpha  occ. eigenvalues --   -0.29194  -0.28826  -0.28024  -0.26768  -0.22582
 Alpha  occ. eigenvalues --   -0.20330
 Alpha virt. eigenvalues --   -0.07031  -0.02376   0.00874   0.03296   0.05238
 Alpha virt. eigenvalues --    0.06103   0.06227   0.06421   0.06861   0.06994
 Alpha virt. eigenvalues --    0.08753   0.10721   0.11340   0.11508   0.11727

 Mulliken charges:
               1
     1  Mg   0.822166
     2  C    0.114842
     3  C   -0.204129
     4  C   -0.211863
     5  C   -0.148776
     6  N   -0.604820
     7  C    0.265386
     8  C   -0.118920
     9  C   -0.142163
    10  C    0.308219
    11  C   -0.302980
    12  C   -0.209795
    13  C   -0.252396
    14  C    0.610140
    15  O   -0.468561
    16  O   -0.474301
    17  N   -0.688103
    18  C    0.300797
    19  C   -0.019050
    20  C    0.036843
    21  C    0.287509
    22  C   -0.342392
    23  C   -0.095610
    24  C   -0.231109
    25  N   -0.699034
    26  C    0.362757
    27  C   -0.001675
    28  C    0.023427
    29  C    0.305418
    30  C   -0.358191
    31  C   -0.221962
    32  C   -0.301253
    33  N   -0.724404
    34  C    0.287190
    35  C   -0.015751
    36  C    0.127141
    37  C    0.202170
    38  C   -0.382385
    39  C    0.308461
    40  O   -0.514985
    41  C   -0.333951
    42  C    0.620582
    43  O   -0.474544
    44  O   -0.424506
    45  C   -0.054088
    46  C    0.025688
    47  C   -0.113153
    48  C    0.125969
    49  C   -0.358436
    50  C   -0.251534
    51  C   -0.189582
    52  C   -0.193302
    53  C   -0.060141
    54  C   -0.294640
    55  C   -0.171685
    56  C   -0.185781
    57  C   -0.165602
    58  C   -0.063864
    59  C   -0.320243
    60  C   -0.164151
    61  C   -0.169625
    62  C   -0.178851
    63  C   -0.045439
    64  C   -0.306467
    65  C   -0.329473
    66  H    0.082454
    67  H    0.075773
    68  H    0.050410
    69  H    0.120032
    70  H    0.107454
    71  H    0.115356
    72  H    0.118167
    73  H    0.098472
    74  H    0.096092
    75  H    0.129896
    76  H    0.144824
    77  H    0.145008
    78  H    0.093929
    79  H    0.122148
    80  H    0.119056
    81  H    0.101105
    82  H    0.095874
    83  H    0.120278
    84  H    0.125225
    85  H    0.103123
    86  H    0.127051
    87  H    0.119308
    88  H    0.089459
    89  H    0.094144
    90  H    0.103171
    91  H    0.128313
    92  H    0.122352
    93  H    0.143111
    94  H    0.126603
    95  H    0.158223
    96  H    0.127504
    97  H    0.111957
    98  H    0.125162
    99  H    0.121030
   100  H    0.102192
   101  H    0.068818
   102  H    0.114536
   103  H    0.124441
   104  H    0.124938
   105  H    0.111040
   106  H    0.086736
   107  H    0.111231
   108  H    0.102994
   109  H    0.097337
   110  H    0.078130
   111  H    0.095404
   112  H    0.087607
   113  H    0.096824
   114  H    0.069636
   115  H    0.074421
   116  H    0.104830
   117  H    0.087284
   118  H    0.078030
   119  H    0.091329
   120  H    0.097375
   121  H    0.069977
   122  H    0.094789
   123  H    0.092655
   124  H    0.106398
   125  H    0.086753
   126  H    0.106973
   127  H    0.094167
   128  H    0.046257
   129  H    0.101780
   130  H    0.091004
   131  H    0.109179
   132  H    0.093932
   133  H    0.109108
   134  H    0.108273
   135  H    0.073500
   136  H    0.077802
   137  H    0.119215
 Sum of Mulliken charges =   0.00000

 Dipole moment (field-independent basis, Debye):
    X=              2.8255    Y=              5.0172    Z=              0.9204  Tot=              5.8312
 Quadrupole moment (field-independent basis, Debye-Ang):
   XX=           -352.7920   YY=           -400.8586   ZZ=           -395.2742
   XY=            -21.1052   XZ=             18.1607   YZ=             -3.4304

 Normal termination of Gaussian 09 at Mon Jul  1 02:52:44 2019.
