 Gaussian 09, Revision D.01,
 Gaussian 09:  ES64L-G09RevD.01 24-Apr-2013

 -------------------------------------
 # td=(NStates=1) CAM-B3LYP/6-31G(d,p)
 -------------------------------------

 --
 TD
 --
 Symbolic Z-matrix:
 Charge =  0 Multiplicity = 1

                         Standard orientation:
 ---------------------------------------------------------------------
 Center     Atomic      Atomic             Coordinates (Angstroms)
 Number     Number       Type             X           Y           Z
 ---------------------------------------------------------------------
      1         12           0       -7.117378    0.562734    0.031087
      2          6           0       -4.897035   -1.898805    0.413564
      3          6           0       -4.837830    2.884279    1.168417
      4          6           0       -9.335534    3.033297   -0.373000
      5          6           0       -9.478958   -1.842608   -0.829439
      6          7           0       -5.176049    0.401200    0.663272
      7          6           0       -4.338942   -0.660175    0.672796
      8          6           0       -2.948555   -0.400524    1.084107
      9          6           0       -3.069741    1.120856    1.586088
     10          6           0       -4.439309    1.528893    1.044582
     11          6           0       -2.839398    1.250220    3.130598
     12          6           0       -1.912775   -0.493709   -0.008403
     13          6           0       -0.430008   -0.334637    0.494836
     14          6           0        0.498868   -0.498459   -0.703580
     15          8           0        0.255266   -0.921843   -1.829014
     16          8           0        1.763519   -0.154922   -0.366510
     17          7           0       -7.152329    2.612754    0.284505
     18          6           0       -6.132782    3.405744    0.769344
     19          6           0       -6.475553    4.750695    0.862393
     20          6           0       -7.837074    4.825251    0.413162
     21          6           0       -8.185986    3.484690    0.151820
     22          6           0       -5.783649    5.961835    1.409584
     23          6           0       -8.715524    5.937074    0.282360
     24          6           0       -8.380888    7.274230    0.220973
     25          7           0       -9.110967    0.582764   -0.457198
     26          6           0       -9.835202    1.760329   -0.643423
     27          6           0      -11.216700    1.380419   -1.001394
     28          6           0      -11.307297    0.031597   -1.113083
     29          6           0       -9.885199   -0.480580   -0.780780
     30          6           0      -12.276266    2.296754   -1.502941
     31          6           0      -12.354836   -0.951293   -1.606041
     32          6           0      -12.303502   -1.367044   -3.110665
     33          7           0       -7.215386   -1.424891   -0.152149
     34          6           0       -8.184197   -2.322620   -0.548565
     35          6           0       -7.792593   -3.663623   -0.564625
     36          6           0       -6.445332   -3.687454   -0.220011
     37          6           0       -6.188967   -2.240433    0.057797
     38          6           0       -8.582014   -4.850484   -0.835525
     39          6           0       -5.261993   -4.402100    0.174173
     40          8           0       -5.034558   -5.556536    0.193432
     41          6           0       -4.187356   -3.283246    0.634966
     42          6           0       -3.513094   -3.580345    1.913723
     43          8           0       -3.815086   -3.073348    3.009084
     44          8           0       -2.606702   -4.568776    1.831382
     45          6           0       -1.995631   -5.148917    3.022694
     46          6           0        2.727017   -0.452821   -1.309211
     47          6           0        4.083834   -0.377638   -0.576835
     48          6           0        5.096374    0.434180   -0.938509
     49          6           0        5.128847    1.323045   -2.160600
     50          6           0        6.298548    0.436922   -0.175181
     51          6           0        7.616023   -0.147990   -0.896646
     52          6           0        8.891291   -0.016406   -0.109249
     53          6           0       10.138507   -0.498160   -0.817970
     54          6           0        9.947738   -1.981946   -1.253323
     55          6           0       11.376334   -0.357868    0.102765
     56          6           0       12.711246   -0.436217   -0.525599
     57          6           0       13.979688   -0.148880    0.368257
     58          6           0       15.296896   -0.281049   -0.365465
     59          6           0       15.635310   -1.619734   -0.960967
     60          6           0       16.465172    0.287829    0.434516
     61          6           0       17.806042    0.592647   -0.183178
     62          6           0       18.887141    1.255759    0.786738
     63          6           0       20.351756    1.219989    0.138193
     64          6           0       20.466675    2.026158   -1.190019
     65          6           0       21.286595    1.854005    1.238598
     66          1           0       -4.055963    3.446640    1.781276
     67          1           0      -10.215451    3.791719   -0.318515
     68          1           0      -10.144805   -2.628046   -0.958282
     69          1           0       -2.587740   -0.878806    2.117460
     70          1           0       -2.186662    1.747363    1.231539
     71          1           0       -1.889756    0.773510    3.453522
     72          1           0       -2.922191    2.344443    3.387380
     73          1           0       -3.832220    0.792301    3.482843
     74          1           0       -1.787438   -1.577957   -0.416894
     75          1           0       -2.156812   -0.106262   -0.948893
     76          1           0       -0.390302    0.699948    0.754372
     77          1           0       -0.195939   -1.040752    1.220616
     78          1           0       -5.341952    6.499452    0.683451
     79          1           0       -6.366492    6.669963    1.792444
     80          1           0       -5.012079    5.601555    2.107757
     81          1           0       -9.727692    5.801859    0.390640
     82          1           0       -9.118920    8.219793    0.092276
     83          1           0       -7.372772    7.709516    0.138877
     84          1           0      -12.023859    2.693516   -2.564163
     85          1           0      -13.313000    1.912626   -1.633240
     86          1           0      -12.194784    3.202415   -0.736178
     87          1           0      -12.209480   -1.766394   -0.883208
     88          1           0      -13.240459   -0.394956   -1.278653
     89          1           0      -13.302279   -2.003157   -3.336882
     90          1           0      -12.049735   -0.341267   -3.555041
     91          1           0      -11.438489   -1.990197   -3.257454
     92          1           0       -8.991146   -4.884993   -1.801223
     93          1           0       -7.692205   -5.733328   -0.657449
     94          1           0       -9.340215   -4.887640   -0.371172
     95          1           0       -3.488805   -3.448833   -0.226150
     96          1           0       -1.318460   -4.326087    3.289226
     97          1           0       -2.632706   -5.185308    3.777662
     98          1           0       -1.398327   -6.069236    2.801131
     99          1           0        2.727886   -1.508848   -1.636630
    100          1           0        2.533113    0.103944   -2.137913
    101          1           0        4.037414   -0.979782    0.299139
    102          1           0        4.054005    1.410824   -2.797418
    103          1           0        5.388078    2.326077   -1.962939
    104          1           0        5.764332    0.974559   -3.015382
    105          1           0        6.694555    1.231505    0.112100
    106          1           0        6.214335   -0.235938    0.702329
    107          1           0        7.222931   -1.165183   -1.197193
    108          1           0        7.751017    0.312225   -1.796049
    109          1           0        9.063833    0.995962    0.314483
    110          1           0        8.924864   -0.530998    0.744405
    111          1           0       10.145766    0.185920   -1.675961
    112          1           0        9.109209   -2.107210   -1.953519
    113          1           0       10.881316   -2.365416   -1.514539
    114          1           0        9.897258   -2.503946   -0.471536
    115          1           0       11.256814    0.599805    0.591327
    116          1           0       11.329537   -1.069596    0.924545
    117          1           0       12.953286   -1.493401   -1.093069
    118          1           0       12.581811    0.289554   -1.417739
    119          1           0       13.938883    0.862406    0.831340
    120          1           0       14.066180   -0.976110    1.118044
    121          1           0       15.173581    0.479666   -1.246283
    122          1           0       15.903237   -2.290655   -0.061087
    123          1           0       14.735029   -1.963127   -1.507326
    124          1           0       16.575887   -1.663781   -1.527040
    125          1           0       16.234589    1.186959    0.777486
    126          1           0       16.624168   -0.506039    1.311716
    127          1           0       18.150880   -0.462085   -0.534831
    128          1           0       17.601262    1.124740   -1.162841
    129          1           0       18.590201    2.301632    1.071729
    130          1           0       18.743936    0.544840    1.597891
    131          1           0       20.550309    0.142722   -0.206255
    132          1           0       20.366894    3.239117   -0.869193
    133          1           0       21.308694    1.954912   -1.625116
    134          1           0       19.831056    1.908047   -2.224876
    135          1           0       21.167573    1.015798    1.954320
    136          1           0       22.448372    1.759533    0.923169
    137          1           0       20.968082    2.890162    1.715716
 ---------------------------------------------------------------------

 SCF Done:  E(RCAM-B3LYP) =  -2932.63568526     A.U. after   16 cycles

 Excitation energies and oscillator strengths:

 Excited State   1:      Singlet-A      1.9634 eV  631.49 nm  f=0.3040  <S**2>=0.000
     240 -> 243        0.23510
     241 -> 242        0.66074
 This state for optimization and/or second-order correction.
 Total Energy, E(TD-HF/TD-KS) =  -2932.56353305
 Copying the excited state density for this state as the 1-particle RhoCI density.

 The electronic state is 1-A.
 Alpha  occ. eigenvalues --  -46.84157 -19.26139 -19.25557 -19.21292 -19.20960
 Alpha  occ. eigenvalues --  -19.19434 -14.42165 -14.40002 -14.39459 -14.39156
 Alpha  occ. eigenvalues --  -10.39550 -10.38878 -10.35580 -10.30869 -10.30854
 Alpha  occ. eigenvalues --  -10.30849 -10.30153 -10.29621 -10.29602 -10.29519
 Alpha  occ. eigenvalues --  -10.29043 -10.28913 -10.28583 -10.28316 -10.28198
 Alpha  occ. eigenvalues --  -10.28150 -10.28015 -10.27813 -10.27775 -10.27695
 Alpha  occ. eigenvalues --  -10.27516 -10.27372 -10.27274 -10.27271 -10.27135
 Alpha  occ. eigenvalues --  -10.27118 -10.27024 -10.26953 -10.26935 -10.26869
 Alpha  occ. eigenvalues --  -10.26840 -10.26754 -10.26595 -10.26547 -10.26488
 Alpha  occ. eigenvalues --  -10.26430 -10.26261 -10.26259 -10.26239 -10.26037
 Alpha  occ. eigenvalues --  -10.25946 -10.25824 -10.25761 -10.25615 -10.25579
 Alpha  occ. eigenvalues --  -10.25339 -10.25178 -10.24931 -10.24920 -10.24781
 Alpha  occ. eigenvalues --  -10.24020 -10.23935 -10.23795 -10.23613 -10.22111
 Alpha  occ. eigenvalues --   -3.13328  -1.88022  -1.87556  -1.87538  -1.19299
 Alpha  occ. eigenvalues --   -1.16712  -1.13783  -1.09158  -1.06654  -1.05312
 Alpha  occ. eigenvalues --   -1.04077  -1.03498  -1.02006  -0.91898  -0.91778
 Alpha  occ. eigenvalues --   -0.90783  -0.90259  -0.89924  -0.89741  -0.89123
 Alpha  occ. eigenvalues --   -0.88716  -0.88236  -0.87428  -0.87038  -0.86211
 Alpha  occ. eigenvalues --   -0.85152  -0.84438  -0.83646  -0.83014  -0.82669
 Alpha  occ. eigenvalues --   -0.81867  -0.81488  -0.80703  -0.80273  -0.79132
 Alpha  occ. eigenvalues --   -0.78452  -0.77141  -0.76851  -0.76766  -0.75881
 Alpha  occ. eigenvalues --   -0.75510  -0.75410  -0.74479  -0.73939  -0.73444
 Alpha  occ. eigenvalues --   -0.71556  -0.70908  -0.69866  -0.69311  -0.68810
 Alpha  occ. eigenvalues --   -0.67445  -0.66865  -0.65525  -0.64615  -0.64511
 Alpha  occ. eigenvalues --   -0.64003  -0.63907  -0.63590  -0.62603  -0.61976
 Alpha  occ. eigenvalues --   -0.61867  -0.61103  -0.60873  -0.60621  -0.59619
 Alpha  occ. eigenvalues --   -0.58915  -0.58571  -0.57963  -0.57626  -0.57078
 Alpha  occ. eigenvalues --   -0.56124  -0.55813  -0.55383  -0.55136  -0.54976
 Alpha  occ. eigenvalues --   -0.54945  -0.54615  -0.54126  -0.53373  -0.53339
 Alpha  occ. eigenvalues --   -0.53195  -0.52940  -0.52675  -0.51821  -0.51811
 Alpha  occ. eigenvalues --   -0.51710  -0.51514  -0.51394  -0.51204  -0.50810
 Alpha  occ. eigenvalues --   -0.50556  -0.50315  -0.49865  -0.49719  -0.49652
 Alpha  occ. eigenvalues --   -0.49395  -0.49131  -0.48934  -0.48665  -0.48620
 Alpha  occ. eigenvalues --   -0.48320  -0.48186  -0.47880  -0.47712  -0.47561
 Alpha  occ. eigenvalues --   -0.47416  -0.47328  -0.46899  -0.46343  -0.46196
 Alpha  occ. eigenvalues --   -0.45887  -0.45766  -0.45746  -0.45630  -0.45310
 Alpha  occ. eigenvalues --   -0.45123  -0.44667  -0.44552  -0.44206  -0.44161
 Alpha  occ. eigenvalues --   -0.43968  -0.43847  -0.43789  -0.43546  -0.43404
 Alpha  occ. eigenvalues --   -0.43154  -0.42927  -0.42379  -0.42309  -0.42134
 Alpha  occ. eigenvalues --   -0.41808  -0.41747  -0.41675  -0.41611  -0.41176
 Alpha  occ. eigenvalues --   -0.40975  -0.40625  -0.40608  -0.40337  -0.40254
 Alpha  occ. eigenvalues --   -0.39959  -0.39745  -0.39612  -0.39340  -0.39121
 Alpha  occ. eigenvalues --   -0.38744  -0.38560  -0.38466  -0.38043  -0.37837
 Alpha  occ. eigenvalues --   -0.37372  -0.37250  -0.37168  -0.36811  -0.36780
 Alpha  occ. eigenvalues --   -0.36578  -0.36280  -0.36127  -0.35791  -0.35572
 Alpha  occ. eigenvalues --   -0.35038  -0.34523  -0.34429  -0.34131  -0.34019
 Alpha  occ. eigenvalues --   -0.33785  -0.32713  -0.32174  -0.31136  -0.30435
 Alpha  occ. eigenvalues --   -0.30056  -0.29051  -0.28615  -0.26695  -0.22929
 Alpha  occ. eigenvalues --   -0.21326
 Alpha virt. eigenvalues --   -0.07148  -0.02754   0.01305   0.04125   0.05538
 Alpha virt. eigenvalues --    0.05708   0.05831   0.06562   0.06905   0.07460
 Alpha virt. eigenvalues --    0.08312   0.10208   0.11122   0.11407   0.11997

 Mulliken charges:
               1
     1  Mg   0.818233
     2  C    0.031326
     3  C   -0.205778
     4  C   -0.194163
     5  C   -0.179918
     6  N   -0.651477
     7  C    0.338065
     8  C   -0.163177
     9  C   -0.168534
    10  C    0.330944
    11  C   -0.305763
    12  C   -0.190102
    13  C   -0.256489
    14  C    0.593235
    15  O   -0.478904
    16  O   -0.456076
    17  N   -0.696050
    18  C    0.292817
    19  C    0.003615
    20  C    0.043580
    21  C    0.319169
    22  C   -0.356539
    23  C   -0.082140
    24  C   -0.264098
    25  N   -0.672363
    26  C    0.289917
    27  C    0.006787
    28  C    0.000366
    29  C    0.285701
    30  C   -0.360210
    31  C   -0.228635
    32  C   -0.294885
    33  N   -0.704189
    34  C    0.280333
    35  C    0.018718
    36  C    0.031538
    37  C    0.262430
    38  C   -0.336510
    39  C    0.350533
    40  O   -0.423994
    41  C   -0.315219
    42  C    0.619784
    43  O   -0.509365
    44  O   -0.465614
    45  C   -0.073993
    46  C    0.025447
    47  C   -0.163213
    48  C    0.165074
    49  C   -0.371880
    50  C   -0.219972
    51  C   -0.208781
    52  C   -0.169741
    53  C   -0.076040
    54  C   -0.298633
    55  C   -0.184073
    56  C   -0.166430
    57  C   -0.160701
    58  C   -0.058670
    59  C   -0.304260
    60  C   -0.150645
    61  C   -0.193245
    62  C   -0.165807
    63  C   -0.064778
    64  C   -0.277728
    65  C   -0.300287
    66  H    0.089726
    67  H    0.075096
    68  H    0.076713
    69  H    0.127976
    70  H    0.095345
    71  H    0.115669
    72  H    0.102240
    73  H    0.124750
    74  H    0.104731
    75  H    0.135722
    76  H    0.143200
    77  H    0.151409
    78  H    0.132278
    79  H    0.131275
    80  H    0.103123
    81  H    0.101811
    82  H    0.093434
    83  H    0.100604
    84  H    0.119495
    85  H    0.118943
    86  H    0.095474
    87  H    0.105779
    88  H    0.103724
    89  H    0.102990
    90  H    0.115182
    91  H    0.119387
    92  H    0.126506
    93  H    0.128595
    94  H    0.127636
    95  H    0.157193
    96  H    0.118587
    97  H    0.150065
    98  H    0.133943
    99  H    0.113687
   100  H    0.115426
   101  H    0.097602
   102  H    0.078645
   103  H    0.127838
   104  H    0.124500
   105  H    0.101807
   106  H    0.094612
   107  H    0.093217
   108  H    0.101197
   109  H    0.079356
   110  H    0.099040
   111  H    0.077647
   112  H    0.105862
   113  H    0.095736
   114  H    0.109010
   115  H    0.091294
   116  H    0.089451
   117  H    0.067214
   118  H    0.082178
   119  H    0.094380
   120  H    0.086566
   121  H    0.061016
   122  H    0.081328
   123  H    0.102606
   124  H    0.112926
   125  H    0.094495
   126  H    0.052884
   127  H    0.067768
   128  H    0.089269
   129  H    0.092994
   130  H    0.103580
   131  H    0.092256
   132  H    0.055571
   133  H    0.120514
   134  H    0.074962
   135  H    0.111271
   136  H    0.085004
   137  H    0.108150
 Sum of Mulliken charges =   0.00000

 Dipole moment (field-independent basis, Debye):
    X=              1.5047    Y=              2.9491    Z=              0.3630  Tot=              3.3306
 Quadrupole moment (field-independent basis, Debye-Ang):
   XX=           -338.2106   YY=           -389.8466   ZZ=           -401.1156
   XY=            -11.7255   XZ=             20.1021   YZ=             -1.1647

 Normal termination of Gaussian 09 at Thu Jun 27 19:56:50 2019.
