 Gaussian 09, Revision D.01,
 Gaussian 09:  ES64L-G09RevD.01 24-Apr-2013

 -------------------------------------
 # td=(NStates=1) CAM-B3LYP/6-31G(d,p)
 -------------------------------------

 --
 TD
 --
 Symbolic Z-matrix:
 Charge =  0 Multiplicity = 1

                         Standard orientation:
 ---------------------------------------------------------------------
 Center     Atomic      Atomic             Coordinates (Angstroms)
 Number     Number       Type             X           Y           Z
 ---------------------------------------------------------------------
      1         12           0       -7.231303    0.553557    0.159191
      2          6           0       -4.835371   -1.887714    0.496203
      3          6           0       -4.914956    2.793067    1.268030
      4          6           0       -9.399706    3.033985   -0.348132
      5          6           0       -9.446119   -1.773146   -0.889643
      6          7           0       -5.160919    0.437776    0.747847
      7          6           0       -4.428665   -0.680149    0.859951
      8          6           0       -2.910810   -0.293497    1.198084
      9          6           0       -3.029893    1.143309    1.653047
     10          6           0       -4.424249    1.543280    1.097461
     11          6           0       -2.957921    1.281921    3.277951
     12          6           0       -2.010612   -0.401936   -0.039414
     13          6           0       -0.483758   -0.170153    0.395710
     14          6           0        0.515294   -0.476812   -0.683583
     15          8           0        0.283444   -0.864409   -1.862644
     16          8           0        1.684992   -0.103880   -0.311156
     17          7           0       -7.199350    2.537855    0.431425
     18          6           0       -6.144406    3.330886    0.809695
     19          6           0       -6.487216    4.717819    0.890467
     20          6           0       -7.716714    4.788194    0.442344
     21          6           0       -8.216215    3.443902    0.133648
     22          6           0       -5.592245    5.894902    1.393220
     23          6           0       -8.641729    5.992250    0.271425
     24          6           0       -8.174031    7.273033    0.109688
     25          7           0       -9.157634    0.571976   -0.494968
     26          6           0       -9.865301    1.696436   -0.665607
     27          6           0      -11.205234    1.392229   -1.132475
     28          6           0      -11.249085    0.088932   -1.287794
     29          6           0      -10.005638   -0.433892   -0.790930
     30          6           0      -12.165192    2.487442   -1.464643
     31          6           0      -12.374707   -0.794576   -1.690285
     32          6           0      -12.316473   -1.275865   -3.108882
     33          7           0       -7.254703   -1.476902   -0.123943
     34          6           0       -8.262146   -2.275101   -0.528992
     35          6           0       -7.780119   -3.654678   -0.587111
     36          6           0       -6.462547   -3.622751   -0.071393
     37          6           0       -6.147718   -2.194384    0.148120
     38          6           0       -8.594889   -4.977875   -0.786580
     39          6           0       -5.293975   -4.398091    0.190450
     40          8           0       -5.166884   -5.586883    0.189578
     41          6           0       -4.133467   -3.252265    0.543736
     42          6           0       -3.575817   -3.666582    1.914940
     43          8           0       -3.729817   -3.173297    3.072374
     44          8           0       -2.775734   -4.728508    1.700457
     45          6           0       -2.093745   -5.255816    2.820631
     46          6           0        2.709809   -0.483439   -1.288689
     47          6           0        4.134221   -0.394790   -0.563735
     48          6           0        5.160197    0.406254   -1.012229
     49          6           0        5.158985    1.278287   -2.187000
     50          6           0        6.450411    0.442493   -0.196135
     51          6           0        7.588443   -0.234230   -1.012799
     52          6           0        8.908876   -0.023549   -0.263517
     53          6           0       10.179236   -0.585035   -0.919973
     54          6           0       10.102995   -2.134797   -1.131263
     55          6           0       11.458280   -0.275737   -0.103519
     56          6           0       12.798718   -0.568392   -0.786391
     57          6           0       13.959299   -0.121245    0.118340
     58          6           0       15.389828   -0.265702   -0.456459
     59          6           0       15.735294   -1.762421   -0.895129
     60          6           0       16.440875    0.351297    0.553861
     61          6           0       17.864513    0.531836   -0.083440
     62          6           0       18.863700    1.170833    0.809676
     63          6           0       20.332600    1.287293    0.223699
     64          6           0       20.307092    2.111906   -0.997022
     65          6           0       21.266791    1.923757    1.282876
     66          1           0       -4.063776    3.407796    1.322862
     67          1           0      -10.185454    3.734700   -0.626713
     68          1           0      -10.400321   -2.546122   -0.844592
     69          1           0       -2.509880   -0.915908    1.970311
     70          1           0       -2.263519    1.586135    1.023568
     71          1           0       -1.991775    0.634377    3.566681
     72          1           0       -3.070216    2.432332    3.498974
     73          1           0       -3.850193    0.845777    3.845128
     74          1           0       -1.954745   -1.420234   -0.526801
     75          1           0       -2.215833    0.261289   -0.729525
     76          1           0       -0.396733    1.021051    0.835968
     77          1           0       -0.118287   -0.841081    1.236960
     78          1           0       -4.977466    6.517815    0.685565
     79          1           0       -6.314247    6.636798    1.776702
     80          1           0       -4.953243    5.566187    2.196449
     81          1           0       -9.701332    5.734027    0.572973
     82          1           0       -8.787078    8.171578    0.098872
     83          1           0       -7.190673    7.462733   -0.292712
     84          1           0      -12.006260    2.967750   -2.515119
     85          1           0      -13.113585    2.010783   -1.551091
     86          1           0      -12.331881    3.296308   -0.662568
     87          1           0      -12.149011   -1.729603   -1.257157
     88          1           0      -13.413475   -0.249277   -1.566779
     89          1           0      -13.208972   -1.741646   -3.322300
     90          1           0      -12.265337   -0.333697   -3.636275
     91          1           0      -11.678492   -2.038707   -3.422307
     92          1           0       -9.249108   -5.009793   -1.594283
     93          1           0       -7.909562   -5.761350   -0.899931
     94          1           0       -9.401772   -4.924845    0.047764
     95          1           0       -3.308464   -3.185299   -0.149371
     96          1           0       -1.445456   -4.449197    3.144124
     97          1           0       -2.811406   -5.691885    3.447850
     98          1           0       -1.474599   -6.140603    2.489126
     99          1           0        2.694385   -1.617914   -1.609217
    100          1           0        2.631226    0.427713   -1.994850
    101          1           0        4.287106   -0.871111    0.337104
    102          1           0        4.068590    1.385160   -2.507263
    103          1           0        5.313054    2.249345   -1.826198
    104          1           0        5.953022    1.019289   -2.911232
    105          1           0        6.655523    1.516190   -0.197059
    106          1           0        6.291379    0.093131    0.874181
    107          1           0        7.161025   -1.131718   -1.211237
    108          1           0        7.593476    0.356359   -1.991413
    109          1           0        8.935265    1.047685   -0.129311
    110          1           0        8.799679   -0.548207    0.572234
    111          1           0       10.221635    0.020175   -1.867347
    112          1           0        9.275071   -2.574481   -1.497101
    113          1           0       10.959587   -2.415669   -1.758093
    114          1           0       10.471114   -2.822726   -0.191353
    115          1           0       11.622003    0.868362    0.043202
    116          1           0       11.574040   -0.736037    1.004056
    117          1           0       12.764510   -1.631358   -0.976771
    118          1           0       12.934621    0.097043   -1.714244
    119          1           0       13.775654    1.046726    0.129976
    120          1           0       14.099883   -0.490341    1.264419
    121          1           0       15.450613    0.358830   -1.394438
    122          1           0       15.606410   -2.404957    0.118939
    123          1           0       15.048473   -2.105572   -1.606238
    124          1           0       16.705790   -1.790806   -1.261160
    125          1           0       16.103949    1.470555    1.028390
    126          1           0       16.250368   -0.405057    1.352664
    127          1           0       18.188337   -0.504552   -0.373833
    128          1           0       17.804234    1.203909   -1.054601
    129          1           0       18.404929    2.099360    1.160352
    130          1           0       19.074586    0.560071    1.692070
    131          1           0       20.601635    0.042820    0.053809
    132          1           0       19.847465    3.129378   -0.777987
    133          1           0       21.188825    2.484699   -1.268547
    134          1           0       19.838352    1.268661   -1.894727
    135          1           0       21.106766    1.173087    2.198092
    136          1           0       22.372205    1.910706    0.891779
    137          1           0       20.944513    3.005736    1.405961
 ---------------------------------------------------------------------

 SCF Done:  E(RCAM-B3LYP) =  -2932.68541396     A.U. after   15 cycles

 Excitation energies and oscillator strengths:

 Excited State   1:      Singlet-A      2.1665 eV  572.28 nm  f=0.2279  <S**2>=0.000
     240 -> 243        0.27149
     241 -> 242        0.64207
 This state for optimization and/or second-order correction.
 Total Energy, E(TD-HF/TD-KS) =  -2932.60579617
 Copying the excited state density for this state as the 1-particle RhoCI density.

 The electronic state is 1-A.
 Alpha  occ. eigenvalues --  -46.84077 -19.27235 -19.25544 -19.20826 -19.20053
 Alpha  occ. eigenvalues --  -19.19544 -14.40794 -14.39718 -14.39063 -14.38976
 Alpha  occ. eigenvalues --  -10.39126 -10.38819 -10.35355 -10.34007 -10.30435
 Alpha  occ. eigenvalues --  -10.30390 -10.30246 -10.29927 -10.29619 -10.29495
 Alpha  occ. eigenvalues --  -10.29068 -10.28893 -10.28828 -10.28659 -10.28623
 Alpha  occ. eigenvalues --  -10.28583 -10.28509 -10.28220 -10.28095 -10.27590
 Alpha  occ. eigenvalues --  -10.27519 -10.27280 -10.27207 -10.27120 -10.27085
 Alpha  occ. eigenvalues --  -10.26988 -10.26945 -10.26869 -10.26837 -10.26806
 Alpha  occ. eigenvalues --  -10.26744 -10.26740 -10.26685 -10.26521 -10.26312
 Alpha  occ. eigenvalues --  -10.26242 -10.26151 -10.26094 -10.26055 -10.26015
 Alpha  occ. eigenvalues --  -10.25890 -10.25758 -10.25725 -10.25541 -10.25491
 Alpha  occ. eigenvalues --  -10.25337 -10.25293 -10.25220 -10.25125 -10.25001
 Alpha  occ. eigenvalues --  -10.24831 -10.24430 -10.24253 -10.24056 -10.23011
 Alpha  occ. eigenvalues --   -3.13168  -1.87878  -1.87416  -1.87337  -1.20207
 Alpha  occ. eigenvalues --   -1.17293  -1.12285  -1.06333  -1.06137  -1.04857
 Alpha  occ. eigenvalues --   -1.03938  -1.03801  -1.02747  -0.92317  -0.91594
 Alpha  occ. eigenvalues --   -0.89990  -0.89842  -0.89679  -0.89387  -0.89005
 Alpha  occ. eigenvalues --   -0.88518  -0.87788  -0.87243  -0.86463  -0.85568
 Alpha  occ. eigenvalues --   -0.84798  -0.84280  -0.84077  -0.82703  -0.82571
 Alpha  occ. eigenvalues --   -0.81542  -0.81231  -0.80490  -0.80132  -0.78518
 Alpha  occ. eigenvalues --   -0.77648  -0.77461  -0.76390  -0.75752  -0.75502
 Alpha  occ. eigenvalues --   -0.75208  -0.74808  -0.73961  -0.73057  -0.72650
 Alpha  occ. eigenvalues --   -0.71586  -0.70428  -0.69821  -0.68785  -0.68481
 Alpha  occ. eigenvalues --   -0.67526  -0.66595  -0.65489  -0.65250  -0.64261
 Alpha  occ. eigenvalues --   -0.63832  -0.62323  -0.62096  -0.61667  -0.61523
 Alpha  occ. eigenvalues --   -0.60442  -0.60426  -0.60049  -0.59575  -0.59520
 Alpha  occ. eigenvalues --   -0.58656  -0.58265  -0.57614  -0.57113  -0.56733
 Alpha  occ. eigenvalues --   -0.56172  -0.55911  -0.55708  -0.55073  -0.54903
 Alpha  occ. eigenvalues --   -0.54246  -0.54052  -0.53888  -0.53756  -0.53460
 Alpha  occ. eigenvalues --   -0.53073  -0.53012  -0.51961  -0.51800  -0.51569
 Alpha  occ. eigenvalues --   -0.51427  -0.51142  -0.50908  -0.50682  -0.50619
 Alpha  occ. eigenvalues --   -0.50395  -0.49973  -0.49766  -0.49453  -0.49116
 Alpha  occ. eigenvalues --   -0.49031  -0.48887  -0.48608  -0.48477  -0.48165
 Alpha  occ. eigenvalues --   -0.48001  -0.47924  -0.47300  -0.47193  -0.47100
 Alpha  occ. eigenvalues --   -0.47036  -0.46843  -0.46412  -0.46197  -0.45944
 Alpha  occ. eigenvalues --   -0.45701  -0.45522  -0.45363  -0.45202  -0.44805
 Alpha  occ. eigenvalues --   -0.44619  -0.44499  -0.44208  -0.44062  -0.44015
 Alpha  occ. eigenvalues --   -0.43822  -0.43757  -0.43511  -0.43226  -0.43034
 Alpha  occ. eigenvalues --   -0.42942  -0.42835  -0.42648  -0.42269  -0.42168
 Alpha  occ. eigenvalues --   -0.42044  -0.41859  -0.41486  -0.41396  -0.41295
 Alpha  occ. eigenvalues --   -0.41033  -0.40907  -0.40596  -0.40372  -0.40303
 Alpha  occ. eigenvalues --   -0.40183  -0.39576  -0.39256  -0.39204  -0.39080
 Alpha  occ. eigenvalues --   -0.38909  -0.38291  -0.38229  -0.37600  -0.37511
 Alpha  occ. eigenvalues --   -0.37387  -0.37096  -0.37032  -0.36739  -0.36459
 Alpha  occ. eigenvalues --   -0.36332  -0.35767  -0.35700  -0.35406  -0.35239
 Alpha  occ. eigenvalues --   -0.35123  -0.34860  -0.34756  -0.33694  -0.33372
 Alpha  occ. eigenvalues --   -0.33115  -0.32647  -0.32340  -0.31145  -0.30084
 Alpha  occ. eigenvalues --   -0.29533  -0.29193  -0.29026  -0.28790  -0.23374
 Alpha  occ. eigenvalues --   -0.21353
 Alpha virt. eigenvalues --   -0.05865  -0.03271   0.01658   0.03957   0.05334
 Alpha virt. eigenvalues --    0.06220   0.06326   0.06439   0.06650   0.07563
 Alpha virt. eigenvalues --    0.08944   0.10368   0.10441   0.11106   0.11427

 Mulliken charges:
               1
     1  Mg   0.822387
     2  C    0.071964
     3  C   -0.187035
     4  C   -0.193406
     5  C   -0.174443
     6  N   -0.622871
     7  C    0.316922
     8  C   -0.144069
     9  C   -0.136148
    10  C    0.289981
    11  C   -0.296098
    12  C   -0.175133
    13  C   -0.271483
    14  C    0.596088
    15  O   -0.519499
    16  O   -0.426848
    17  N   -0.704876
    18  C    0.277735
    19  C    0.025914
    20  C    0.020272
    21  C    0.326975
    22  C   -0.370350
    23  C   -0.072483
    24  C   -0.254175
    25  N   -0.661813
    26  C    0.280022
    27  C    0.026675
    28  C    0.068369
    29  C    0.214753
    30  C   -0.379389
    31  C   -0.251331
    32  C   -0.310215
    33  N   -0.723415
    34  C    0.313054
    35  C   -0.008711
    36  C    0.015298
    37  C    0.283590
    38  C   -0.357462
    39  C    0.358821
    40  O   -0.438182
    41  C   -0.323641
    42  C    0.602440
    43  O   -0.512851
    44  O   -0.434175
    45  C   -0.069410
    46  C    0.010498
    47  C   -0.147061
    48  C    0.098601
    49  C   -0.359357
    50  C   -0.225381
    51  C   -0.185647
    52  C   -0.149055
    53  C   -0.053113
    54  C   -0.325428
    55  C   -0.164756
    56  C   -0.176567
    57  C   -0.155573
    58  C   -0.077067
    59  C   -0.304942
    60  C   -0.155832
    61  C   -0.173170
    62  C   -0.152510
    63  C   -0.049239
    64  C   -0.273569
    65  C   -0.291535
    66  H    0.079106
    67  H    0.086710
    68  H    0.069383
    69  H    0.111318
    70  H    0.098676
    71  H    0.102556
    72  H    0.105628
    73  H    0.134592
    74  H    0.122658
    75  H    0.127581
    76  H    0.111687
    77  H    0.129401
    78  H    0.118997
    79  H    0.128049
    80  H    0.120282
    81  H    0.105227
    82  H    0.109372
    83  H    0.115369
    84  H    0.118093
    85  H    0.110542
    86  H    0.112425
    87  H    0.104201
    88  H    0.097575
    89  H    0.106284
    90  H    0.104210
    91  H    0.115449
    92  H    0.126220
    93  H    0.151244
    94  H    0.125147
    95  H    0.160292
    96  H    0.123324
    97  H    0.139552
    98  H    0.114321
    99  H    0.146378
   100  H    0.127998
   101  H    0.085458
   102  H    0.096560
   103  H    0.129450
   104  H    0.130254
   105  H    0.092827
   106  H    0.095375
   107  H    0.111342
   108  H    0.074554
   109  H    0.093459
   110  H    0.105156
   111  H    0.081874
   112  H    0.116703
   113  H    0.109730
   114  H    0.077508
   115  H    0.069390
   116  H    0.078943
   117  H    0.099049
   118  H    0.090992
   119  H    0.077496
   120  H    0.066083
   121  H    0.071405
   122  H    0.072581
   123  H    0.117160
   124  H    0.113577
   125  H    0.056037
   126  H    0.090237
   127  H    0.087829
   128  H    0.090478
   129  H    0.085676
   130  H    0.084949
   131  H    0.048804
   132  H    0.091730
   133  H    0.107535
   134  H    0.072913
   135  H    0.091313
   136  H    0.094333
   137  H    0.100345
 Sum of Mulliken charges =   0.00000

 Dipole moment (field-independent basis, Debye):
    X=              1.9406    Y=              4.8434    Z=             -0.3050  Tot=              5.2266
 Quadrupole moment (field-independent basis, Debye-Ang):
   XX=           -335.9392   YY=           -383.2541   ZZ=           -407.0724
   XY=            -19.1006   XZ=              6.5107   YZ=             -2.1059

 Normal termination of Gaussian 09 at Mon Jul  1 09:13:40 2019.
