 Gaussian 09, Revision D.01,
 Gaussian 09:  ES64L-G09RevD.01 24-Apr-2013

 -------------------------------------
 # td=(NStates=1) CAM-B3LYP/6-31G(d,p)
 -------------------------------------

 --
 TD
 --
 Symbolic Z-matrix:
 Charge =  0 Multiplicity = 1

                         Standard orientation:
 ---------------------------------------------------------------------
 Center     Atomic      Atomic             Coordinates (Angstroms)
 Number     Number       Type             X           Y           Z
 ---------------------------------------------------------------------
      1         12           0       -7.183767    0.481242    0.072666
      2          6           0       -4.948751   -1.923709    0.490233
      3          6           0       -4.880268    2.738931    1.085741
      4          6           0       -9.465367    3.038283   -0.249606
      5          6           0       -9.476163   -1.821037   -0.922266
      6          7           0       -5.109187    0.364608    0.674364
      7          6           0       -4.316382   -0.629380    0.743534
      8          6           0       -2.889306   -0.387691    1.245984
      9          6           0       -3.020567    1.097684    1.742683
     10          6           0       -4.398586    1.463923    1.170441
     11          6           0       -3.099192    1.114197    3.319100
     12          6           0       -1.934745   -0.554121    0.117108
     13          6           0       -0.442997   -0.287640    0.627940
     14          6           0        0.442515   -0.464788   -0.572092
     15          8           0        0.172745   -0.716579   -1.681119
     16          8           0        1.770475   -0.266125   -0.208284
     17          7           0       -7.209433    2.599878    0.373526
     18          6           0       -6.156212    3.369999    0.803953
     19          6           0       -6.479472    4.851950    0.886129
     20          6           0       -7.783758    4.836643    0.448321
     21          6           0       -8.248924    3.487644    0.168901
     22          6           0       -5.530004    5.953991    1.347896
     23          6           0       -8.634801    6.032796    0.276953
     24          6           0       -8.128047    7.204929   -0.051474
     25          7           0       -9.150014    0.586984   -0.514066
     26          6           0       -9.932650    1.792017   -0.622850
     27          6           0      -11.179646    1.387549   -1.082568
     28          6           0      -11.250450    0.056286   -1.280953
     29          6           0       -9.944478   -0.450288   -0.948776
     30          6           0      -12.252044    2.389850   -1.296215
     31          6           0      -12.236803   -0.873952   -1.789196
     32          6           0      -12.335495   -1.242474   -3.331030
     33          7           0       -7.298486   -1.443343   -0.103203
     34          6           0       -8.193304   -2.324528   -0.596022
     35          6           0       -7.713282   -3.709493   -0.482712
     36          6           0       -6.470205   -3.578214   -0.016909
     37          6           0       -6.184246   -2.198176    0.102521
     38          6           0       -8.473567   -4.815526   -0.864080
     39          6           0       -5.235491   -4.305570    0.151923
     40          8           0       -5.158260   -5.545720   -0.070036
     41          6           0       -4.114532   -3.298201    0.498061
     42          6           0       -3.589892   -3.715885    1.890690
     43          8           0       -3.774207   -3.144104    2.946656
     44          8           0       -2.640862   -4.696313    1.725526
     45          6           0       -2.204339   -5.318578    2.845329
     46          6           0        2.794914   -0.469794   -1.218949
     47          6           0        4.108281   -0.412599   -0.630960
     48          6           0        5.077752    0.448304   -0.954834
     49          6           0        4.992513    1.502553   -1.965019
     50          6           0        6.424349    0.524706   -0.151672
     51          6           0        7.596779    0.019191   -0.930454
     52          6           0        8.926445    0.086247   -0.057042
     53          6           0       10.234555   -0.432618   -0.879977
     54          6           0       10.157954   -1.918304   -1.204370
     55          6           0       11.425690   -0.188826   -0.026989
     56          6           0       12.795705   -0.485065   -0.714553
     57          6           0       13.973069   -0.085551    0.206787
     58          6           0       15.398573   -0.304027   -0.597756
     59          6           0       15.571420   -1.664647   -0.908896
     60          6           0       16.370530    0.348407    0.343829
     61          6           0       17.960356    0.269469   -0.203253
     62          6           0       18.827280    1.120882    0.735946
     63          6           0       20.350524    1.270277    0.228750
     64          6           0       20.438052    2.006921   -1.120578
     65          6           0       21.295160    1.753116    1.240666
     66          1           0       -4.259161    3.568109    1.724642
     67          1           0      -10.090077    3.853172   -0.243676
     68          1           0      -10.287949   -2.448181   -1.242079
     69          1           0       -2.610965   -1.095458    2.010156
     70          1           0       -2.324420    1.649340    1.350090
     71          1           0       -2.153814    0.876151    3.738043
     72          1           0       -3.499690    2.178730    3.535034
     73          1           0       -3.980770    0.420410    3.649194
     74          1           0       -1.981782   -1.488873   -0.316863
     75          1           0       -2.223559    0.019916   -0.643521
     76          1           0       -0.398124    0.801830    0.933498
     77          1           0       -0.167704   -0.861865    1.524598
     78          1           0       -5.056555    6.402580    0.542760
     79          1           0       -6.304184    6.654788    1.906102
     80          1           0       -4.617820    5.796269    1.842357
     81          1           0       -9.635643    6.203560    0.627143
     82          1           0       -8.801613    8.044100   -0.007070
     83          1           0       -7.128427    7.166836    0.057010
     84          1           0      -11.999201    3.320901   -1.994265
     85          1           0      -13.141668    1.850228   -1.695874
     86          1           0      -12.469432    2.551988    0.008835
     87          1           0      -12.119617   -1.888802   -1.365465
     88          1           0      -13.235451   -0.466310   -1.550751
     89          1           0      -13.214407   -1.957577   -3.345256
     90          1           0      -12.674200   -0.391292   -3.995650
     91          1           0      -11.321143   -1.540910   -3.594480
     92          1           0       -8.791830   -4.702531   -2.121494
     93          1           0       -7.852355   -5.763703   -0.799117
     94          1           0       -9.488322   -4.978876   -0.295718
     95          1           0       -3.364143   -3.613929   -0.171026
     96          1           0       -2.066966   -4.500360    3.772393
     97          1           0       -2.874126   -6.021624    3.512710
     98          1           0       -1.317125   -5.955418    2.599643
     99          1           0        2.532224   -1.683206   -1.568557
    100          1           0        2.583415    0.217700   -2.017419
    101          1           0        4.328692   -1.221264    0.263960
    102          1           0        4.006525    1.275002   -2.556707
    103          1           0        5.126078    2.524174   -1.659032
    104          1           0        5.914580    1.335514   -2.633017
    105          1           0        6.425842    1.642444    0.106168
    106          1           0        6.217137   -0.145175    0.877420
    107          1           0        7.666331   -0.949803   -1.296466
    108          1           0        7.633683    0.567815   -1.734795
    109          1           0        9.088754    0.983700    0.363983
    110          1           0        8.804007   -0.584888    0.877810
    111          1           0       10.588499    0.139180   -1.860925
    112          1           0        9.128898   -1.891473   -1.771412
    113          1           0       10.945119   -2.503400   -1.820160
    114          1           0        9.880361   -2.585308   -0.315318
    115          1           0       11.516279    1.043382    0.017189
    116          1           0       11.287988   -0.695374    0.916848
    117          1           0       12.777717   -1.522467   -1.075212
    118          1           0       12.865667    0.085272   -1.555983
    119          1           0       13.719312    0.942742    0.142250
    120          1           0       14.097849   -0.634680    1.156464
    121          1           0       15.403847    0.253783   -1.628321
    122          1           0       15.460047   -2.160014    0.136384
    123          1           0       14.845206   -2.186260   -1.506285
    124          1           0       16.522218   -1.443793   -1.329843
    125          1           0       15.975716    1.342730    0.723504
    126          1           0       16.436899   -0.311415    1.098489
    127          1           0       18.393241   -0.642665   -0.291965
    128          1           0       17.882549    0.533628   -1.203113
    129          1           0       18.535116    2.262118    0.831370
    130          1           0       18.868066    0.695223    1.606910
    131          1           0       20.541430    0.110799    0.115871
    132          1           0       20.111912    3.032330   -0.623033
    133          1           0       21.439743    1.921391   -1.576895
    134          1           0       19.697657    1.689571   -1.784741
    135          1           0       21.416381    0.864569    2.135547
    136          1           0       22.325187    1.968126    0.699808
    137          1           0       20.967300    2.629361    1.914824
 ---------------------------------------------------------------------

 SCF Done:  E(RCAM-B3LYP) =  -2932.55331497     A.U. after   18 cycles

 Excitation energies and oscillator strengths:

 Excited State   1:      Singlet-A      2.0894 eV  593.39 nm  f=0.2491  <S**2>=0.000
     240 -> 243        0.25311
     241 -> 242        0.65081
 This state for optimization and/or second-order correction.
 Total Energy, E(TD-HF/TD-KS) =  -2932.47653013
 Copying the excited state density for this state as the 1-particle RhoCI density.

 The electronic state is 1-A.
 Alpha  occ. eigenvalues --  -46.84665 -19.27575 -19.24216 -19.22646 -19.21769
 Alpha  occ. eigenvalues --  -19.20848 -14.42689 -14.39614 -14.39017 -14.38149
 Alpha  occ. eigenvalues --  -10.40837 -10.39120 -10.35646 -10.32707 -10.32496
 Alpha  occ. eigenvalues --  -10.31897 -10.30589 -10.30085 -10.29671 -10.29655
 Alpha  occ. eigenvalues --  -10.29031 -10.28789 -10.28412 -10.28375 -10.28325
 Alpha  occ. eigenvalues --  -10.28283 -10.28129 -10.27933 -10.27900 -10.27692
 Alpha  occ. eigenvalues --  -10.27465 -10.27461 -10.27358 -10.27265 -10.27235
 Alpha  occ. eigenvalues --  -10.27187 -10.27165 -10.27116 -10.27078 -10.26995
 Alpha  occ. eigenvalues --  -10.26945 -10.26620 -10.26589 -10.26361 -10.26178
 Alpha  occ. eigenvalues --  -10.26163 -10.26127 -10.25918 -10.25863 -10.25795
 Alpha  occ. eigenvalues --  -10.25622 -10.25569 -10.25402 -10.25290 -10.25239
 Alpha  occ. eigenvalues --  -10.24920 -10.24859 -10.24817 -10.24593 -10.24464
 Alpha  occ. eigenvalues --  -10.24461 -10.24410 -10.23946 -10.23909 -10.23807
 Alpha  occ. eigenvalues --   -3.13687  -1.88384  -1.87916  -1.87874  -1.19942
 Alpha  occ. eigenvalues --   -1.18383  -1.11055  -1.09436  -1.09359  -1.06751
 Alpha  occ. eigenvalues --   -1.05133  -1.02427  -1.00899  -0.93307  -0.91785
 Alpha  occ. eigenvalues --   -0.91537  -0.91284  -0.89679  -0.89606  -0.89469
 Alpha  occ. eigenvalues --   -0.88571  -0.88536  -0.87682  -0.87421  -0.86204
 Alpha  occ. eigenvalues --   -0.85508  -0.84553  -0.84108  -0.83174  -0.82807
 Alpha  occ. eigenvalues --   -0.81844  -0.81047  -0.80836  -0.80053  -0.78954
 Alpha  occ. eigenvalues --   -0.78566  -0.77038  -0.76227  -0.75974  -0.75307
 Alpha  occ. eigenvalues --   -0.75124  -0.74671  -0.74213  -0.73271  -0.72093
 Alpha  occ. eigenvalues --   -0.71770  -0.71066  -0.69540  -0.69115  -0.68371
 Alpha  occ. eigenvalues --   -0.67959  -0.67190  -0.66011  -0.65665  -0.65496
 Alpha  occ. eigenvalues --   -0.64055  -0.62791  -0.62349  -0.62275  -0.61574
 Alpha  occ. eigenvalues --   -0.61207  -0.60636  -0.60549  -0.60098  -0.59536
 Alpha  occ. eigenvalues --   -0.59207  -0.58390  -0.58158  -0.57520  -0.56828
 Alpha  occ. eigenvalues --   -0.56478  -0.56163  -0.55879  -0.55582  -0.55522
 Alpha  occ. eigenvalues --   -0.54931  -0.54770  -0.54520  -0.54387  -0.53588
 Alpha  occ. eigenvalues --   -0.53220  -0.52982  -0.52795  -0.52113  -0.51787
 Alpha  occ. eigenvalues --   -0.51634  -0.51400  -0.51213  -0.50988  -0.50759
 Alpha  occ. eigenvalues --   -0.50639  -0.50346  -0.50168  -0.49747  -0.49638
 Alpha  occ. eigenvalues --   -0.49349  -0.48989  -0.48935  -0.48510  -0.48398
 Alpha  occ. eigenvalues --   -0.48126  -0.48040  -0.47718  -0.47492  -0.47423
 Alpha  occ. eigenvalues --   -0.47125  -0.46842  -0.46546  -0.46397  -0.46174
 Alpha  occ. eigenvalues --   -0.45948  -0.45912  -0.45891  -0.45132  -0.44933
 Alpha  occ. eigenvalues --   -0.44642  -0.44465  -0.44379  -0.44158  -0.44027
 Alpha  occ. eigenvalues --   -0.43853  -0.43718  -0.43545  -0.43369  -0.43061
 Alpha  occ. eigenvalues --   -0.43032  -0.42925  -0.42888  -0.42653  -0.42442
 Alpha  occ. eigenvalues --   -0.42356  -0.41973  -0.41888  -0.41857  -0.41693
 Alpha  occ. eigenvalues --   -0.41443  -0.41408  -0.41252  -0.40906  -0.40552
 Alpha  occ. eigenvalues --   -0.40239  -0.40080  -0.39818  -0.39627  -0.39573
 Alpha  occ. eigenvalues --   -0.39487  -0.38781  -0.38687  -0.38670  -0.38093
 Alpha  occ. eigenvalues --   -0.37685  -0.37508  -0.37342  -0.36871  -0.36419
 Alpha  occ. eigenvalues --   -0.36413  -0.35533  -0.35468  -0.35447  -0.34818
 Alpha  occ. eigenvalues --   -0.34755  -0.34492  -0.34350  -0.34094  -0.33380
 Alpha  occ. eigenvalues --   -0.33350  -0.32568  -0.31205  -0.30929  -0.30593
 Alpha  occ. eigenvalues --   -0.30119  -0.29572  -0.28051  -0.26901  -0.23363
 Alpha  occ. eigenvalues --   -0.20645
 Alpha virt. eigenvalues --   -0.05811  -0.03255   0.00751   0.04117   0.05074
 Alpha virt. eigenvalues --    0.05657   0.05847   0.06398   0.06681   0.07343
 Alpha virt. eigenvalues --    0.07737   0.10305   0.10441   0.11359   0.11416

 Mulliken charges:
               1
     1  Mg   0.827613
     2  C   -0.035093
     3  C   -0.200997
     4  C   -0.166161
     5  C   -0.206328
     6  N   -0.590166
     7  C    0.336916
     8  C   -0.153611
     9  C   -0.108861
    10  C    0.272985
    11  C   -0.299907
    12  C   -0.176408
    13  C   -0.285601
    14  C    0.617573
    15  O   -0.437944
    16  O   -0.516611
    17  N   -0.667188
    18  C    0.239214
    19  C    0.045988
    20  C   -0.016440
    21  C    0.302132
    22  C   -0.372134
    23  C   -0.102849
    24  C   -0.215245
    25  N   -0.705883
    26  C    0.311685
    27  C    0.006609
    28  C    0.077518
    29  C    0.281427
    30  C   -0.344268
    31  C   -0.274193
    32  C   -0.299771
    33  N   -0.747833
    34  C    0.288702
    35  C    0.103254
    36  C    0.047874
    37  C    0.360397
    38  C   -0.413806
    39  C    0.336119
    40  O   -0.479999
    41  C   -0.309875
    42  C    0.623236
    43  O   -0.452099
    44  O   -0.415672
    45  C   -0.094237
    46  C    0.031016
    47  C   -0.105434
    48  C    0.113813
    49  C   -0.354305
    50  C   -0.218665
    51  C   -0.155236
    52  C   -0.185680
    53  C   -0.057041
    54  C   -0.305114
    55  C   -0.149894
    56  C   -0.201222
    57  C   -0.172979
    58  C   -0.096261
    59  C   -0.259081
    60  C   -0.162808
    61  C   -0.220796
    62  C   -0.154779
    63  C   -0.064532
    64  C   -0.289610
    65  C   -0.284462
    66  H    0.056359
    67  H    0.078085
    68  H    0.069329
    69  H    0.128069
    70  H    0.102996
    71  H    0.118212
    72  H    0.102211
    73  H    0.124988
    74  H    0.129042
    75  H    0.127548
    76  H    0.139337
    77  H    0.147412
    78  H    0.142222
    79  H    0.122065
    80  H    0.120346
    81  H    0.099191
    82  H    0.096232
    83  H    0.085796
    84  H    0.119218
    85  H    0.109338
    86  H    0.085358
    87  H    0.109269
    88  H    0.093900
    89  H    0.103906
    90  H    0.099594
    91  H    0.115176
    92  H    0.096366
    93  H    0.150666
    94  H    0.127562
    95  H    0.174940
    96  H    0.099671
    97  H    0.107745
    98  H    0.121469
    99  H    0.078523
   100  H    0.119416
   101  H    0.080631
   102  H    0.097384
   103  H    0.130790
   104  H    0.109935
   105  H    0.100183
   106  H    0.072044
   107  H    0.111519
   108  H    0.105704
   109  H    0.106401
   110  H    0.084487
   111  H    0.069050
   112  H    0.079906
   113  H    0.107978
   114  H    0.096427
   115  H    0.046755
   116  H    0.088035
   117  H    0.079396
   118  H    0.101623
   119  H    0.098179
   120  H    0.091570
   121  H    0.055640
   122  H    0.072015
   123  H    0.112366
   124  H    0.101237
   125  H    0.100845
   126  H    0.104100
   127  H    0.110372
   128  H    0.099308
   129  H    0.065049
   130  H    0.104724
   131  H    0.059225
   132  H    0.085257
   133  H    0.103830
   134  H    0.112612
   135  H    0.067249
   136  H    0.093484
   137  H    0.096145
 Sum of Mulliken charges =   0.00000

 Dipole moment (field-independent basis, Debye):
    X=              2.4468    Y=              3.4464    Z=              0.8362  Tot=              4.3086
 Quadrupole moment (field-independent basis, Debye-Ang):
   XX=           -377.1299   YY=           -395.6577   ZZ=           -399.9325
   XY=            -15.2024   XZ=              1.4375   YZ=             -0.1706

 Normal termination of Gaussian 09 at Sun Jun 30 01:11:57 2019.
