 Gaussian 09, Revision D.01,
 Gaussian 09:  ES64L-G09RevD.01 24-Apr-2013

 -------------------------------------
 # td=(NStates=1) CAM-B3LYP/6-31G(d,p)
 -------------------------------------

 --
 TD
 --
 Symbolic Z-matrix:
 Charge =  0 Multiplicity = 1

                         Standard orientation:
 ---------------------------------------------------------------------
 Center     Atomic      Atomic             Coordinates (Angstroms)
 Number     Number       Type             X           Y           Z
 ---------------------------------------------------------------------
      1         12           0       -7.021524    0.610414   -0.015708
      2          6           0       -4.853802   -1.870040    0.461421
      3          6           0       -4.906508    2.772243    1.297094
      4          6           0       -9.429847    3.115843   -0.435310
      5          6           0       -9.530820   -1.680694   -0.872288
      6          7           0       -5.180432    0.425297    0.834220
      7          6           0       -4.337606   -0.633779    0.905542
      8          6           0       -2.912728   -0.327482    1.268921
      9          6           0       -3.033126    1.116496    1.769910
     10          6           0       -4.489758    1.502738    1.255363
     11          6           0       -2.868683    1.144193    3.268200
     12          6           0       -1.950239   -0.615862    0.072870
     13          6           0       -0.534719   -0.565740    0.463523
     14          6           0        0.480886   -0.659543   -0.600804
     15          8           0        0.161295   -0.845382   -1.817622
     16          8           0        1.739576   -0.539490   -0.140416
     17          7           0       -7.154829    2.627500    0.352882
     18          6           0       -6.057167    3.366958    0.789313
     19          6           0       -6.501692    4.760647    0.926903
     20          6           0       -7.795421    4.859774    0.412597
     21          6           0       -8.149103    3.491562   -0.007272
     22          6           0       -5.597546    5.804776    1.388088
     23          6           0       -8.604093    6.091195    0.377379
     24          6           0       -8.207815    7.333783    0.097326
     25          7           0       -9.086112    0.690543   -0.604948
     26          6           0       -9.834057    1.763936   -0.715176
     27          6           0      -11.238076    1.471733   -0.970558
     28          6           0      -11.233793    0.055443   -1.160464
     29          6           0       -9.890282   -0.421110   -0.955023
     30          6           0      -12.362413    2.402295   -1.130393
     31          6           0      -12.412129   -0.755246   -1.669577
     32          6           0      -12.434636   -1.081977   -3.112392
     33          7           0       -7.173102   -1.391757   -0.270018
     34          6           0       -8.197913   -2.244315   -0.592131
     35          6           0       -7.799413   -3.562049   -0.572352
     36          6           0       -6.457139   -3.504008   -0.129114
     37          6           0       -6.129390   -2.094456   -0.080963
     38          6           0       -8.612704   -4.843510   -0.778787
     39          6           0       -5.283668   -4.352352    0.165922
     40          8           0       -5.061538   -5.522417    0.222143
     41          6           0       -4.071986   -3.215926    0.545360
     42          6           0       -3.564793   -3.692101    1.889045
     43          8           0       -3.757341   -3.137191    2.917191
     44          8           0       -2.703687   -4.826557    1.725783
     45          6           0       -2.213309   -5.384290    2.965670
     46          6           0        2.800209   -0.673675   -1.312633
     47          6           0        4.116339   -0.565917   -0.596655
     48          6           0        5.102777    0.280414   -0.999760
     49          6           0        5.012563    1.114167   -2.210619
     50          6           0        6.547803    0.295115   -0.271622
     51          6           0        7.686844   -0.194261   -1.116199
     52          6           0        8.895532   -0.077008   -0.314118
     53          6           0       10.202727   -0.494635   -0.965032
     54          6           0       10.195016   -2.018743   -1.138281
     55          6           0       11.398261   -0.148451   -0.124849
     56          6           0       12.777513   -0.417244   -0.780524
     57          6           0       13.963751   -0.025718    0.143432
     58          6           0       15.336740   -0.206586   -0.457346
     59          6           0       15.667464   -1.621078   -0.832139
     60          6           0       16.353469    0.397499    0.492962
     61          6           0       17.852375    0.608875   -0.155366
     62          6           0       18.816764    1.309899    0.770156
     63          6           0       20.260474    1.383159    0.263013
     64          6           0       20.391490    2.140814   -0.981682
     65          6           0       21.241994    1.876679    1.334603
     66          1           0       -4.248834    3.542156    1.667136
     67          1           0      -10.219988    4.030389   -0.443009
     68          1           0      -10.138221   -2.480659   -1.331707
     69          1           0       -2.533858   -0.941844    2.086822
     70          1           0       -2.435524    1.624959    1.213358
     71          1           0       -1.836294    0.758721    3.388617
     72          1           0       -3.162206    2.063919    3.887076
     73          1           0       -3.545469    0.426082    3.844068
     74          1           0       -2.209316   -1.575375   -0.375858
     75          1           0       -2.193141    0.161540   -0.694453
     76          1           0       -0.335580    0.566924    0.810698
     77          1           0       -0.364951   -1.331308    1.099099
     78          1           0       -5.195685    6.224200    0.572628
     79          1           0       -6.188941    6.538471    1.939356
     80          1           0       -4.945055    5.518627    2.168487
     81          1           0       -9.720406    6.030012    0.550470
     82          1           0       -8.834801    8.131455   -0.231156
     83          1           0       -7.144654    7.510424   -0.044230
     84          1           0      -12.209433    3.173288   -1.931973
     85          1           0      -13.283861    1.844773   -1.525083
     86          1           0      -12.590951    2.850015   -0.237269
     87          1           0      -12.428518   -1.698510   -1.191355
     88          1           0      -13.373705   -0.244665   -1.350988
     89          1           0      -13.278171   -1.721251   -3.223577
     90          1           0      -12.463741   -0.099295   -3.796456
     91          1           0      -11.425217   -1.737388   -3.318097
     92          1           0       -8.872088   -5.109523   -1.907188
     93          1           0       -8.009851   -5.668624   -0.545153
     94          1           0       -9.786520   -4.947240   -0.592871
     95          1           0       -3.329500   -3.335694   -0.333461
     96          1           0       -1.653168   -4.712343    3.611306
     97          1           0       -2.952898   -5.866099    3.455286
     98          1           0       -1.460916   -6.168815    2.686721
     99          1           0        2.661316   -1.520798   -1.975796
    100          1           0        2.467037    0.173547   -2.017845
    101          1           0        4.383931   -1.275203    0.201903
    102          1           0        3.958250    1.337978   -2.575360
    103          1           0        5.337173    2.269782   -2.094022
    104          1           0        5.500132    0.718490   -3.160052
    105          1           0        6.642821    1.257821   -0.026137
    106          1           0        6.415488   -0.304525    0.591069
    107          1           0        7.562729   -1.298426   -1.557042
    108          1           0        7.695464    0.335957   -1.902856
    109          1           0        8.975481    0.964181    0.032671
    110          1           0        8.701538   -0.755761    0.671180
    111          1           0       10.301974   -0.128627   -1.999210
    112          1           0        9.353474   -2.389636   -1.808853
    113          1           0       11.116667   -2.286632   -1.638560
    114          1           0       10.170376   -2.663902   -0.109367
    115          1           0       11.394058    1.002222   -0.007046
    116          1           0       11.397210   -0.415677    0.976708
    117          1           0       13.000368   -1.647824   -0.714440
    118          1           0       12.712178    0.076235   -1.871813
    119          1           0       13.894224    0.985213    0.350565
    120          1           0       13.977961   -0.488538    1.140537
    121          1           0       15.347572    0.304067   -1.438549
    122          1           0       15.671914   -2.242889   -0.073192
    123          1           0       15.042005   -2.141700   -1.460584
    124          1           0       16.613312   -1.701932   -1.475516
    125          1           0       15.876572    1.253651    0.674966
    126          1           0       16.435134   -0.261555    1.415313
    127          1           0       18.242508   -0.460323   -0.340511
    128          1           0       17.775136    1.053045   -1.130659
    129          1           0       18.503474    2.524755    0.896894
    130          1           0       18.878637    0.870618    1.979486
    131          1           0       20.461630    0.327816    0.245546
    132          1           0       19.962381    3.308322   -0.896812
    133          1           0       21.485270    2.272831   -1.292949
    134          1           0       19.681417    1.574180   -1.540697
    135          1           0       21.374635    1.391433    2.245763
    136          1           0       22.277051    1.852008    0.960093
    137          1           0       20.888439    2.880103    1.853741
 ---------------------------------------------------------------------

 SCF Done:  E(RCAM-B3LYP) =  -2932.71080110     A.U. after   18 cycles

 Excitation energies and oscillator strengths:

 Excited State   1:      Singlet-A      2.1756 eV  569.88 nm  f=0.3231  <S**2>=0.000
     240 -> 242       -0.17787
     240 -> 243        0.19171
     241 -> 242        0.64373
     241 -> 243        0.11182
 This state for optimization and/or second-order correction.
 Total Energy, E(TD-HF/TD-KS) =  -2932.63084882
 Copying the excited state density for this state as the 1-particle RhoCI density.

 The electronic state is 1-A.
 Alpha  occ. eigenvalues --  -46.84670 -19.26480 -19.24054 -19.20798 -19.20072
 Alpha  occ. eigenvalues --  -19.19578 -14.41877 -14.39542 -14.39256 -14.38684
 Alpha  occ. eigenvalues --  -10.38608 -10.38474 -10.34729 -10.33291 -10.30703
 Alpha  occ. eigenvalues --  -10.30382 -10.30182 -10.29964 -10.29592 -10.29085
 Alpha  occ. eigenvalues --  -10.28330 -10.28307 -10.28130 -10.28096 -10.28010
 Alpha  occ. eigenvalues --  -10.27980 -10.27945 -10.27943 -10.27895 -10.27673
 Alpha  occ. eigenvalues --  -10.27632 -10.27478 -10.27425 -10.27395 -10.27131
 Alpha  occ. eigenvalues --  -10.26950 -10.26932 -10.26904 -10.26825 -10.26757
 Alpha  occ. eigenvalues --  -10.26666 -10.26623 -10.26440 -10.26420 -10.26380
 Alpha  occ. eigenvalues --  -10.26233 -10.26145 -10.26142 -10.26009 -10.25972
 Alpha  occ. eigenvalues --  -10.25972 -10.25783 -10.25660 -10.25307 -10.25228
 Alpha  occ. eigenvalues --  -10.25225 -10.25208 -10.25107 -10.24822 -10.24786
 Alpha  occ. eigenvalues --  -10.24561 -10.24512 -10.24483 -10.24065 -10.22312
 Alpha  occ. eigenvalues --   -3.13706  -1.88409  -1.87940  -1.87889  -1.15778
 Alpha  occ. eigenvalues --   -1.15379  -1.11567  -1.08065  -1.05727  -1.05480
 Alpha  occ. eigenvalues --   -1.04639  -1.03505  -1.02496  -0.92172  -0.91318
 Alpha  occ. eigenvalues --   -0.91041  -0.90731  -0.89904  -0.89672  -0.89405
 Alpha  occ. eigenvalues --   -0.88916  -0.88309  -0.87716  -0.87122  -0.86581
 Alpha  occ. eigenvalues --   -0.86064  -0.84904  -0.83823  -0.82894  -0.82465
 Alpha  occ. eigenvalues --   -0.81345  -0.80526  -0.80058  -0.79785  -0.78534
 Alpha  occ. eigenvalues --   -0.77526  -0.77219  -0.77000  -0.75912  -0.75697
 Alpha  occ. eigenvalues --   -0.75520  -0.75089  -0.74190  -0.73287  -0.72512
 Alpha  occ. eigenvalues --   -0.71545  -0.70616  -0.69350  -0.68721  -0.67934
 Alpha  occ. eigenvalues --   -0.67570  -0.66984  -0.66238  -0.64843  -0.64808
 Alpha  occ. eigenvalues --   -0.63485  -0.63484  -0.62595  -0.62360  -0.61208
 Alpha  occ. eigenvalues --   -0.61034  -0.60603  -0.59998  -0.59826  -0.59167
 Alpha  occ. eigenvalues --   -0.58638  -0.57988  -0.57736  -0.57299  -0.56202
 Alpha  occ. eigenvalues --   -0.55767  -0.55380  -0.55217  -0.55104  -0.54436
 Alpha  occ. eigenvalues --   -0.54296  -0.53915  -0.53382  -0.53225  -0.53067
 Alpha  occ. eigenvalues --   -0.52775  -0.52658  -0.52299  -0.52223  -0.52037
 Alpha  occ. eigenvalues --   -0.51884  -0.51804  -0.51740  -0.51215  -0.50743
 Alpha  occ. eigenvalues --   -0.50673  -0.50174  -0.50068  -0.49776  -0.49631
 Alpha  occ. eigenvalues --   -0.49604  -0.48884  -0.48789  -0.48541  -0.48381
 Alpha  occ. eigenvalues --   -0.48248  -0.47824  -0.47804  -0.47539  -0.47341
 Alpha  occ. eigenvalues --   -0.47082  -0.46673  -0.46350  -0.46150  -0.45922
 Alpha  occ. eigenvalues --   -0.45891  -0.45564  -0.45428  -0.45286  -0.44993
 Alpha  occ. eigenvalues --   -0.44873  -0.44751  -0.44392  -0.44029  -0.43902
 Alpha  occ. eigenvalues --   -0.43695  -0.43256  -0.43178  -0.43170  -0.43036
 Alpha  occ. eigenvalues --   -0.42969  -0.42827  -0.42720  -0.42566  -0.42428
 Alpha  occ. eigenvalues --   -0.42180  -0.42117  -0.41945  -0.41473  -0.41105
 Alpha  occ. eigenvalues --   -0.40965  -0.40667  -0.40546  -0.40416  -0.40302
 Alpha  occ. eigenvalues --   -0.40118  -0.40004  -0.39544  -0.39475  -0.39424
 Alpha  occ. eigenvalues --   -0.39010  -0.38609  -0.38603  -0.38450  -0.38145
 Alpha  occ. eigenvalues --   -0.37860  -0.37510  -0.37224  -0.37196  -0.36571
 Alpha  occ. eigenvalues --   -0.36409  -0.36194  -0.35974  -0.35381  -0.35279
 Alpha  occ. eigenvalues --   -0.35163  -0.34748  -0.34520  -0.33647  -0.33275
 Alpha  occ. eigenvalues --   -0.33037  -0.32428  -0.32280  -0.31045  -0.30231
 Alpha  occ. eigenvalues --   -0.28943  -0.28323  -0.28082  -0.27688  -0.23290
 Alpha  occ. eigenvalues --   -0.21186
 Alpha virt. eigenvalues --   -0.06556  -0.02431   0.02164   0.04179   0.05075
 Alpha virt. eigenvalues --    0.05131   0.06398   0.06613   0.07490   0.07657
 Alpha virt. eigenvalues --    0.08706   0.10606   0.11413   0.11692   0.11841

 Mulliken charges:
               1
     1  Mg   0.824428
     2  C    0.004973
     3  C   -0.211774
     4  C   -0.191962
     5  C   -0.169820
     6  N   -0.647493
     7  C    0.329247
     8  C   -0.167868
     9  C   -0.087351
    10  C    0.330988
    11  C   -0.316918
    12  C   -0.168684
    13  C   -0.238546
    14  C    0.609725
    15  O   -0.521791
    16  O   -0.493478
    17  N   -0.695352
    18  C    0.305850
    19  C    0.000323
    20  C    0.010003
    21  C    0.318203
    22  C   -0.378551
    23  C   -0.094095
    24  C   -0.237000
    25  N   -0.674369
    26  C    0.325199
    27  C    0.022865
    28  C    0.009151
    29  C    0.319823
    30  C   -0.378458
    31  C   -0.238973
    32  C   -0.276614
    33  N   -0.702393
    34  C    0.209888
    35  C    0.054615
    36  C   -0.044963
    37  C    0.326564
    38  C   -0.383697
    39  C    0.350398
    40  O   -0.436124
    41  C   -0.340516
    42  C    0.637210
    43  O   -0.445965
    44  O   -0.491274
    45  C   -0.078248
    46  C   -0.012627
    47  C   -0.121999
    48  C    0.103373
    49  C   -0.376187
    50  C   -0.216276
    51  C   -0.150577
    52  C   -0.151995
    53  C   -0.058876
    54  C   -0.300691
    55  C   -0.165602
    56  C   -0.164702
    57  C   -0.185857
    58  C   -0.068806
    59  C   -0.314118
    60  C   -0.156551
    61  C   -0.195803
    62  C   -0.141082
    63  C   -0.044712
    64  C   -0.277835
    65  C   -0.315767
    66  H    0.075922
    67  H    0.094725
    68  H    0.092709
    69  H    0.124418
    70  H    0.104126
    71  H    0.113977
    72  H    0.104272
    73  H    0.128758
    74  H    0.123815
    75  H    0.105550
    76  H    0.117736
    77  H    0.145086
    78  H    0.144699
    79  H    0.123402
    80  H    0.120740
    81  H    0.093643
    82  H    0.115597
    83  H    0.096108
    84  H    0.119851
    85  H    0.105622
    86  H    0.133990
    87  H    0.110162
    88  H    0.095247
    89  H    0.115845
    90  H    0.094907
    91  H    0.085061
    92  H    0.098507
    93  H    0.152278
    94  H    0.112807
    95  H    0.154354
    96  H    0.115688
    97  H    0.134970
    98  H    0.111009
    99  H    0.156583
   100  H    0.139129
   101  H    0.103472
   102  H    0.107355
   103  H    0.092313
   104  H    0.127030
   105  H    0.117027
   106  H    0.101292
   107  H    0.078427
   108  H    0.106477
   109  H    0.084830
   110  H    0.069946
   111  H    0.087030
   112  H    0.088344
   113  H    0.108447
   114  H    0.077770
   115  H    0.070545
   116  H    0.093638
   117  H    0.074955
   118  H    0.083511
   119  H    0.095430
   120  H    0.091944
   121  H    0.078139
   122  H    0.103813
   123  H    0.104568
   124  H    0.084251
   125  H    0.100866
   126  H    0.085155
   127  H    0.091145
   128  H    0.108986
   129  H    0.049518
   130  H    0.058011
   131  H    0.097747
   132  H    0.073514
   133  H    0.102248
   134  H    0.106303
   135  H    0.104007
   136  H    0.093371
   137  H    0.076801
 Sum of Mulliken charges =   0.00000

 Dipole moment (field-independent basis, Debye):
    X=              1.5509    Y=              5.9897    Z=             -0.5481  Tot=              6.2115
 Quadrupole moment (field-independent basis, Debye-Ang):
   XX=           -338.4949   YY=           -393.0390   ZZ=           -397.4891
   XY=            -37.3748   XZ=              8.3877   YZ=             -1.6189

 Normal termination of Gaussian 09 at Thu Jun 27 20:04:13 2019.
