 Gaussian 09, Revision D.01,
 Gaussian 09:  ES64L-G09RevD.01 24-Apr-2013

 -------------------------------------
 # td=(NStates=1) CAM-B3LYP/6-31G(d,p)
 -------------------------------------

 --
 TD
 --
 Symbolic Z-matrix:
 Charge =  0 Multiplicity = 1

                         Standard orientation:
 ---------------------------------------------------------------------
 Center     Atomic      Atomic             Coordinates (Angstroms)
 Number     Number       Type             X           Y           Z
 ---------------------------------------------------------------------
      1         12           0       -7.090149    0.693901    0.177393
      2          6           0       -4.822652   -1.964676    0.577765
      3          6           0       -4.708188    2.887538    1.253476
      4          6           0       -9.407421    3.138904   -0.281537
      5          6           0       -9.594461   -1.714973   -0.887298
      6          7           0       -5.033714    0.499093    0.802303
      7          6           0       -4.314344   -0.684515    0.869966
      8          6           0       -2.898881   -0.369400    1.234189
      9          6           0       -2.957612    1.073015    1.625245
     10          6           0       -4.324087    1.539572    1.214463
     11          6           0       -2.960048    1.170161    3.258896
     12          6           0       -1.947509   -0.665412    0.142773
     13          6           0       -0.437807   -0.475625    0.499148
     14          6           0        0.444066   -0.770344   -0.545742
     15          8           0        0.123850   -1.146936   -1.732111
     16          8           0        1.735079   -0.471744   -0.260551
     17          7           0       -7.108483    2.645926    0.435992
     18          6           0       -6.074765    3.433487    0.882863
     19          6           0       -6.348656    4.770201    0.867041
     20          6           0       -7.709860    4.866312    0.413368
     21          6           0       -8.120117    3.503058    0.129477
     22          6           0       -5.487489    5.903564    1.178270
     23          6           0       -8.560206    6.008512    0.179672
     24          6           0       -8.202232    7.194192    0.063604
     25          7           0       -9.139151    0.642543   -0.433047
     26          6           0       -9.817345    1.806610   -0.633765
     27          6           0      -11.168707    1.504766   -1.147423
     28          6           0      -11.181855    0.188669   -1.297968
     29          6           0       -9.944772   -0.371131   -0.769286
     30          6           0      -12.255884    2.495386   -1.383453
     31          6           0      -12.337654   -0.655539   -1.719331
     32          6           0      -12.218493   -1.131500   -3.281115
     33          7           0       -7.174305   -1.356221   -0.198828
     34          6           0       -8.282829   -2.141159   -0.612681
     35          6           0       -7.826592   -3.559217   -0.573208
     36          6           0       -6.529858   -3.556062   -0.203221
     37          6           0       -6.180331   -2.208750    0.063572
     38          6           0       -8.635340   -4.708668   -0.892800
     39          6           0       -5.346677   -4.349756    0.128719
     40          8           0       -5.200028   -5.511871    0.105673
     41          6           0       -4.119473   -3.277816    0.588571
     42          6           0       -3.582259   -3.619859    1.947512
     43          8           0       -3.774780   -3.081770    3.025876
     44          8           0       -2.810009   -4.743665    1.721627
     45          6           0       -2.234579   -5.256532    2.934133
     46          6           0        2.715373   -0.786543   -1.275500
     47          6           0        4.016206   -0.562334   -0.679529
     48          6           0        5.103050    0.166365   -1.039390
     49          6           0        5.133227    1.048302   -2.219548
     50          6           0        6.407630    0.149138   -0.176657
     51          6           0        7.722886   -0.259142   -0.947172
     52          6           0        8.909265   -0.080769   -0.123003
     53          6           0       10.176676   -0.592441   -0.822677
     54          6           0       10.049149   -2.068537   -1.224335
     55          6           0       11.341433   -0.371513   -0.000372
     56          6           0       12.702863   -0.566364   -0.667721
     57          6           0       13.954607   -0.090064    0.128021
     58          6           0       15.303253   -0.224218   -0.469859
     59          6           0       15.751455   -1.608085   -0.978986
     60          6           0       16.429007    0.489489    0.443351
     61          6           0       17.848565    0.482396   -0.158945
     62          6           0       18.824702    1.321467    0.780253
     63          6           0       20.174348    1.469158    0.211777
     64          6           0       20.341006    2.169966   -1.063229
     65          6           0       21.090557    2.163256    1.230706
     66          1           0       -4.158147    3.576667    1.878321
     67          1           0      -10.209914    3.842777   -0.442908
     68          1           0      -10.303217   -2.388051   -1.214684
     69          1           0       -2.666795   -0.939495    2.100811
     70          1           0       -2.097472    1.697112    1.311388
     71          1           0       -2.046467    0.665232    3.842373
     72          1           0       -2.913120    2.299430    3.498751
     73          1           0       -3.970390    0.575955    3.526987
     74          1           0       -2.067480   -1.719681   -0.287917
     75          1           0       -2.149801    0.138351   -0.628951
     76          1           0       -0.070139    0.564094    0.746649
     77          1           0       -0.331086   -1.330967    1.248061
     78          1           0       -4.855387    6.324855    0.282574
     79          1           0       -5.958150    6.707198    1.574906
     80          1           0       -4.713564    5.811750    2.009542
     81          1           0       -9.633687    5.823642    0.056912
     82          1           0       -9.032661    7.971710   -0.066772
     83          1           0       -7.274370    7.474219   -0.305131
     84          1           0      -12.596342    2.826734   -2.524109
     85          1           0      -13.128344    1.660402   -1.076979
     86          1           0      -12.151289    3.347039   -0.562533
     87          1           0      -12.089347   -1.551073   -1.006819
     88          1           0      -13.115658   -0.245430   -1.435049
     89          1           0      -13.057235   -1.816282   -3.381000
     90          1           0      -11.962321   -0.172009   -3.723219
     91          1           0      -11.244179   -1.758780   -3.537208
     92          1           0       -8.767910   -4.583868   -2.072715
     93          1           0       -8.171109   -5.828110   -0.730442
     94          1           0       -9.665573   -4.747128   -0.385139
     95          1           0       -3.261290   -3.430352   -0.049908
     96          1           0       -1.505431   -4.554696    3.436043
     97          1           0       -3.105838   -5.446679    3.666855
     98          1           0       -1.742929   -6.300407    2.816058
     99          1           0        2.738804   -1.928631   -1.670608
    100          1           0        2.661832    0.059876   -2.015956
    101          1           0        3.971236   -1.096703    0.445245
    102          1           0        3.957693    1.198053   -2.479867
    103          1           0        5.406587    2.079195   -2.155318
    104          1           0        5.699804    0.692186   -3.095737
    105          1           0        6.319436    1.223920    0.146426
    106          1           0        6.225664   -0.347691    0.748290
    107          1           0        7.616062   -1.396679   -1.214431
    108          1           0        7.652215    0.278052   -1.871777
    109          1           0        8.869670    0.975525    0.001094
    110          1           0        8.632786   -0.664704    0.882284
    111          1           0       10.172122   -0.100297   -1.905006
    112          1           0        9.153633   -2.215724   -1.722793
    113          1           0       10.733487   -2.297375   -1.919759
    114          1           0       10.180613   -2.735734   -0.376589
    115          1           0       11.296800    0.628681    0.446177
    116          1           0       11.203596   -0.976266    0.901131
    117          1           0       12.546949   -1.665419   -1.010465
    118          1           0       12.649650    0.049035   -1.574100
    119          1           0       13.683798    1.007172    0.475489
    120          1           0       13.816017   -0.699184    1.008407
    121          1           0       15.263509    0.257564   -1.424805
    122          1           0       15.809190   -2.227266   -0.063402
    123          1           0       14.996947   -2.050887   -1.684221
    124          1           0       16.685680   -1.660911   -1.512247
    125          1           0       16.111029    1.538550    0.785192
    126          1           0       16.638597    0.096908    1.526314
    127          1           0       18.286549   -0.551293   -0.116091
    128          1           0       18.055623    0.981926   -1.114076
    129          1           0       18.374941    2.299890    0.986786
    130          1           0       18.855685    0.766553    1.782340
    131          1           0       20.767057    0.470134    0.069809
    132          1           0       19.969523    3.186807   -1.118541
    133          1           0       21.321526    2.215548   -1.536558
    134          1           0       19.625892    1.611080   -1.742198
    135          1           0       21.038999    1.745993    2.263908
    136          1           0       22.346966    2.147291    0.974619
    137          1           0       20.956907    3.397109    1.432030
 ---------------------------------------------------------------------

 SCF Done:  E(RCAM-B3LYP) =  -2932.68873393     A.U. after   18 cycles

 Excitation energies and oscillator strengths:

 Excited State   1:      Singlet-A      1.9644 eV  631.15 nm  f=0.2691  <S**2>=0.000
     240 -> 243        0.24351
     241 -> 242        0.65796
 This state for optimization and/or second-order correction.
 Total Energy, E(TD-HF/TD-KS) =  -2932.61654347
 Copying the excited state density for this state as the 1-particle RhoCI density.

 The electronic state is 1-A.
 Alpha  occ. eigenvalues --  -46.84904 -19.26517 -19.26434 -19.21737 -19.21623
 Alpha  occ. eigenvalues --  -19.19542 -14.41307 -14.39915 -14.39633 -14.39319
 Alpha  occ. eigenvalues --  -10.39364 -10.38770 -10.36133 -10.32680 -10.32178
 Alpha  occ. eigenvalues --  -10.31007 -10.30304 -10.30016 -10.29766 -10.29712
 Alpha  occ. eigenvalues --  -10.29508 -10.29068 -10.28996 -10.28782 -10.28533
 Alpha  occ. eigenvalues --  -10.28399 -10.28332 -10.28236 -10.28225 -10.27961
 Alpha  occ. eigenvalues --  -10.27705 -10.27566 -10.27382 -10.27270 -10.27169
 Alpha  occ. eigenvalues --  -10.27088 -10.27079 -10.26916 -10.26868 -10.26623
 Alpha  occ. eigenvalues --  -10.26553 -10.26444 -10.26250 -10.26196 -10.26164
 Alpha  occ. eigenvalues --  -10.25932 -10.25909 -10.25833 -10.25824 -10.25816
 Alpha  occ. eigenvalues --  -10.25776 -10.25770 -10.25637 -10.25633 -10.25572
 Alpha  occ. eigenvalues --  -10.25487 -10.25459 -10.25366 -10.25298 -10.24803
 Alpha  occ. eigenvalues --  -10.24570 -10.24435 -10.24201 -10.24113 -10.22616
 Alpha  occ. eigenvalues --   -3.13802  -1.88524  -1.88034  -1.87973  -1.17393
 Alpha  occ. eigenvalues --   -1.17266  -1.14365  -1.09291  -1.05466  -1.04782
 Alpha  occ. eigenvalues --   -1.04153  -1.03606  -1.02965  -0.92056  -0.91947
 Alpha  occ. eigenvalues --   -0.91117  -0.90554  -0.90129  -0.89979  -0.89376
 Alpha  occ. eigenvalues --   -0.88728  -0.88667  -0.88248  -0.87122  -0.86921
 Alpha  occ. eigenvalues --   -0.85455  -0.84942  -0.83984  -0.83079  -0.82756
 Alpha  occ. eigenvalues --   -0.81756  -0.81230  -0.80353  -0.79887  -0.78260
 Alpha  occ. eigenvalues --   -0.77722  -0.76769  -0.76435  -0.75943  -0.75503
 Alpha  occ. eigenvalues --   -0.75306  -0.74469  -0.73612  -0.72877  -0.72184
 Alpha  occ. eigenvalues --   -0.71575  -0.70566  -0.70320  -0.68965  -0.68215
 Alpha  occ. eigenvalues --   -0.66948  -0.66094  -0.65122  -0.64775  -0.64351
 Alpha  occ. eigenvalues --   -0.64272  -0.63156  -0.62547  -0.62045  -0.61984
 Alpha  occ. eigenvalues --   -0.61854  -0.60524  -0.60123  -0.59667  -0.59185
 Alpha  occ. eigenvalues --   -0.59091  -0.58391  -0.58033  -0.57603  -0.56823
 Alpha  occ. eigenvalues --   -0.56298  -0.55688  -0.55628  -0.55081  -0.54691
 Alpha  occ. eigenvalues --   -0.54573  -0.54527  -0.54128  -0.53920  -0.53141
 Alpha  occ. eigenvalues --   -0.52967  -0.52440  -0.52226  -0.52016  -0.51844
 Alpha  occ. eigenvalues --   -0.51536  -0.51410  -0.51033  -0.50890  -0.50576
 Alpha  occ. eigenvalues --   -0.50457  -0.50399  -0.50362  -0.50186  -0.50046
 Alpha  occ. eigenvalues --   -0.49614  -0.49295  -0.49127  -0.48616  -0.48501
 Alpha  occ. eigenvalues --   -0.48316  -0.48152  -0.47603  -0.47299  -0.47057
 Alpha  occ. eigenvalues --   -0.46924  -0.46653  -0.46500  -0.46278  -0.46029
 Alpha  occ. eigenvalues --   -0.45611  -0.45413  -0.45266  -0.45066  -0.44920
 Alpha  occ. eigenvalues --   -0.44743  -0.44559  -0.44390  -0.44260  -0.44042
 Alpha  occ. eigenvalues --   -0.43907  -0.43721  -0.43427  -0.43341  -0.43139
 Alpha  occ. eigenvalues --   -0.42982  -0.42776  -0.42489  -0.42408  -0.42221
 Alpha  occ. eigenvalues --   -0.41950  -0.41823  -0.41520  -0.41338  -0.41089
 Alpha  occ. eigenvalues --   -0.41000  -0.40877  -0.40435  -0.40292  -0.40218
 Alpha  occ. eigenvalues --   -0.40141  -0.39839  -0.39741  -0.39399  -0.39265
 Alpha  occ. eigenvalues --   -0.38533  -0.38504  -0.38434  -0.38247  -0.38001
 Alpha  occ. eigenvalues --   -0.37450  -0.37000  -0.36924  -0.36715  -0.36582
 Alpha  occ. eigenvalues --   -0.36136  -0.35989  -0.35902  -0.35847  -0.35523
 Alpha  occ. eigenvalues --   -0.35286  -0.35074  -0.34550  -0.34290  -0.33707
 Alpha  occ. eigenvalues --   -0.33287  -0.32225  -0.32081  -0.30643  -0.30423
 Alpha  occ. eigenvalues --   -0.29874  -0.29007  -0.28508  -0.27237  -0.22733
 Alpha  occ. eigenvalues --   -0.21326
 Alpha virt. eigenvalues --   -0.07020  -0.02924   0.02056   0.04540   0.05204
 Alpha virt. eigenvalues --    0.05589   0.06140   0.06373   0.06581   0.07705
 Alpha virt. eigenvalues --    0.08519   0.10257   0.10818   0.11336   0.11733

 Mulliken charges:
               1
     1  Mg   0.831184
     2  C    0.091136
     3  C   -0.199567
     4  C   -0.144017
     5  C   -0.136264
     6  N   -0.650815
     7  C    0.294148
     8  C   -0.130158
     9  C   -0.180727
    10  C    0.380645
    11  C   -0.301267
    12  C   -0.167783
    13  C   -0.266610
    14  C    0.620572
    15  O   -0.515949
    16  O   -0.483871
    17  N   -0.739211
    18  C    0.278219
    19  C    0.052857
    20  C   -0.001929
    21  C    0.299964
    22  C   -0.390909
    23  C   -0.034934
    24  C   -0.263696
    25  N   -0.677163
    26  C    0.267353
    27  C    0.046447
    28  C   -0.014861
    29  C    0.288735
    30  C   -0.353414
    31  C   -0.214349
    32  C   -0.314860
    33  N   -0.724257
    34  C    0.267125
    35  C    0.004287
    36  C    0.068969
    37  C    0.271266
    38  C   -0.393817
    39  C    0.365239
    40  O   -0.406179
    41  C   -0.363663
    42  C    0.637377
    43  O   -0.472714
    44  O   -0.458765
    45  C   -0.086572
    46  C    0.042966
    47  C   -0.132202
    48  C    0.107839
    49  C   -0.372582
    50  C   -0.221052
    51  C   -0.184618
    52  C   -0.145595
    53  C   -0.057168
    54  C   -0.316836
    55  C   -0.169404
    56  C   -0.187883
    57  C   -0.169258
    58  C   -0.048706
    59  C   -0.322659
    60  C   -0.176514
    61  C   -0.182457
    62  C   -0.179855
    63  C   -0.041585
    64  C   -0.301940
    65  C   -0.282617
    66  H    0.083490
    67  H    0.088325
    68  H    0.099571
    69  H    0.129289
    70  H    0.101864
    71  H    0.095415
    72  H    0.101137
    73  H    0.118774
    74  H    0.119819
    75  H    0.112807
    76  H    0.144687
    77  H    0.142842
    78  H    0.109939
    79  H    0.135053
    80  H    0.100846
    81  H    0.088721
    82  H    0.083248
    83  H    0.109441
    84  H    0.115089
    85  H    0.089563
    86  H    0.112147
    87  H    0.082484
    88  H    0.095582
    89  H    0.123020
    90  H    0.129538
    91  H    0.095587
    92  H    0.118959
    93  H    0.133634
    94  H    0.122333
    95  H    0.165043
    96  H    0.119373
    97  H    0.124285
    98  H    0.119509
    99  H    0.133037
   100  H    0.110593
   101  H    0.065681
   102  H    0.082786
   103  H    0.127438
   104  H    0.125895
   105  H    0.093736
   106  H    0.099790
   107  H    0.090557
   108  H    0.097651
   109  H    0.102193
   110  H    0.076932
   111  H    0.062638
   112  H    0.102780
   113  H    0.114214
   114  H    0.098644
   115  H    0.079763
   116  H    0.088144
   117  H    0.084864
   118  H    0.087631
   119  H    0.082785
   120  H    0.095313
   121  H    0.094692
   122  H    0.096657
   123  H    0.099713
   124  H    0.114371
   125  H    0.083587
   126  H    0.078667
   127  H    0.099416
   128  H    0.096302
   129  H    0.097310
   130  H    0.086362
   131  H    0.085678
   132  H    0.103488
   133  H    0.111218
   134  H    0.083846
   135  H    0.097152
   136  H    0.057622
   137  H    0.064356
 Sum of Mulliken charges =   0.00000

 Dipole moment (field-independent basis, Debye):
    X=              0.3144    Y=              3.0141    Z=             -0.1132  Tot=              3.0325
 Quadrupole moment (field-independent basis, Debye-Ang):
   XX=           -347.2155   YY=           -391.1330   ZZ=           -401.3246
   XY=            -12.7158   XZ=              8.1656   YZ=             -4.8890

 Normal termination of Gaussian 09 at Fri Jun 28 12:13:13 2019.
