 Gaussian 09, Revision D.01,
 Gaussian 09:  ES64L-G09RevD.01 24-Apr-2013

 -------------------------------------
 # td=(NStates=1) CAM-B3LYP/6-31G(d,p)
 -------------------------------------

 --
 TD
 --
 Symbolic Z-matrix:
 Charge =  0 Multiplicity = 1

                         Standard orientation:
 ---------------------------------------------------------------------
 Center     Atomic      Atomic             Coordinates (Angstroms)
 Number     Number       Type             X           Y           Z
 ---------------------------------------------------------------------
      1         12           0       -7.039370    0.590143    0.160984
      2          6           0       -4.820906   -1.914080    0.580111
      3          6           0       -4.723984    2.849178    1.229064
      4          6           0       -9.360834    3.224713   -0.334552
      5          6           0       -9.427789   -1.702700   -0.860623
      6          7           0       -5.040802    0.432474    0.656458
      7          6           0       -4.363452   -0.722496    0.805939
      8          6           0       -2.909477   -0.481390    1.320489
      9          6           0       -3.044605    1.082744    1.677952
     10          6           0       -4.234631    1.503563    1.164126
     11          6           0       -2.982209    1.106547    3.266301
     12          6           0       -1.887312   -0.694306    0.215885
     13          6           0       -0.351111   -0.646039    0.618479
     14          6           0        0.491124   -0.614887   -0.607223
     15          8           0        0.113503   -0.774970   -1.775151
     16          8           0        1.783931   -0.474219   -0.197119
     17          7           0       -7.010440    2.656308    0.334339
     18          6           0       -5.994035    3.390309    0.781325
     19          6           0       -6.335096    4.779750    0.947560
     20          6           0       -7.583666    4.870879    0.434928
     21          6           0       -8.082409    3.505651    0.105703
     22          6           0       -5.368834    5.818007    1.350076
     23          6           0       -8.489713    6.077942    0.350214
     24          6           0       -8.160419    7.436259    0.237257
     25          7           0       -9.063921    0.678405   -0.523372
     26          6           0       -9.747867    1.811605   -0.580668
     27          6           0      -11.117678    1.580914   -0.991171
     28          6           0      -11.134993    0.184959   -1.213747
     29          6           0       -9.841870   -0.351403   -0.903933
     30          6           0      -12.266912    2.498244   -1.296232
     31          6           0      -12.255801   -0.634924   -1.631762
     32          6           0      -12.311228   -1.089356   -3.218488
     33          7           0       -7.253191   -1.357106   -0.189349
     34          6           0       -8.171639   -2.145772   -0.562770
     35          6           0       -7.785095   -3.564378   -0.526029
     36          6           0       -6.490154   -3.510270   -0.163723
     37          6           0       -6.159356   -2.148088    0.056525
     38          6           0       -8.655104   -4.763601   -0.920307
     39          6           0       -5.279058   -4.333654    0.093119
     40          8           0       -5.236468   -5.513333    0.159860
     41          6           0       -4.185217   -3.364546    0.595925
     42          6           0       -3.606745   -3.764957    1.893003
     43          8           0       -3.711007   -3.289141    2.984329
     44          8           0       -2.791146   -4.873796    1.704782
     45          6           0       -2.376919   -5.452993    2.946589
     46          6           0        2.744516   -0.619000   -1.312083
     47          6           0        4.135196   -0.541345   -0.685663
     48          6           0        5.082384    0.265746   -1.099785
     49          6           0        4.817247    1.173411   -2.366408
     50          6           0        6.356819    0.396766   -0.432611
     51          6           0        7.592013   -0.241501   -1.164835
     52          6           0        8.802869   -0.105853   -0.259907
     53          6           0       10.136574   -0.572116   -1.050829
     54          6           0       10.020146   -2.059224   -1.458716
     55          6           0       11.384530   -0.287889   -0.207556
     56          6           0       12.744398   -0.442132   -0.834072
     57          6           0       13.915135   -0.283312    0.142970
     58          6           0       15.260838   -0.298041   -0.504578
     59          6           0       15.795082   -1.644625   -0.965118
     60          6           0       16.371143    0.372069    0.488762
     61          6           0       17.797156    0.689112   -0.129105
     62          6           0       18.681140    1.311124    0.912857
     63          6           0       20.128387    1.426919    0.294341
     64          6           0       20.193935    2.398468   -0.864864
     65          6           0       20.962584    1.858653    1.577396
     66          1           0       -3.968960    3.475889    1.502857
     67          1           0      -10.141496    3.767204   -0.496344
     68          1           0      -10.041669   -2.387693   -1.351452
     69          1           0       -2.653188   -1.053007    2.155524
     70          1           0       -2.324159    1.665622    1.236244
     71          1           0       -2.011042    0.445729    3.783701
     72          1           0       -3.281680    2.157712    3.526103
     73          1           0       -3.760478    0.471861    3.977489
     74          1           0       -1.813882   -1.760638   -0.253659
     75          1           0       -2.100360    0.028926   -0.572097
     76          1           0       -0.051512    0.230163    1.036870
     77          1           0       -0.384410   -1.397288    1.483130
     78          1           0       -4.811145    6.355736    0.393344
     79          1           0       -6.069199    6.591896    1.573947
     80          1           0       -4.533037    5.409462    1.932465
     81          1           0       -9.525507    5.581107    0.580989
     82          1           0       -8.822015    8.267456    0.299230
     83          1           0       -7.032764    7.654475   -0.032377
     84          1           0      -12.104047    3.193392   -2.341796
     85          1           0      -13.123675    1.733358   -1.444785
     86          1           0      -12.589115    3.218633   -0.398577
     87          1           0      -12.370087   -1.570772   -1.014539
     88          1           0      -13.192710   -0.083054   -1.432802
     89          1           0      -13.132913   -1.784150   -3.408041
     90          1           0      -12.398347   -0.131464   -3.721454
     91          1           0      -11.322108   -1.632238   -3.609804
     92          1           0       -9.458420   -4.439713   -1.760748
     93          1           0       -8.164478   -5.767563   -1.099501
     94          1           0       -9.222412   -4.874407   -0.017133
     95          1           0       -3.316564   -3.507732   -0.018236
     96          1           0       -1.530880   -4.536196    3.161196
     97          1           0       -3.142940   -5.791880    3.708018
     98          1           0       -1.759993   -6.318058    2.724181
     99          1           0        2.551032   -1.531451   -1.700193
    100          1           0        2.595751    0.103375   -2.156682
    101          1           0        4.468741   -1.079250    0.229022
    102          1           0        3.828849    1.171119   -2.673074
    103          1           0        4.934151    2.222882   -2.016773
    104          1           0        5.691865    0.966401   -3.164390
    105          1           0        6.743080    1.582004   -0.119929
    106          1           0        6.179281   -0.129279    0.593505
    107          1           0        7.330895   -1.205814   -1.406344
    108          1           0        7.693675    0.306652   -2.130476
    109          1           0        8.880232    0.885459    0.335432
    110          1           0        8.719425   -0.767472    0.538940
    111          1           0       10.107285    0.037850   -2.024153
    112          1           0        8.988903   -2.069229   -2.057986
    113          1           0       10.870116   -2.423533   -1.890968
    114          1           0       10.024240   -2.628114   -0.711387
    115          1           0       11.279358    0.809917    0.278627
    116          1           0       11.626508   -1.225551    0.383146
    117          1           0       12.642909   -1.561510   -1.411211
    118          1           0       12.871670    0.155946   -1.805901
    119          1           0       13.629457    0.700388    0.879371
    120          1           0       13.698433   -1.163542    0.994682
    121          1           0       15.179839    0.242672   -1.254581
    122          1           0       15.524769   -2.283572   -0.035081
    123          1           0       15.255257   -2.376716   -1.725360
    124          1           0       17.023627   -1.607929   -0.984260
    125          1           0       15.807702    1.370986    0.976502
    126          1           0       16.397671   -0.289733    1.558037
    127          1           0       18.091290   -0.391677   -0.514789
    128          1           0       17.630564    1.221500   -1.047263
    129          1           0       18.357456    2.431409    1.266386
    130          1           0       18.770386    0.845579    1.825668
    131          1           0       20.509770    0.445432   -0.144497
    132          1           0       20.013687    3.331979   -0.580433
    133          1           0       21.381649    2.449814   -1.125710
    134          1           0       19.617986    2.105631   -1.636690
    135          1           0       20.739592    1.298018    2.530019
    136          1           0       22.098821    1.767264    1.303728
    137          1           0       20.737126    2.808768    1.993938
 ---------------------------------------------------------------------

 SCF Done:  E(RCAM-B3LYP) =  -2932.51448906     A.U. after   17 cycles

 Excitation energies and oscillator strengths:

 Excited State   1:      Singlet-A      2.1275 eV  582.77 nm  f=0.2222  <S**2>=0.000
     240 -> 243       -0.24518
     241 -> 242        0.64587
 This state for optimization and/or second-order correction.
 Total Energy, E(TD-HF/TD-KS) =  -2932.43630501
 Copying the excited state density for this state as the 1-particle RhoCI density.

 The electronic state is 1-A.
 Alpha  occ. eigenvalues --  -46.84551 -19.26751 -19.25291 -19.21659 -19.21336
 Alpha  occ. eigenvalues --  -19.21024 -14.41179 -14.40047 -14.39295 -14.38515
 Alpha  occ. eigenvalues --  -10.39927 -10.39068 -10.35480 -10.32330 -10.31854
 Alpha  occ. eigenvalues --  -10.31292 -10.30597 -10.29925 -10.29614 -10.29537
 Alpha  occ. eigenvalues --  -10.29439 -10.29162 -10.28820 -10.28801 -10.28326
 Alpha  occ. eigenvalues --  -10.28290 -10.28240 -10.28144 -10.28084 -10.28077
 Alpha  occ. eigenvalues --  -10.27828 -10.27561 -10.27464 -10.27345 -10.27327
 Alpha  occ. eigenvalues --  -10.27302 -10.27279 -10.27079 -10.27037 -10.27020
 Alpha  occ. eigenvalues --  -10.26999 -10.26967 -10.26941 -10.26921 -10.26639
 Alpha  occ. eigenvalues --  -10.26615 -10.26583 -10.26490 -10.26437 -10.26431
 Alpha  occ. eigenvalues --  -10.26323 -10.26287 -10.26269 -10.25950 -10.25773
 Alpha  occ. eigenvalues --  -10.25727 -10.25695 -10.25674 -10.25356 -10.25222
 Alpha  occ. eigenvalues --  -10.25210 -10.24976 -10.24687 -10.23637 -10.23367
 Alpha  occ. eigenvalues --   -3.13569  -1.88281  -1.87827  -1.87727  -1.18060
 Alpha  occ. eigenvalues --   -1.17418  -1.13584  -1.09210  -1.08683  -1.06609
 Alpha  occ. eigenvalues --   -1.04502  -1.03518  -1.03065  -0.93009  -0.91748
 Alpha  occ. eigenvalues --   -0.90580  -0.90096  -0.89414  -0.89020  -0.88979
 Alpha  occ. eigenvalues --   -0.88393  -0.88226  -0.87483  -0.87064  -0.86410
 Alpha  occ. eigenvalues --   -0.85508  -0.84428  -0.83359  -0.82728  -0.81692
 Alpha  occ. eigenvalues --   -0.81226  -0.81128  -0.80332  -0.79857  -0.77956
 Alpha  occ. eigenvalues --   -0.77392  -0.76806  -0.76717  -0.76319  -0.75703
 Alpha  occ. eigenvalues --   -0.74970  -0.74385  -0.73358  -0.72914  -0.72581
 Alpha  occ. eigenvalues --   -0.72206  -0.70278  -0.69645  -0.69211  -0.68607
 Alpha  occ. eigenvalues --   -0.67659  -0.66861  -0.66375  -0.64984  -0.64606
 Alpha  occ. eigenvalues --   -0.64327  -0.63777  -0.63575  -0.63236  -0.61906
 Alpha  occ. eigenvalues --   -0.61480  -0.60525  -0.59800  -0.59650  -0.59092
 Alpha  occ. eigenvalues --   -0.58719  -0.58024  -0.57565  -0.57382  -0.57221
 Alpha  occ. eigenvalues --   -0.56554  -0.56134  -0.55254  -0.54955  -0.54796
 Alpha  occ. eigenvalues --   -0.54685  -0.54034  -0.53519  -0.53216  -0.52815
 Alpha  occ. eigenvalues --   -0.52782  -0.52667  -0.52193  -0.51853  -0.51653
 Alpha  occ. eigenvalues --   -0.51496  -0.51382  -0.51275  -0.50651  -0.50295
 Alpha  occ. eigenvalues --   -0.50200  -0.49984  -0.49837  -0.49791  -0.49694
 Alpha  occ. eigenvalues --   -0.49554  -0.49292  -0.49053  -0.48849  -0.48645
 Alpha  occ. eigenvalues --   -0.48321  -0.47962  -0.47652  -0.47467  -0.47215
 Alpha  occ. eigenvalues --   -0.46955  -0.46778  -0.46672  -0.46245  -0.46073
 Alpha  occ. eigenvalues --   -0.45898  -0.45639  -0.45518  -0.45261  -0.45176
 Alpha  occ. eigenvalues --   -0.45014  -0.44750  -0.44713  -0.44555  -0.44126
 Alpha  occ. eigenvalues --   -0.43886  -0.43666  -0.43463  -0.43408  -0.43243
 Alpha  occ. eigenvalues --   -0.42979  -0.42777  -0.42697  -0.42415  -0.42207
 Alpha  occ. eigenvalues --   -0.41963  -0.41608  -0.41347  -0.41219  -0.41108
 Alpha  occ. eigenvalues --   -0.40820  -0.40660  -0.40405  -0.40280  -0.40174
 Alpha  occ. eigenvalues --   -0.39959  -0.39947  -0.39607  -0.39219  -0.39131
 Alpha  occ. eigenvalues --   -0.38959  -0.38832  -0.38577  -0.37811  -0.37653
 Alpha  occ. eigenvalues --   -0.37287  -0.37213  -0.37017  -0.36988  -0.36637
 Alpha  occ. eigenvalues --   -0.36485  -0.35997  -0.35805  -0.35309  -0.35066
 Alpha  occ. eigenvalues --   -0.34736  -0.34502  -0.34394  -0.34189  -0.33970
 Alpha  occ. eigenvalues --   -0.32753  -0.32630  -0.32341  -0.30938  -0.30661
 Alpha  occ. eigenvalues --   -0.30331  -0.30070  -0.28056  -0.27027  -0.23480
 Alpha  occ. eigenvalues --   -0.21117
 Alpha virt. eigenvalues --   -0.05883  -0.03360   0.01993   0.03365   0.04679
 Alpha virt. eigenvalues --    0.05504   0.05957   0.06079   0.06580   0.07211
 Alpha virt. eigenvalues --    0.09227   0.10326   0.10665   0.10780   0.11068

 Mulliken charges:
               1
     1  Mg   0.823503
     2  C    0.082206
     3  C   -0.212739
     4  C   -0.090141
     5  C   -0.148663
     6  N   -0.678415
     7  C    0.314555
     8  C   -0.152291
     9  C   -0.160928
    10  C    0.353022
    11  C   -0.300696
    12  C   -0.176879
    13  C   -0.274680
    14  C    0.626516
    15  O   -0.485519
    16  O   -0.487418
    17  N   -0.701707
    18  C    0.334292
    19  C    0.041405
    20  C   -0.037592
    21  C    0.316266
    22  C   -0.357510
    23  C   -0.059357
    24  C   -0.271123
    25  N   -0.687049
    26  C    0.259141
    27  C    0.020004
    28  C    0.031810
    29  C    0.283641
    30  C   -0.358142
    31  C   -0.280471
    32  C   -0.308500
    33  N   -0.699102
    34  C    0.283363
    35  C   -0.002906
    36  C    0.002901
    37  C    0.241921
    38  C   -0.366766
    39  C    0.381382
    40  O   -0.418613
    41  C   -0.319881
    42  C    0.628719
    43  O   -0.459977
    44  O   -0.473268
    45  C   -0.060265
    46  C    0.016099
    47  C   -0.146907
    48  C    0.148782
    49  C   -0.351637
    50  C   -0.236487
    51  C   -0.175377
    52  C   -0.173348
    53  C   -0.060838
    54  C   -0.307099
    55  C   -0.157689
    56  C   -0.178316
    57  C   -0.152589
    58  C   -0.016400
    59  C   -0.311848
    60  C   -0.181095
    61  C   -0.177912
    62  C   -0.148808
    63  C   -0.059030
    64  C   -0.287123
    65  C   -0.325836
    66  H    0.062832
    67  H    0.072256
    68  H    0.086220
    69  H    0.118096
    70  H    0.121356
    71  H    0.091783
    72  H    0.109371
    73  H    0.115352
    74  H    0.106736
    75  H    0.116397
    76  H    0.139689
    77  H    0.137734
    78  H    0.096171
    79  H    0.131933
    80  H    0.121731
    81  H    0.094876
    82  H    0.123152
    83  H    0.102341
    84  H    0.097364
    85  H    0.106563
    86  H    0.102436
    87  H    0.099651
    88  H    0.097248
    89  H    0.109855
    90  H    0.117763
    91  H    0.090522
    92  H    0.105065
    93  H    0.145589
    94  H    0.144209
    95  H    0.171953
    96  H    0.087618
    97  H    0.136457
    98  H    0.124163
    99  H    0.137802
   100  H    0.128845
   101  H    0.085680
   102  H    0.111680
   103  H    0.113722
   104  H    0.103629
   105  H    0.069718
   106  H    0.085823
   107  H    0.118135
   108  H    0.095885
   109  H    0.082223
   110  H    0.107248
   111  H    0.073878
   112  H    0.088078
   113  H    0.106874
   114  H    0.114690
   115  H    0.075744
   116  H    0.094612
   117  H    0.047823
   118  H    0.078621
   119  H    0.072336
   120  H    0.062359
   121  H    0.102735
   122  H    0.091759
   123  H    0.101215
   124  H    0.086850
   125  H    0.059204
   126  H    0.061427
   127  H    0.083062
   128  H    0.112440
   129  H    0.070731
   130  H    0.109146
   131  H    0.085881
   132  H    0.115220
   133  H    0.069750
   134  H    0.113022
   135  H    0.094233
   136  H    0.083199
   137  H    0.109644
 Sum of Mulliken charges =   0.00000

 Dipole moment (field-independent basis, Debye):
    X=              2.1907    Y=              3.2203    Z=              0.9033  Tot=              3.9981
 Quadrupole moment (field-independent basis, Debye-Ang):
   XX=           -363.1154   YY=           -389.0476   ZZ=           -401.9707
   XY=            -12.1350   XZ=              2.8383   YZ=             -1.1682

 Normal termination of Gaussian 09 at Fri Jun 28 07:21:58 2019.
