 Gaussian 09, Revision D.01,
 Gaussian 09:  ES64L-G09RevD.01 24-Apr-2013

 -------------------------------------
 # td=(NStates=1) CAM-B3LYP/6-31G(d,p)
 -------------------------------------

 --
 TD
 --
 Symbolic Z-matrix:
 Charge =  0 Multiplicity = 1

                         Standard orientation:
 ---------------------------------------------------------------------
 Center     Atomic      Atomic             Coordinates (Angstroms)
 Number     Number       Type             X           Y           Z
 ---------------------------------------------------------------------
      1         12           0       -7.134720    0.607543    0.115369
      2          6           0       -4.907087   -1.923567    0.530000
      3          6           0       -4.865324    2.884958    1.231147
      4          6           0       -9.454836    3.168331   -0.439293
      5          6           0       -9.551656   -1.713085   -0.746342
      6          7           0       -5.054160    0.493057    0.608794
      7          6           0       -4.291605   -0.664347    0.746886
      8          6           0       -2.884873   -0.398501    1.253571
      9          6           0       -3.072354    1.121286    1.738012
     10          6           0       -4.449884    1.564120    1.141510
     11          6           0       -3.123263    1.149265    3.279040
     12          6           0       -1.829713   -0.448389    0.001598
     13          6           0       -0.369338   -0.431650    0.464363
     14          6           0        0.499990   -0.697808   -0.780871
     15          8           0        0.274418   -1.112642   -1.887898
     16          8           0        1.845426   -0.472017   -0.363907
     17          7           0       -7.125091    2.594304    0.291371
     18          6           0       -6.148327    3.518631    0.817194
     19          6           0       -6.514070    4.796616    0.939111
     20          6           0       -7.872397    4.834439    0.528691
     21          6           0       -8.210234    3.535786    0.126125
     22          6           0       -5.637492    5.903943    1.376822
     23          6           0       -8.815346    5.976840    0.328685
     24          6           0       -8.400246    7.312915    0.154597
     25          7           0       -9.201083    0.702265   -0.515515
     26          6           0       -9.977893    1.811592   -0.661539
     27          6           0      -11.258872    1.448080   -1.106826
     28          6           0      -11.207391    0.096707   -1.334922
     29          6           0       -9.922540   -0.363582   -0.879825
     30          6           0      -12.434537    2.392740   -1.474237
     31          6           0      -12.262074   -0.775626   -1.655335
     32          6           0      -12.219149   -1.323195   -3.148696
     33          7           0       -7.226258   -1.442971   -0.178775
     34          6           0       -8.293307   -2.252609   -0.443148
     35          6           0       -7.814357   -3.634261   -0.452459
     36          6           0       -6.506727   -3.618247    0.001969
     37          6           0       -6.169281   -2.205817    0.032727
     38          6           0       -8.745840   -4.783054   -0.718180
     39          6           0       -5.324340   -4.394362    0.264693
     40          8           0       -5.113581   -5.570803    0.242787
     41          6           0       -4.154882   -3.314803    0.623185
     42          6           0       -3.524033   -3.683672    1.915190
     43          8           0       -3.587977   -3.041079    2.954978
     44          8           0       -2.717301   -4.742266    1.762639
     45          6           0       -2.150945   -5.218652    2.983309
     46          6           0        2.842084   -0.631995   -1.377542
     47          6           0        4.143212   -0.384825   -0.774654
     48          6           0        5.231433    0.235190   -1.091673
     49          6           0        5.139097    1.140435   -2.343996
     50          6           0        6.454249    0.256477   -0.334150
     51          6           0        7.621464   -0.251971   -1.025144
     52          6           0        8.880417   -0.259402   -0.153778
     53          6           0       10.155192   -0.518005   -0.834694
     54          6           0       10.214111   -1.985841   -1.321742
     55          6           0       11.463822   -0.189717    0.087718
     56          6           0       12.825933   -0.486010   -0.635415
     57          6           0       14.020266   -0.011119    0.210205
     58          6           0       15.406762   -0.126453   -0.592267
     59          6           0       15.675295   -1.554269   -0.928907
     60          6           0       16.453183    0.479326    0.378078
     61          6           0       17.898953    0.530865   -0.103721
     62          6           0       18.814743    1.201646    0.901483
     63          6           0       20.303605    1.326155    0.342295
     64          6           0       20.445803    2.120057   -0.966434
     65          6           0       21.186288    2.010399    1.427252
     66          1           0       -4.033868    3.605086    1.412640
     67          1           0      -10.110844    3.990049   -0.854620
     68          1           0      -10.348197   -2.633913   -1.066546
     69          1           0       -2.593761   -1.115891    2.206290
     70          1           0       -2.325363    1.971670    1.363426
     71          1           0       -2.218290    1.084581    3.810886
     72          1           0       -3.288476    2.133863    3.640851
     73          1           0       -3.793480    0.517887    3.671404
     74          1           0       -1.828511   -1.414616   -0.463283
     75          1           0       -2.107307    0.483755   -0.634182
     76          1           0        0.063036    0.400875    0.744671
     77          1           0       -0.334053   -1.369159    1.025369
     78          1           0       -4.948591    6.197136    0.465261
     79          1           0       -6.375908    6.572967    1.804318
     80          1           0       -4.991782    5.704079    2.078061
     81          1           0       -9.856605    5.834992    0.416379
     82          1           0       -9.093729    8.046879   -0.049253
     83          1           0       -7.217456    7.449751    0.037725
     84          1           0      -11.960170    3.170706   -2.033110
     85          1           0      -13.116301    1.715385   -2.223585
     86          1           0      -13.122094    2.892230   -0.414414
     87          1           0      -12.210149   -1.622182   -1.083282
     88          1           0      -13.196988   -0.327660   -1.600575
     89          1           0      -13.069824   -2.082309   -3.238060
     90          1           0      -12.219640   -0.616642   -3.661743
     91          1           0      -11.290247   -1.869185   -3.331703
     92          1           0       -9.216473   -5.074398   -1.810437
     93          1           0       -8.454291   -5.707614   -0.556616
     94          1           0       -9.613015   -4.615662    0.107654
     95          1           0       -3.432849   -3.418269   -0.087154
     96          1           0       -1.680880   -4.330538    3.729927
     97          1           0       -2.983176   -5.743844    3.559136
     98          1           0       -1.447156   -5.973739    2.700526
     99          1           0        2.738618   -1.646119   -1.641911
    100          1           0        2.568500   -0.110220   -2.350763
    101          1           0        4.190791   -1.030760    0.184212
    102          1           0        4.212457    1.249959   -3.071550
    103          1           0        5.640409    2.016605   -1.971936
    104          1           0        6.003829    0.692731   -3.031660
    105          1           0        6.673330    1.313735    0.062679
    106          1           0        6.183254   -0.308739    0.492431
    107          1           0        7.464896   -1.360705   -1.175450
    108          1           0        7.771454    0.228382   -1.977544
    109          1           0        8.962744    0.789185    0.324557
    110          1           0        8.574164   -0.937230    0.714170
    111          1           0       10.131214    0.332405   -1.710851
    112          1           0        9.191334   -2.240052   -1.796052
    113          1           0       11.167134   -2.468691   -1.939300
    114          1           0       10.349979   -2.690770   -0.465035
    115          1           0       11.384382    0.980435    0.330502
    116          1           0       11.372339   -0.684097    1.156020
    117          1           0       12.840699   -1.553331   -0.987432
    118          1           0       12.784879   -0.064474   -1.693000
    119          1           0       13.673379    1.006681    0.413724
    120          1           0       13.970635   -0.713537    0.902558
    121          1           0       15.366046    0.572395   -1.446869
    122          1           0       15.714175   -2.062102    0.145981
    123          1           0       15.061678   -2.048785   -1.521154
    124          1           0       16.607522   -1.675531   -1.763454
    125          1           0       16.146652    1.545371    0.481402
    126          1           0       16.268137   -0.113707    1.307562
    127          1           0       18.299569   -0.554705   -0.246846
    128          1           0       18.089376    1.370643   -0.928305
    129          1           0       18.622318    2.272220    1.192194
    130          1           0       18.724665    0.563938    1.698039
    131          1           0       20.781769    0.372165    0.006185
    132          1           0       19.869136    3.013567   -0.812238
    133          1           0       21.536093    2.239738   -1.181477
    134          1           0       19.943366    1.443807   -1.819415
    135          1           0       21.008727    1.651925    2.376964
    136          1           0       22.165528    2.049311    1.210787
    137          1           0       20.746049    3.063633    1.373966
 ---------------------------------------------------------------------

 SCF Done:  E(RCAM-B3LYP) =  -2932.58195017     A.U. after   18 cycles

 Excitation energies and oscillator strengths:

 Excited State   1:      Singlet-A      1.9597 eV  632.67 nm  f=0.2279  <S**2>=0.000
     240 -> 243        0.28090
     241 -> 242        0.63841
 This state for optimization and/or second-order correction.
 Total Energy, E(TD-HF/TD-KS) =  -2932.50993290
 Copying the excited state density for this state as the 1-particle RhoCI density.

 The electronic state is 1-A.
 Alpha  occ. eigenvalues --  -46.85043 -19.26864 -19.24539 -19.22229 -19.21237
 Alpha  occ. eigenvalues --  -19.20660 -14.41600 -14.39715 -14.39135 -14.39097
 Alpha  occ. eigenvalues --  -10.39464 -10.39121 -10.35834 -10.32503 -10.31662
 Alpha  occ. eigenvalues --  -10.30558 -10.30439 -10.29883 -10.29684 -10.29489
 Alpha  occ. eigenvalues --  -10.29444 -10.29379 -10.29370 -10.29357 -10.29200
 Alpha  occ. eigenvalues --  -10.28942 -10.28904 -10.28704 -10.28596 -10.28165
 Alpha  occ. eigenvalues --  -10.28059 -10.28042 -10.27816 -10.27722 -10.27593
 Alpha  occ. eigenvalues --  -10.27523 -10.27516 -10.27334 -10.27211 -10.26755
 Alpha  occ. eigenvalues --  -10.26734 -10.26298 -10.26262 -10.26208 -10.25994
 Alpha  occ. eigenvalues --  -10.25895 -10.25873 -10.25860 -10.25793 -10.25717
 Alpha  occ. eigenvalues --  -10.25677 -10.25517 -10.25435 -10.25304 -10.25240
 Alpha  occ. eigenvalues --  -10.25197 -10.24974 -10.24895 -10.24813 -10.24328
 Alpha  occ. eigenvalues --  -10.24142 -10.23889 -10.23322 -10.23254 -10.22928
 Alpha  occ. eigenvalues --   -3.13867  -1.88586  -1.88079  -1.88062  -1.18886
 Alpha  occ. eigenvalues --   -1.16805  -1.12855  -1.09009  -1.08865  -1.05378
 Alpha  occ. eigenvalues --   -1.03949  -1.03124  -1.01038  -0.92900  -0.92165
 Alpha  occ. eigenvalues --   -0.90287  -0.89820  -0.89666  -0.89118  -0.88315
 Alpha  occ. eigenvalues --   -0.88218  -0.88203  -0.87574  -0.86732  -0.86063
 Alpha  occ. eigenvalues --   -0.85164  -0.84364  -0.83867  -0.83409  -0.82358
 Alpha  occ. eigenvalues --   -0.81408  -0.81077  -0.80096  -0.79840  -0.78482
 Alpha  occ. eigenvalues --   -0.78018  -0.77230  -0.76063  -0.75724  -0.75573
 Alpha  occ. eigenvalues --   -0.75213  -0.75167  -0.73761  -0.73383  -0.72728
 Alpha  occ. eigenvalues --   -0.72059  -0.70955  -0.70467  -0.69258  -0.68394
 Alpha  occ. eigenvalues --   -0.66826  -0.66356  -0.65038  -0.64425  -0.64108
 Alpha  occ. eigenvalues --   -0.63381  -0.62305  -0.62237  -0.61637  -0.61552
 Alpha  occ. eigenvalues --   -0.61479  -0.60750  -0.59817  -0.59486  -0.59185
 Alpha  occ. eigenvalues --   -0.59043  -0.58330  -0.58065  -0.57921  -0.56878
 Alpha  occ. eigenvalues --   -0.56309  -0.56176  -0.55925  -0.55528  -0.55056
 Alpha  occ. eigenvalues --   -0.54881  -0.54756  -0.54597  -0.54046  -0.53202
 Alpha  occ. eigenvalues --   -0.52805  -0.52739  -0.52322  -0.52088  -0.51985
 Alpha  occ. eigenvalues --   -0.51445  -0.51164  -0.51086  -0.50866  -0.50677
 Alpha  occ. eigenvalues --   -0.50446  -0.50364  -0.50276  -0.49772  -0.49615
 Alpha  occ. eigenvalues --   -0.49437  -0.48828  -0.48551  -0.48478  -0.48419
 Alpha  occ. eigenvalues --   -0.47836  -0.47809  -0.47682  -0.47428  -0.46853
 Alpha  occ. eigenvalues --   -0.46384  -0.46278  -0.46066  -0.46026  -0.45711
 Alpha  occ. eigenvalues --   -0.45360  -0.45286  -0.44870  -0.44789  -0.44677
 Alpha  occ. eigenvalues --   -0.44549  -0.44448  -0.44270  -0.44042  -0.43921
 Alpha  occ. eigenvalues --   -0.43798  -0.43721  -0.43622  -0.43534  -0.43347
 Alpha  occ. eigenvalues --   -0.42999  -0.42899  -0.42772  -0.42458  -0.42376
 Alpha  occ. eigenvalues --   -0.42193  -0.41990  -0.41656  -0.41433  -0.41283
 Alpha  occ. eigenvalues --   -0.41101  -0.40897  -0.40749  -0.40432  -0.40271
 Alpha  occ. eigenvalues --   -0.40047  -0.39894  -0.39837  -0.39750  -0.39313
 Alpha  occ. eigenvalues --   -0.39246  -0.38707  -0.38266  -0.38003  -0.37558
 Alpha  occ. eigenvalues --   -0.37473  -0.37272  -0.36771  -0.36769  -0.36721
 Alpha  occ. eigenvalues --   -0.36287  -0.36208  -0.35787  -0.35419  -0.35305
 Alpha  occ. eigenvalues --   -0.35181  -0.34902  -0.34479  -0.34057  -0.33768
 Alpha  occ. eigenvalues --   -0.33578  -0.32516  -0.31963  -0.31064  -0.30382
 Alpha  occ. eigenvalues --   -0.30030  -0.29769  -0.27887  -0.27001  -0.22652
 Alpha  occ. eigenvalues --   -0.21712
 Alpha virt. eigenvalues --   -0.07211  -0.03874   0.00739   0.03823   0.05341
 Alpha virt. eigenvalues --    0.05832   0.06068   0.06824   0.07037   0.07745
 Alpha virt. eigenvalues --    0.08074   0.10332   0.11010   0.11303   0.11423

 Mulliken charges:
               1
     1  Mg   0.820112
     2  C    0.053399
     3  C   -0.214977
     4  C   -0.192901
     5  C   -0.184142
     6  N   -0.626726
     7  C    0.290557
     8  C   -0.177020
     9  C   -0.155787
    10  C    0.351110
    11  C   -0.309199
    12  C   -0.169051
    13  C   -0.233031
    14  C    0.582830
    15  O   -0.453156
    16  O   -0.517724
    17  N   -0.697238
    18  C    0.281982
    19  C    0.027164
    20  C    0.011435
    21  C    0.289207
    22  C   -0.353746
    23  C   -0.095454
    24  C   -0.242402
    25  N   -0.679655
    26  C    0.282363
    27  C   -0.001765
    28  C    0.052682
    29  C    0.320446
    30  C   -0.333998
    31  C   -0.270257
    32  C   -0.294534
    33  N   -0.709262
    34  C    0.291443
    35  C    0.011733
    36  C    0.041750
    37  C    0.269568
    38  C   -0.372363
    39  C    0.347771
    40  O   -0.432987
    41  C   -0.322018
    42  C    0.624697
    43  O   -0.487955
    44  O   -0.435629
    45  C   -0.084568
    46  C    0.035614
    47  C   -0.138857
    48  C    0.143847
    49  C   -0.359611
    50  C   -0.225124
    51  C   -0.174513
    52  C   -0.166520
    53  C   -0.030708
    54  C   -0.311571
    55  C   -0.173347
    56  C   -0.200652
    57  C   -0.159986
    58  C   -0.074601
    59  C   -0.281090
    60  C   -0.150585
    61  C   -0.179999
    62  C   -0.161638
    63  C   -0.079591
    64  C   -0.304878
    65  C   -0.297002
    66  H    0.070711
    67  H    0.101626
    68  H    0.099270
    69  H    0.136181
    70  H    0.083017
    71  H    0.108266
    72  H    0.103818
    73  H    0.135626
    74  H    0.126112
    75  H    0.112582
    76  H    0.141521
    77  H    0.153539
    78  H    0.112240
    79  H    0.128328
    80  H    0.127163
    81  H    0.104783
    82  H    0.111298
    83  H    0.107068
    84  H    0.131158
    85  H    0.099074
    86  H    0.079259
    87  H    0.112841
    88  H    0.104951
    89  H    0.090524
    90  H    0.111924
    91  H    0.101596
    92  H    0.106749
    93  H    0.149012
    94  H    0.109334
    95  H    0.165141
    96  H    0.117019
    97  H    0.126251
    98  H    0.129543
    99  H    0.125510
   100  H    0.104305
   101  H    0.062987
   102  H    0.115718
   103  H    0.116587
   104  H    0.091391
   105  H    0.093931
   106  H    0.109591
   107  H    0.098605
   108  H    0.099314
   109  H    0.075382
   110  H    0.083912
   111  H    0.068369
   112  H    0.096123
   113  H    0.082680
   114  H    0.106540
   115  H    0.067972
   116  H    0.078971
   117  H    0.087236
   118  H    0.082053
   119  H    0.100119
   120  H    0.105036
   121  H    0.081710
   122  H    0.082219
   123  H    0.121372
   124  H    0.069578
   125  H    0.087301
   126  H    0.078634
   127  H    0.092758
   128  H    0.081398
   129  H    0.080883
   130  H    0.099061
   131  H    0.076615
   132  H    0.100898
   133  H    0.103877
   134  H    0.089857
   135  H    0.107784
   136  H    0.105479
   137  H    0.078830
 Sum of Mulliken charges =   0.00000

 Dipole moment (field-independent basis, Debye):
    X=              0.2988    Y=              2.8035    Z=              0.6132  Tot=              2.8853
 Quadrupole moment (field-independent basis, Debye-Ang):
   XX=           -351.8240   YY=           -386.1712   ZZ=           -400.9655
   XY=            -16.8153   XZ=             10.3984   YZ=             -3.2186

 Normal termination of Gaussian 09 at Fri Jun 28 20:02:32 2019.
