 Gaussian 09, Revision D.01,
 Gaussian 09:  ES64L-G09RevD.01 24-Apr-2013

 -------------------------------------
 # td=(NStates=1) CAM-B3LYP/6-31G(d,p)
 -------------------------------------

 --
 TD
 --
 Symbolic Z-matrix:
 Charge =  0 Multiplicity = 1

                         Standard orientation:
 ---------------------------------------------------------------------
 Center     Atomic      Atomic             Coordinates (Angstroms)
 Number     Number       Type             X           Y           Z
 ---------------------------------------------------------------------
      1         12           0       -7.193272    0.511298    0.150253
      2          6           0       -4.854516   -1.942495    0.472725
      3          6           0       -4.851781    2.808557    1.056731
      4          6           0       -9.465779    3.020537   -0.247218
      5          6           0       -9.592480   -1.713705   -0.625703
      6          7           0       -5.103937    0.462292    0.690792
      7          6           0       -4.348749   -0.736194    0.750475
      8          6           0       -2.873161   -0.444113    1.163231
      9          6           0       -3.002306    1.087967    1.555208
     10          6           0       -4.363624    1.444760    1.091153
     11          6           0       -2.773581    1.222673    3.070327
     12          6           0       -1.927055   -0.554031    0.006534
     13          6           0       -0.411965   -0.315185    0.388997
     14          6           0        0.485151   -0.596456   -0.752185
     15          8           0        0.056487   -0.989047   -1.846835
     16          8           0        1.735730   -0.398952   -0.320691
     17          7           0       -7.199415    2.645238    0.340204
     18          6           0       -6.172881    3.415997    0.780053
     19          6           0       -6.491251    4.781571    0.861450
     20          6           0       -7.695412    4.832248    0.320939
     21          6           0       -8.249013    3.471809    0.216491
     22          6           0       -5.571209    5.880768    1.272767
     23          6           0       -8.534728    6.022933    0.283974
     24          6           0       -8.172649    7.201432   -0.038368
     25          7           0       -9.179206    0.675625   -0.354276
     26          6           0       -9.923658    1.791046   -0.566370
     27          6           0      -11.290048    1.457910   -0.980367
     28          6           0      -11.300139    0.068363   -1.105969
     29          6           0      -10.008063   -0.428612   -0.761615
     30          6           0      -12.339900    2.425148   -1.197855
     31          6           0      -12.424810   -0.714535   -1.658240
     32          6           0      -12.496367   -1.060017   -3.117599
     33          7           0       -7.300962   -1.448040    0.024407
     34          6           0       -8.342921   -2.267643   -0.304700
     35          6           0       -7.931143   -3.612667   -0.362588
     36          6           0       -6.492832   -3.465231   -0.148822
     37          6           0       -6.195350   -2.115436    0.168020
     38          6           0       -8.584297   -4.823638   -0.718355
     39          6           0       -5.346331   -4.321552    0.191236
     40          8           0       -5.128612   -5.589703    0.173547
     41          6           0       -4.120076   -3.326934    0.380578
     42          6           0       -3.362376   -3.608630    1.708804
     43          8           0       -3.670599   -3.122178    2.839925
     44          8           0       -2.552184   -4.622049    1.468251
     45          6           0       -1.918663   -5.332251    2.590640
     46          6           0        2.792470   -0.584720   -1.271957
     47          6           0        4.093505   -0.336113   -0.540391
     48          6           0        5.101428    0.298638   -0.963520
     49          6           0        5.155082    1.081370   -2.313568
     50          6           0        6.412837    0.298505   -0.225180
     51          6           0        7.578426   -0.156638   -1.056192
     52          6           0        8.872111   -0.178781   -0.077303
     53          6           0       10.224180   -0.600122   -0.793662
     54          6           0       10.208628   -2.052175   -1.236053
     55          6           0       11.529789   -0.233268    0.047766
     56          6           0       12.797782   -0.618147   -0.644675
     57          6           0       13.981540    0.015397    0.303186
     58          6           0       15.320385   -0.172862   -0.391206
     59          6           0       15.691312   -1.746436   -0.763912
     60          6           0       16.491559    0.281973    0.553449
     61          6           0       17.786551    0.723842   -0.163221
     62          6           0       18.824551    1.163786    0.843351
     63          6           0       20.267558    1.397091    0.253308
     64          6           0       20.119519    2.337188   -1.061756
     65          6           0       21.227516    2.021102    1.186113
     66          1           0       -4.085845    3.558639    1.457248
     67          1           0      -10.375371    3.902518   -0.333685
     68          1           0      -10.395341   -2.617904   -0.589969
     69          1           0       -2.693687   -0.986266    2.009930
     70          1           0       -2.122816    1.645261    1.151344
     71          1           0       -1.742866    1.074617    3.353015
     72          1           0       -2.637249    2.307943    3.660566
     73          1           0       -3.614252    0.700323    3.636521
     74          1           0       -2.106676   -1.652341   -0.278141
     75          1           0       -2.055644    0.072278   -0.825462
     76          1           0       -0.129954    0.735014    0.761131
     77          1           0       -0.228788   -0.951222    1.305160
     78          1           0       -4.934918    6.357187    0.326823
     79          1           0       -6.227175    6.453739    1.738654
     80          1           0       -4.791025    5.479356    1.878005
     81          1           0       -9.663776    5.748748    0.376710
     82          1           0       -8.826753    8.068366    0.206979
     83          1           0       -7.087529    7.632719   -0.152971
     84          1           0      -12.178440    3.094703   -2.101637
     85          1           0      -13.110421    1.880885   -1.253633
     86          1           0      -12.442398    3.006908   -0.393858
     87          1           0      -12.540806   -1.758919   -1.175247
     88          1           0      -13.276174   -0.122070   -1.245422
     89          1           0      -13.320782   -1.717031   -3.575495
     90          1           0      -12.530297   -0.075930   -3.548082
     91          1           0      -11.513544   -1.705909   -3.453270
     92          1           0       -9.037154   -4.792450   -1.680155
     93          1           0       -7.867165   -5.652095   -0.823943
     94          1           0       -9.437257   -5.175286    0.075650
     95          1           0       -3.343152   -3.359891   -0.525079
     96          1           0       -1.239232   -4.646914    3.293412
     97          1           0       -2.736929   -5.859046    3.221676
     98          1           0       -1.246943   -6.002694    2.014844
     99          1           0        2.627655   -1.689997   -1.705024
    100          1           0        2.475860    0.116108   -2.001228
    101          1           0        4.251692   -0.799122    0.429051
    102          1           0        4.316287    1.297407   -2.884361
    103          1           0        5.532930    2.076010   -2.110368
    104          1           0        5.812466    0.759224   -3.175658
    105          1           0        6.852993    1.283057    0.104134
    106          1           0        6.239971   -0.351682    0.506002
    107          1           0        7.547905   -1.206139   -1.297837
    108          1           0        7.710258    0.468536   -1.987320
    109          1           0        8.769219    0.773930    0.573285
    110          1           0        8.925588   -0.959805    0.817110
    111          1           0       10.382495   -0.067486   -1.752832
    112          1           0        9.529521   -2.233350   -1.989248
    113          1           0       11.291087   -2.398494   -1.714862
    114          1           0        9.909264   -2.790467   -0.358610
    115          1           0       11.343861    0.780811    0.142568
    116          1           0       11.394626   -0.638486    1.054271
    117          1           0       12.764318   -1.773852   -0.625302
    118          1           0       13.050467   -0.127813   -1.675400
    119          1           0       13.734454    0.964749    0.349589
    120          1           0       14.018562   -0.547095    1.197307
    121          1           0       15.349046    0.339827   -1.320746
    122          1           0       15.547940   -2.385209    0.116307
    123          1           0       15.007395   -2.292630   -1.552048
    124          1           0       16.767674   -1.764289   -1.189742
    125          1           0       16.025539    1.021468    1.166326
    126          1           0       16.852917   -0.540015    1.278927
    127          1           0       18.268945   -0.118533   -0.751304
    128          1           0       17.757001    1.408980   -0.834650
    129          1           0       18.433338    2.061284    1.366523
    130          1           0       18.772070    0.463324    1.620401
    131          1           0       20.573927    0.381360    0.084653
    132          1           0       19.706568    3.366210   -0.883829
    133          1           0       21.174050    2.571447   -1.568552
    134          1           0       19.687205    1.858757   -1.835442
    135          1           0       21.140324    1.569659    2.205001
    136          1           0       22.318570    1.839242    0.700924
    137          1           0       20.757107    2.969726    1.192152
 ---------------------------------------------------------------------

 SCF Done:  E(RCAM-B3LYP) =  -2932.64622793     A.U. after   18 cycles

 Excitation energies and oscillator strengths:

 Excited State   1:      Singlet-A      2.1068 eV  588.50 nm  f=0.2078  <S**2>=0.000
     240 -> 243       -0.24250
     241 -> 242        0.65330
 This state for optimization and/or second-order correction.
 Total Energy, E(TD-HF/TD-KS) =  -2932.56880526
 Copying the excited state density for this state as the 1-particle RhoCI density.

 The electronic state is 1-A.
 Alpha  occ. eigenvalues --  -46.84691 -19.27180 -19.26821 -19.21179 -19.20228
 Alpha  occ. eigenvalues --  -19.18751 -14.41968 -14.39202 -14.38930 -14.38832
 Alpha  occ. eigenvalues --  -10.39418 -10.39376 -10.34560 -10.33438 -10.33092
 Alpha  occ. eigenvalues --  -10.31369 -10.30254 -10.29666 -10.29481 -10.29349
 Alpha  occ. eigenvalues --  -10.28823 -10.28521 -10.28296 -10.28150 -10.27857
 Alpha  occ. eigenvalues --  -10.27828 -10.27787 -10.27631 -10.27529 -10.27274
 Alpha  occ. eigenvalues --  -10.27225 -10.27218 -10.27141 -10.26853 -10.26652
 Alpha  occ. eigenvalues --  -10.26640 -10.26616 -10.26565 -10.26546 -10.26420
 Alpha  occ. eigenvalues --  -10.26404 -10.26395 -10.26391 -10.26365 -10.26360
 Alpha  occ. eigenvalues --  -10.26339 -10.26293 -10.26242 -10.25994 -10.25964
 Alpha  occ. eigenvalues --  -10.25925 -10.25824 -10.25710 -10.25709 -10.25655
 Alpha  occ. eigenvalues --  -10.25448 -10.25269 -10.25261 -10.24775 -10.24517
 Alpha  occ. eigenvalues --  -10.24322 -10.23916 -10.23854 -10.23808 -10.23491
 Alpha  occ. eigenvalues --   -3.13668  -1.88379  -1.87901  -1.87843  -1.18636
 Alpha  occ. eigenvalues --   -1.17577  -1.09149  -1.06574  -1.05940  -1.05359
 Alpha  occ. eigenvalues --   -1.04869  -1.04213  -1.01940  -0.92579  -0.92073
 Alpha  occ. eigenvalues --   -0.90821  -0.90186  -0.90105  -0.89650  -0.89291
 Alpha  occ. eigenvalues --   -0.88653  -0.87690  -0.87383  -0.86876  -0.86475
 Alpha  occ. eigenvalues --   -0.85294  -0.84503  -0.84113  -0.83435  -0.83090
 Alpha  occ. eigenvalues --   -0.81720  -0.80847  -0.80424  -0.79850  -0.78476
 Alpha  occ. eigenvalues --   -0.78371  -0.78239  -0.76846  -0.75851  -0.75588
 Alpha  occ. eigenvalues --   -0.75475  -0.74783  -0.73840  -0.73484  -0.72878
 Alpha  occ. eigenvalues --   -0.71344  -0.70357  -0.69557  -0.68911  -0.67893
 Alpha  occ. eigenvalues --   -0.67221  -0.66835  -0.65449  -0.65193  -0.64804
 Alpha  occ. eigenvalues --   -0.63820  -0.63561  -0.63201  -0.62698  -0.62042
 Alpha  occ. eigenvalues --   -0.61356  -0.60985  -0.60642  -0.59880  -0.59232
 Alpha  occ. eigenvalues --   -0.58485  -0.58313  -0.57416  -0.57156  -0.56895
 Alpha  occ. eigenvalues --   -0.55962  -0.55614  -0.55512  -0.55409  -0.55206
 Alpha  occ. eigenvalues --   -0.54693  -0.54611  -0.54019  -0.53739  -0.53248
 Alpha  occ. eigenvalues --   -0.52795  -0.52686  -0.52316  -0.52151  -0.51946
 Alpha  occ. eigenvalues --   -0.51688  -0.51238  -0.50978  -0.50915  -0.50535
 Alpha  occ. eigenvalues --   -0.50300  -0.50203  -0.50141  -0.49858  -0.49512
 Alpha  occ. eigenvalues --   -0.49088  -0.48771  -0.48416  -0.48132  -0.48011
 Alpha  occ. eigenvalues --   -0.47852  -0.47675  -0.47541  -0.47278  -0.46941
 Alpha  occ. eigenvalues --   -0.46519  -0.46368  -0.46175  -0.45896  -0.45787
 Alpha  occ. eigenvalues --   -0.45592  -0.45335  -0.45151  -0.45058  -0.44889
 Alpha  occ. eigenvalues --   -0.44819  -0.44690  -0.44480  -0.44114  -0.43978
 Alpha  occ. eigenvalues --   -0.43721  -0.43654  -0.43453  -0.43303  -0.43109
 Alpha  occ. eigenvalues --   -0.42774  -0.42670  -0.42636  -0.42150  -0.42115
 Alpha  occ. eigenvalues --   -0.41769  -0.41641  -0.41194  -0.41133  -0.41038
 Alpha  occ. eigenvalues --   -0.40907  -0.40776  -0.40351  -0.40215  -0.39950
 Alpha  occ. eigenvalues --   -0.39704  -0.39614  -0.39443  -0.39274  -0.38920
 Alpha  occ. eigenvalues --   -0.38727  -0.38493  -0.38339  -0.38316  -0.38053
 Alpha  occ. eigenvalues --   -0.37427  -0.37363  -0.37208  -0.37091  -0.36987
 Alpha  occ. eigenvalues --   -0.36774  -0.36395  -0.36308  -0.36064  -0.35829
 Alpha  occ. eigenvalues --   -0.35537  -0.34886  -0.34729  -0.34012  -0.33155
 Alpha  occ. eigenvalues --   -0.32726  -0.32318  -0.32300  -0.31479  -0.31027
 Alpha  occ. eigenvalues --   -0.28671  -0.28626  -0.28423  -0.27902  -0.22795
 Alpha  occ. eigenvalues --   -0.21599
 Alpha virt. eigenvalues --   -0.06551  -0.02452   0.01539   0.04326   0.05416
 Alpha virt. eigenvalues --    0.05484   0.06167   0.06673   0.06934   0.07124
 Alpha virt. eigenvalues --    0.08301   0.10880   0.10984   0.11485   0.11944

 Mulliken charges:
               1
     1  Mg   0.821909
     2  C    0.091375
     3  C   -0.243078
     4  C   -0.221041
     5  C   -0.193053
     6  N   -0.624084
     7  C    0.238013
     8  C   -0.141504
     9  C   -0.167926
    10  C    0.401428
    11  C   -0.308347
    12  C   -0.148711
    13  C   -0.287474
    14  C    0.632220
    15  O   -0.492244
    16  O   -0.473703
    17  N   -0.674899
    18  C    0.329176
    19  C    0.034014
    20  C   -0.011883
    21  C    0.307057
    22  C   -0.331776
    23  C   -0.057507
    24  C   -0.261162
    25  N   -0.696316
    26  C    0.351120
    27  C    0.003630
    28  C    0.035919
    29  C    0.291821
    30  C   -0.335506
    31  C   -0.245408
    32  C   -0.286576
    33  N   -0.786804
    34  C    0.272488
    35  C    0.079258
    36  C   -0.091752
    37  C    0.367782
    38  C   -0.410445
    39  C    0.390592
    40  O   -0.517817
    41  C   -0.293757
    42  C    0.622265
    43  O   -0.509879
    44  O   -0.429157
    45  C   -0.084595
    46  C    0.020848
    47  C   -0.159278
    48  C    0.168023
    49  C   -0.391336
    50  C   -0.215848
    51  C   -0.183192
    52  C   -0.187849
    53  C   -0.070459
    54  C   -0.302078
    55  C   -0.170456
    56  C   -0.189594
    57  C   -0.172628
    58  C   -0.067340
    59  C   -0.316374
    60  C   -0.182611
    61  C   -0.167689
    62  C   -0.182765
    63  C   -0.067582
    64  C   -0.325289
    65  C   -0.278975
    66  H    0.062932
    67  H    0.061092
    68  H    0.096291
    69  H    0.141521
    70  H    0.105401
    71  H    0.118593
    72  H    0.065755
    73  H    0.127632
    74  H    0.102277
    75  H    0.128652
    76  H    0.122427
    77  H    0.134528
    78  H    0.105816
    79  H    0.136566
    80  H    0.119786
    81  H    0.091150
    82  H    0.098167
    83  H    0.099868
    84  H    0.120341
    85  H    0.107302
    86  H    0.129245
    87  H    0.091015
    88  H    0.101314
    89  H    0.107425
    90  H    0.111826
    91  H    0.089919
    92  H    0.130928
    93  H    0.155799
    94  H    0.101975
    95  H    0.157577
    96  H    0.119289
    97  H    0.146924
    98  H    0.138005
    99  H    0.122091
   100  H    0.132684
   101  H    0.092616
   102  H    0.115083
   103  H    0.115854
   104  H    0.113809
   105  H    0.102198
   106  H    0.103304
   107  H    0.110588
   108  H    0.104080
   109  H    0.075293
   110  H    0.077242
   111  H    0.079852
   112  H    0.114461
   113  H    0.081936
   114  H    0.076935
   115  H    0.100693
   116  H    0.089276
   117  H    0.100984
   118  H    0.086364
   119  H    0.107289
   120  H    0.100865
   121  H    0.088772
   122  H    0.102352
   123  H    0.079097
   124  H    0.095431
   125  H    0.091954
   126  H    0.084039
   127  H    0.076799
   128  H    0.106501
   129  H    0.073620
   130  H    0.088470
   131  H    0.090230
   132  H    0.105749
   133  H    0.073366
   134  H    0.120445
   135  H    0.093748
   136  H    0.088471
   137  H    0.108929
 Sum of Mulliken charges =   0.00000

 Dipole moment (field-independent basis, Debye):
    X=              2.6856    Y=              5.2587    Z=              0.3913  Tot=              5.9178
 Quadrupole moment (field-independent basis, Debye-Ang):
   XX=           -355.7423   YY=           -396.7323   ZZ=           -398.7996
   XY=            -26.1329   XZ=              4.6358   YZ=             -1.6929

 Normal termination of Gaussian 09 at Sat Jun 29 10:27:13 2019.
