 Gaussian 09, Revision D.01,
 Gaussian 09:  ES64L-G09RevD.01 24-Apr-2013

 -------------------------------------
 # td=(NStates=1) CAM-B3LYP/6-31G(d,p)
 -------------------------------------

 --
 TD
 --
 Symbolic Z-matrix:
 Charge =  0 Multiplicity = 1

                         Standard orientation:
 ---------------------------------------------------------------------
 Center     Atomic      Atomic             Coordinates (Angstroms)
 Number     Number       Type             X           Y           Z
 ---------------------------------------------------------------------
      1         12           0       -7.165865    0.627075    0.083921
      2          6           0       -4.840670   -2.001300    0.534131
      3          6           0       -4.930210    2.753663    1.253385
      4          6           0       -9.383338    3.189112   -0.319789
      5          6           0       -9.457339   -1.651337   -0.872057
      6          7           0       -5.081081    0.460012    0.644847
      7          6           0       -4.309009   -0.726200    0.763993
      8          6           0       -2.950339   -0.437678    1.269213
      9          6           0       -3.043846    0.984300    1.744651
     10          6           0       -4.419750    1.527274    1.119739
     11          6           0       -2.923208    1.273387    3.175669
     12          6           0       -1.906098   -0.628913    0.121575
     13          6           0       -0.444600   -0.556096    0.534819
     14          6           0        0.519466   -0.764067   -0.565881
     15          8           0        0.295321   -1.265146   -1.702588
     16          8           0        1.727325   -0.412438   -0.128482
     17          7           0       -7.183205    2.589803    0.476380
     18          6           0       -6.143976    3.292169    0.946759
     19          6           0       -6.431005    4.724477    0.920730
     20          6           0       -7.738014    4.929626    0.476772
     21          6           0       -8.180623    3.497653    0.109189
     22          6           0       -5.538290    5.897747    1.462239
     23          6           0       -8.629502    6.019090    0.331355
     24          6           0       -8.226688    7.190893    0.060233
     25          7           0       -9.127055    0.715807   -0.582825
     26          6           0       -9.877726    1.828336   -0.723197
     27          6           0      -11.175550    1.557776   -1.096481
     28          6           0      -11.251878    0.142269   -1.374001
     29          6           0       -9.846530   -0.278619   -0.977385
     30          6           0      -12.247130    2.588692   -1.387842
     31          6           0      -12.381085   -0.693442   -1.751926
     32          6           0      -12.238463   -0.970028   -3.232459
     33          7           0       -7.150860   -1.347456   -0.175610
     34          6           0       -8.216505   -2.170096   -0.597075
     35          6           0       -7.827793   -3.552050   -0.662771
     36          6           0       -6.510515   -3.539799   -0.221583
     37          6           0       -6.227410   -2.171042    0.120273
     38          6           0       -8.613531   -4.754729   -0.923436
     39          6           0       -5.335227   -4.383419    0.177346
     40          8           0       -5.128053   -5.555693    0.097095
     41          6           0       -4.187262   -3.342732    0.622505
     42          6           0       -3.681011   -3.746747    1.963034
     43          8           0       -3.831097   -3.235894    2.976389
     44          8           0       -2.770274   -4.732711    1.823518
     45          6           0       -2.272963   -5.238742    3.183177
     46          6           0        2.785285   -0.794887   -1.209482
     47          6           0        4.100203   -0.639301   -0.509707
     48          6           0        5.063570    0.109888   -1.019971
     49          6           0        5.093864    0.847825   -2.333975
     50          6           0        6.387783    0.224736   -0.315345
     51          6           0        7.605102   -0.382229   -0.996637
     52          6           0        8.929175   -0.147272   -0.187959
     53          6           0       10.263822   -0.596421   -0.790210
     54          6           0       10.197754   -2.017008   -1.294295
     55          6           0       11.473239   -0.263228   -0.012256
     56          6           0       12.782549   -0.406287   -0.749666
     57          6           0       14.021825    0.116168    0.029775
     58          6           0       15.379228   -0.064992   -0.533101
     59          6           0       15.698134   -1.462610   -0.973321
     60          6           0       16.406980    0.539537    0.400895
     61          6           0       17.841634    0.612392   -0.111903
     62          6           0       18.786014    1.302580    0.858029
     63          6           0       20.211660    1.457424    0.293367
     64          6           0       20.325992    2.233525   -1.004643
     65          6           0       21.215381    1.890991    1.343580
     66          1           0       -4.023460    3.464014    1.610118
     67          1           0      -10.074894    4.079001   -0.648138
     68          1           0      -10.535395   -2.090691   -0.905573
     69          1           0       -2.577402   -1.072151    2.072793
     70          1           0       -2.413499    1.627142    1.158416
     71          1           0       -1.993457    0.439480    3.454660
     72          1           0       -2.712179    2.357206    3.608095
     73          1           0       -3.830793    0.704372    3.579447
     74          1           0       -2.101835   -1.654962   -0.246221
     75          1           0       -2.121421   -0.061149   -0.666470
     76          1           0       -0.252557    0.545477    0.957780
     77          1           0       -0.263440   -1.513004    1.406284
     78          1           0       -5.060736    6.310065    0.634001
     79          1           0       -6.249997    6.664886    1.895941
     80          1           0       -5.004031    5.667157    2.237785
     81          1           0       -9.592994    6.069112    0.978708
     82          1           0       -8.855372    8.075813    0.191671
     83          1           0       -7.283034    7.588455   -0.407634
     84          1           0      -12.034612    3.470734   -2.124233
     85          1           0      -13.157434    2.016187   -1.642593
     86          1           0      -12.280481    3.217178   -0.572994
     87          1           0      -12.416107   -1.687469   -1.188205
     88          1           0      -13.200777   -0.052018   -1.768614
     89          1           0      -13.078727   -1.671445   -3.588228
     90          1           0      -12.160967   -0.114355   -3.937792
     91          1           0      -11.167971   -1.484044   -3.388582
     92          1           0       -8.796141   -4.710100   -2.121749
     93          1           0       -8.228519   -5.690996   -0.879316
     94          1           0       -9.696170   -4.753399   -0.525552
     95          1           0       -3.494741   -3.583538   -0.150481
     96          1           0       -1.901334   -4.287603    3.716768
     97          1           0       -3.185678   -5.683819    3.709082
     98          1           0       -1.404433   -5.953272    2.921388
     99          1           0        2.452377   -1.745416   -1.598320
    100          1           0        2.787697    0.000507   -2.050455
    101          1           0        3.920785   -1.206131    0.488644
    102          1           0        4.042664    1.002540   -2.676996
    103          1           0        5.527250    1.873490   -2.262381
    104          1           0        5.915711    0.579979   -3.076295
    105          1           0        6.579956    1.273484   -0.026083
    106          1           0        6.236046   -0.264863    0.671637
    107          1           0        7.372910   -1.352841   -1.252219
    108          1           0        7.546835    0.110057   -1.927670
    109          1           0        8.742439    0.855103    0.278123
    110          1           0        8.746944   -0.831660    0.799558
    111          1           0       10.358721   -0.027573   -1.677237
    112          1           0        9.347294   -2.216425   -1.895100
    113          1           0       11.107270   -2.279052   -1.859797
    114          1           0       10.123728   -2.692798   -0.366021
    115          1           0       11.423298    0.778285    0.255034
    116          1           0       11.455004   -0.751938    0.942760
    117          1           0       12.856312   -1.450616   -1.152872
    118          1           0       12.631125    0.343790   -1.509560
    119          1           0       13.797558    1.071363    0.366028
    120          1           0       13.947785   -0.353099    0.850735
    121          1           0       15.509752    0.454212   -1.640372
    122          1           0       15.846986   -2.166591   -0.126073
    123          1           0       14.962597   -1.786156   -1.667154
    124          1           0       16.613748   -1.370669   -1.609524
    125          1           0       15.915722    1.512322    0.727007
    126          1           0       16.328503   -0.121048    1.365708
    127          1           0       18.434448   -0.459873   -0.154362
    128          1           0       18.067976    1.127885   -1.036083
    129          1           0       18.105590    2.182464    1.059862
    130          1           0       18.805592    0.774649    1.573653
    131          1           0       20.670933    0.455162    0.076135
    132          1           0       20.037033    3.468985   -1.375526
    133          1           0       21.396851    2.217138   -1.585824
    134          1           0       19.777388    1.872930   -1.699141
    135          1           0       21.479375    1.247321    2.392563
    136          1           0       22.381927    1.868730    0.913123
    137          1           0       21.127006    2.835551    1.611388
 ---------------------------------------------------------------------

 SCF Done:  E(RCAM-B3LYP) =  -2932.56829051     A.U. after   16 cycles

 Excitation energies and oscillator strengths:

 Excited State   1:      Singlet-A      2.2852 eV  542.55 nm  f=0.1455  <S**2>=0.000
     240 -> 243       -0.30518
     241 -> 242        0.62156
 This state for optimization and/or second-order correction.
 Total Energy, E(TD-HF/TD-KS) =  -2932.48431081
 Copying the excited state density for this state as the 1-particle RhoCI density.

 The electronic state is 1-A.
 Alpha  occ. eigenvalues --  -46.84109 -19.26418 -19.24132 -19.20557 -19.20124
 Alpha  occ. eigenvalues --  -19.20100 -14.40533 -14.39840 -14.39504 -14.38498
 Alpha  occ. eigenvalues --  -10.38879 -10.37369 -10.35274 -10.32563 -10.31999
 Alpha  occ. eigenvalues --  -10.30576 -10.30418 -10.30100 -10.29889 -10.29075
 Alpha  occ. eigenvalues --  -10.28740 -10.28638 -10.28617 -10.28400 -10.28317
 Alpha  occ. eigenvalues --  -10.28078 -10.27991 -10.27854 -10.27842 -10.27647
 Alpha  occ. eigenvalues --  -10.27581 -10.27306 -10.27282 -10.27166 -10.27068
 Alpha  occ. eigenvalues --  -10.27035 -10.27000 -10.26830 -10.26801 -10.26776
 Alpha  occ. eigenvalues --  -10.26575 -10.26481 -10.26369 -10.26349 -10.26332
 Alpha  occ. eigenvalues --  -10.26161 -10.26142 -10.25967 -10.25872 -10.25835
 Alpha  occ. eigenvalues --  -10.25612 -10.25526 -10.25369 -10.25365 -10.25196
 Alpha  occ. eigenvalues --  -10.25178 -10.25078 -10.24968 -10.24907 -10.24795
 Alpha  occ. eigenvalues --  -10.24649 -10.24028 -10.23836 -10.23099 -10.22682
 Alpha  occ. eigenvalues --   -3.13236  -1.87940  -1.87473  -1.87424  -1.18923
 Alpha  occ. eigenvalues --   -1.16668  -1.12305  -1.08447  -1.06242  -1.05712
 Alpha  occ. eigenvalues --   -1.04309  -1.03502  -1.02196  -0.92258  -0.91840
 Alpha  occ. eigenvalues --   -0.91742  -0.90769  -0.90704  -0.90209  -0.89399
 Alpha  occ. eigenvalues --   -0.89137  -0.88721  -0.87949  -0.87047  -0.86497
 Alpha  occ. eigenvalues --   -0.85494  -0.84683  -0.84040  -0.83586  -0.83196
 Alpha  occ. eigenvalues --   -0.82075  -0.80880  -0.80168  -0.79829  -0.78236
 Alpha  occ. eigenvalues --   -0.77987  -0.76807  -0.76421  -0.76345  -0.76115
 Alpha  occ. eigenvalues --   -0.75598  -0.75474  -0.75211  -0.73304  -0.72345
 Alpha  occ. eigenvalues --   -0.71205  -0.70762  -0.69088  -0.68871  -0.68435
 Alpha  occ. eigenvalues --   -0.67180  -0.66914  -0.65696  -0.65410  -0.64518
 Alpha  occ. eigenvalues --   -0.63864  -0.63603  -0.62563  -0.62300  -0.61701
 Alpha  occ. eigenvalues --   -0.61128  -0.60360  -0.60052  -0.59626  -0.59104
 Alpha  occ. eigenvalues --   -0.58674  -0.58154  -0.57784  -0.57421  -0.56805
 Alpha  occ. eigenvalues --   -0.56147  -0.55917  -0.55317  -0.55047  -0.54715
 Alpha  occ. eigenvalues --   -0.54519  -0.54246  -0.54209  -0.53347  -0.53098
 Alpha  occ. eigenvalues --   -0.52848  -0.52680  -0.52508  -0.52233  -0.52019
 Alpha  occ. eigenvalues --   -0.51923  -0.51692  -0.51610  -0.51441  -0.51188
 Alpha  occ. eigenvalues --   -0.50721  -0.50529  -0.50346  -0.50103  -0.49989
 Alpha  occ. eigenvalues --   -0.49190  -0.48977  -0.48842  -0.48627  -0.48470
 Alpha  occ. eigenvalues --   -0.48055  -0.47781  -0.47763  -0.47280  -0.47072
 Alpha  occ. eigenvalues --   -0.46845  -0.46782  -0.46223  -0.46118  -0.45922
 Alpha  occ. eigenvalues --   -0.45829  -0.45637  -0.45493  -0.45024  -0.44992
 Alpha  occ. eigenvalues --   -0.44716  -0.44571  -0.44402  -0.44201  -0.43978
 Alpha  occ. eigenvalues --   -0.43861  -0.43663  -0.43553  -0.43116  -0.42919
 Alpha  occ. eigenvalues --   -0.42799  -0.42700  -0.42647  -0.42421  -0.41750
 Alpha  occ. eigenvalues --   -0.41602  -0.41363  -0.41226  -0.41209  -0.41044
 Alpha  occ. eigenvalues --   -0.40993  -0.40599  -0.40586  -0.40375  -0.40353
 Alpha  occ. eigenvalues --   -0.40198  -0.39985  -0.39799  -0.39304  -0.39190
 Alpha  occ. eigenvalues --   -0.39121  -0.38888  -0.38382  -0.38337  -0.38289
 Alpha  occ. eigenvalues --   -0.37538  -0.37397  -0.37158  -0.37049  -0.36578
 Alpha  occ. eigenvalues --   -0.36369  -0.35809  -0.35661  -0.35485  -0.35445
 Alpha  occ. eigenvalues --   -0.35348  -0.35080  -0.34541  -0.34504  -0.33542
 Alpha  occ. eigenvalues --   -0.33176  -0.32607  -0.32373  -0.30460  -0.30326
 Alpha  occ. eigenvalues --   -0.29825  -0.29539  -0.29027  -0.26950  -0.22940
 Alpha  occ. eigenvalues --   -0.21413
 Alpha virt. eigenvalues --   -0.05064  -0.03261   0.02549   0.04770   0.04879
 Alpha virt. eigenvalues --    0.05478   0.06177   0.06655   0.07173   0.08410
 Alpha virt. eigenvalues --    0.08890   0.10250   0.10694   0.11326   0.11811

 Mulliken charges:
               1
     1  Mg   0.820545
     2  C    0.054555
     3  C   -0.224175
     4  C   -0.194842
     5  C   -0.146303
     6  N   -0.650883
     7  C    0.291466
     8  C   -0.157603
     9  C   -0.117726
    10  C    0.332317
    11  C   -0.280673
    12  C   -0.164929
    13  C   -0.255013
    14  C    0.637454
    15  O   -0.517547
    16  O   -0.485414
    17  N   -0.721557
    18  C    0.378367
    19  C   -0.050541
    20  C    0.062870
    21  C    0.297384
    22  C   -0.345962
    23  C   -0.108801
    24  C   -0.220220
    25  N   -0.650955
    26  C    0.257033
    27  C    0.005963
    28  C    0.002098
    29  C    0.245754
    30  C   -0.360356
    31  C   -0.241282
    32  C   -0.302143
    33  N   -0.691760
    34  C    0.221969
    35  C    0.073854
    36  C   -0.048970
    37  C    0.328747
    38  C   -0.372371
    39  C    0.362661
    40  O   -0.434654
    41  C   -0.336910
    42  C    0.622819
    43  O   -0.440041
    44  O   -0.487970
    45  C   -0.088082
    46  C   -0.010787
    47  C   -0.114611
    48  C    0.116987
    49  C   -0.376071
    50  C   -0.244714
    51  C   -0.170409
    52  C   -0.171037
    53  C   -0.051598
    54  C   -0.311256
    55  C   -0.180466
    56  C   -0.197140
    57  C   -0.167025
    58  C   -0.044401
    59  C   -0.302543
    60  C   -0.168778
    61  C   -0.188046
    62  C   -0.128364
    63  C   -0.067208
    64  C   -0.300910
    65  C   -0.296443
    66  H    0.064575
    67  H    0.089399
    68  H    0.095058
    69  H    0.116595
    70  H    0.102121
    71  H    0.069964
    72  H    0.114388
    73  H    0.124746
    74  H    0.119602
    75  H    0.121508
    76  H    0.123791
    77  H    0.109505
    78  H    0.132971
    79  H    0.112173
    80  H    0.124472
    81  H    0.114382
    82  H    0.095997
    83  H    0.106009
    84  H    0.103840
    85  H    0.104143
    86  H    0.127410
    87  H    0.113303
    88  H    0.115680
    89  H    0.088190
    90  H    0.118502
    91  H    0.087476
    92  H    0.104423
    93  H    0.155625
    94  H    0.120927
    95  H    0.178066
    96  H    0.133816
    97  H    0.139963
    98  H    0.126959
    99  H    0.159617
   100  H    0.110104
   101  H    0.111748
   102  H    0.113423
   103  H    0.118182
   104  H    0.130105
   105  H    0.096484
   106  H    0.091885
   107  H    0.110724
   108  H    0.086580
   109  H    0.092353
   110  H    0.060693
   111  H    0.088474
   112  H    0.111072
   113  H    0.103105
   114  H    0.087212
   115  H    0.089760
   116  H    0.084861
   117  H    0.093542
   118  H    0.096590
   119  H    0.088475
   120  H    0.102911
   121  H    0.044616
   122  H    0.089346
   123  H    0.107152
   124  H    0.102277
   125  H    0.088749
   126  H    0.078760
   127  H    0.064835
   128  H    0.100857
   129  H    0.085031
   130  H    0.097453
   131  H    0.105821
   132  H    0.056163
   133  H    0.080561
   134  H    0.131662
   135  H    0.070906
   136  H    0.063106
   137  H    0.125872
 Sum of Mulliken charges =   0.00000

 Dipole moment (field-independent basis, Debye):
    X=              1.4711    Y=              5.1138    Z=              0.7625  Tot=              5.3756
 Quadrupole moment (field-independent basis, Debye-Ang):
   XX=           -356.5982   YY=           -384.4522   ZZ=           -397.4964
   XY=            -26.8383   XZ=             -0.8825   YZ=             -4.5990

 Normal termination of Gaussian 09 at Sun Jun 30 09:19:48 2019.
