 Gaussian 09, Revision D.01,
 Gaussian 09:  ES64L-G09RevD.01 24-Apr-2013

 -------------------------------------
 # td=(NStates=1) CAM-B3LYP/6-31G(d,p)
 -------------------------------------

 --
 TD
 --
 Symbolic Z-matrix:
 Charge =  0 Multiplicity = 1

                         Standard orientation:
 ---------------------------------------------------------------------
 Center     Atomic      Atomic             Coordinates (Angstroms)
 Number     Number       Type             X           Y           Z
 ---------------------------------------------------------------------
      1         12           0       -7.131275    0.595287   -0.009214
      2          6           0       -4.803483   -1.932541    0.451492
      3          6           0       -4.847119    2.806458    1.219651
      4          6           0       -9.484236    3.040677   -0.252564
      5          6           0       -9.568635   -1.678176   -0.869170
      6          7           0       -5.066848    0.459802    0.687033
      7          6           0       -4.265749   -0.649119    0.798552
      8          6           0       -2.930194   -0.403298    1.260583
      9          6           0       -2.954691    1.058222    1.743191
     10          6           0       -4.388382    1.458932    1.251773
     11          6           0       -2.702620    1.280598    3.190045
     12          6           0       -1.875780   -0.703877    0.127410
     13          6           0       -0.465722   -0.538640    0.658632
     14          6           0        0.559922   -0.738022   -0.433162
     15          8           0        0.299620   -1.133195   -1.563453
     16          8           0        1.824566   -0.480580   -0.047313
     17          7           0       -7.151985    2.600042    0.262548
     18          6           0       -6.113372    3.285821    0.805459
     19          6           0       -6.436645    4.692805    0.829877
     20          6           0       -7.746499    4.828830    0.341810
     21          6           0       -8.242710    3.475030    0.030005
     22          6           0       -5.636311    5.843330    1.346563
     23          6           0       -8.598548    5.892755    0.315387
     24          6           0       -8.244807    7.262190    0.110952
     25          7           0       -9.245898    0.682881   -0.640669
     26          6           0       -9.950920    1.757776   -0.709515
     27          6           0      -11.301593    1.425613   -1.054330
     28          6           0      -11.357906    0.138144   -1.252230
     29          6           0      -10.012226   -0.395625   -0.921415
     30          6           0      -12.377788    2.454808   -1.286399
     31          6           0      -12.532840   -0.684213   -1.652169
     32          6           0      -12.504828   -0.992159   -3.148063
     33          7           0       -7.212245   -1.305679   -0.210129
     34          6           0       -8.222130   -2.219516   -0.574579
     35          6           0       -7.806335   -3.530437   -0.565359
     36          6           0       -6.520574   -3.521923   -0.134908
     37          6           0       -6.125803   -2.107268    0.058944
     38          6           0       -8.658518   -4.741470   -0.786393
     39          6           0       -5.409647   -4.328485    0.131377
     40          8           0       -5.205681   -5.528394   -0.059663
     41          6           0       -4.239448   -3.339472    0.605168
     42          6           0       -3.592350   -3.700372    1.837394
     43          8           0       -3.987638   -3.376969    2.931224
     44          8           0       -2.762546   -4.690740    1.551536
     45          6           0       -2.101557   -5.267170    2.730297
     46          6           0        2.804968   -0.646647   -1.110045
     47          6           0        4.174694   -0.418397   -0.446112
     48          6           0        5.109312    0.484548   -0.812981
     49          6           0        5.056729    1.347809   -2.029379
     50          6           0        6.442925    0.484598   -0.154099
     51          6           0        7.624710   -0.087601   -0.972417
     52          6           0        8.999501   -0.021159   -0.156608
     53          6           0       10.211689   -0.478167   -0.904382
     54          6           0       10.123754   -1.951619   -1.324542
     55          6           0       11.525543   -0.230570    0.007819
     56          6           0       12.773939   -0.529341   -0.750851
     57          6           0       14.014142   -0.151994    0.106653
     58          6           0       15.433890   -0.314870   -0.560103
     59          6           0       15.743883   -1.745046   -0.723753
     60          6           0       16.401139    0.440984    0.385302
     61          6           0       17.895088    0.450573   -0.196463
     62          6           0       18.810910    1.200918    0.655434
     63          6           0       20.302850    1.356006    0.228393
     64          6           0       20.493750    2.209621   -1.100408
     65          6           0       21.282898    1.858265    1.217550
     66          1           0       -4.142172    3.612455    1.810089
     67          1           0      -10.333211    3.701422   -0.425329
     68          1           0      -10.428630   -2.306369   -1.109076
     69          1           0       -2.620381   -1.170004    2.149841
     70          1           0       -2.148876    1.724772    1.200301
     71          1           0       -1.819872    0.688459    3.711320
     72          1           0       -2.953713    2.410897    3.523815
     73          1           0       -3.618560    0.905368    3.810388
     74          1           0       -2.016156   -1.777253   -0.168800
     75          1           0       -2.101011   -0.147676   -0.726299
     76          1           0       -0.238155    0.458444    1.335918
     77          1           0       -0.135862   -1.437806    1.422175
     78          1           0       -5.045771    6.338422    0.424674
     79          1           0       -6.122587    6.508957    2.051194
     80          1           0       -4.777410    5.081712    1.914162
     81          1           0       -9.573206    5.549499    0.137235
     82          1           0       -9.020019    8.119700   -0.252573
     83          1           0       -7.151030    7.310929    0.538237
     84          1           0      -11.963423    3.277264   -1.898312
     85          1           0      -13.434629    2.065813   -1.613114
     86          1           0      -12.675015    2.910251   -0.132208
     87          1           0      -12.416145   -1.563145   -1.181235
     88          1           0      -13.506628   -0.222897   -1.339698
     89          1           0      -13.221979   -1.354165   -3.578266
     90          1           0      -12.259897   -0.071370   -3.769800
     91          1           0      -11.692740   -1.577150   -3.236786
     92          1           0       -9.344062   -4.668674   -1.752370
     93          1           0       -8.010931   -5.738928   -0.998654
     94          1           0       -9.381793   -5.258467    0.055455
     95          1           0       -3.175094   -3.405643   -0.021687
     96          1           0       -1.343053   -4.501403    3.076373
     97          1           0       -2.819529   -5.313965    3.418700
     98          1           0       -1.484626   -6.076719    2.389476
     99          1           0        2.488823   -1.567905   -1.498209
    100          1           0        2.559001    0.109374   -1.906381
    101          1           0        4.425987   -1.133661    0.495919
    102          1           0        4.145600    1.593384   -2.428326
    103          1           0        5.803546    2.277530   -1.931593
    104          1           0        5.461580    0.732098   -2.985104
    105          1           0        6.575644    1.586077    0.197361
    106          1           0        6.395819    0.006421    0.736320
    107          1           0        7.378955   -1.045055   -1.314047
    108          1           0        7.904828    0.549677   -2.047951
    109          1           0        9.133930    1.056645    0.246705
    110          1           0        8.999532   -0.479403    0.805987
    111          1           0       10.319567    0.132174   -1.863506
    112          1           0        9.238427   -2.107214   -1.988906
    113          1           0       11.045643   -2.437495   -1.865722
    114          1           0        9.873332   -2.563447   -0.314764
    115          1           0       11.366980    0.737457    0.214416
    116          1           0       11.415318   -0.817352    0.828620
    117          1           0       12.943224   -1.428932   -1.211844
    118          1           0       12.759385    0.000920   -1.780750
    119          1           0       13.899286    0.884741    0.331040
    120          1           0       14.085996   -0.507342    1.111367
    121          1           0       15.373708    0.426155   -1.410157
    122          1           0       15.675363   -2.255784    0.140264
    123          1           0       15.084182   -2.136051   -1.460658
    124          1           0       16.721440   -1.816708   -1.273982
    125          1           0       16.137089    1.479000    0.424367
    126          1           0       16.279790   -0.024298    1.347411
    127          1           0       18.236790   -0.533018   -0.577055
    128          1           0       17.745712    0.951824   -1.206469
    129          1           0       18.237298    2.160226    0.917007
    130          1           0       18.717101    0.765612    1.611992
    131          1           0       20.662048    0.246671    0.008581
    132          1           0       19.838700    3.189530   -0.895893
    133          1           0       21.613406    2.479194   -1.090840
    134          1           0       20.050813    1.611317   -1.900980
    135          1           0       21.659824    1.307386    2.035837
    136          1           0       22.290041    2.084378    0.624634
    137          1           0       20.802379    2.960710    1.650736
 ---------------------------------------------------------------------

 SCF Done:  E(RCAM-B3LYP) =  -2932.61983896     A.U. after   18 cycles

 Excitation energies and oscillator strengths:

 Excited State   1:      Singlet-A      2.1197 eV  584.92 nm  f=0.3206  <S**2>=0.000
     240 -> 242       -0.18734
     240 -> 243        0.19598
     241 -> 242        0.63163
     241 -> 243        0.14266
 This state for optimization and/or second-order correction.
 Total Energy, E(TD-HF/TD-KS) =  -2932.54194223
 Copying the excited state density for this state as the 1-particle RhoCI density.

 The electronic state is 1-A.
 Alpha  occ. eigenvalues --  -46.84956 -19.26014 -19.25757 -19.20676 -19.19849
 Alpha  occ. eigenvalues --  -19.18919 -14.42653 -14.39968 -14.39901 -14.39132
 Alpha  occ. eigenvalues --  -10.39162 -10.37726 -10.34044 -10.32208 -10.31789
 Alpha  occ. eigenvalues --  -10.31191 -10.30783 -10.30558 -10.30423 -10.30390
 Alpha  occ. eigenvalues --  -10.29428 -10.29323 -10.29279 -10.29153 -10.29086
 Alpha  occ. eigenvalues --  -10.28995 -10.28780 -10.28586 -10.28504 -10.28336
 Alpha  occ. eigenvalues --  -10.28203 -10.28109 -10.27888 -10.27802 -10.27755
 Alpha  occ. eigenvalues --  -10.27675 -10.27543 -10.27540 -10.27249 -10.27204
 Alpha  occ. eigenvalues --  -10.27120 -10.27066 -10.27001 -10.26984 -10.26982
 Alpha  occ. eigenvalues --  -10.26868 -10.26399 -10.26342 -10.26273 -10.26017
 Alpha  occ. eigenvalues --  -10.26014 -10.26006 -10.25772 -10.25714 -10.25450
 Alpha  occ. eigenvalues --  -10.25395 -10.25064 -10.24710 -10.24642 -10.24538
 Alpha  occ. eigenvalues --  -10.24371 -10.23831 -10.23546 -10.23437 -10.22675
 Alpha  occ. eigenvalues --   -3.14019  -1.88712  -1.88263  -1.88208  -1.18512
 Alpha  occ. eigenvalues --   -1.18051  -1.08936  -1.08837  -1.08443  -1.05957
 Alpha  occ. eigenvalues --   -1.05667  -1.03179  -1.02754  -0.92047  -0.91373
 Alpha  occ. eigenvalues --   -0.90709  -0.90590  -0.90208  -0.90101  -0.89488
 Alpha  occ. eigenvalues --   -0.88942  -0.88130  -0.87729  -0.87150  -0.86336
 Alpha  occ. eigenvalues --   -0.85098  -0.84524  -0.84261  -0.83321  -0.82938
 Alpha  occ. eigenvalues --   -0.82175  -0.81875  -0.80521  -0.79718  -0.77832
 Alpha  occ. eigenvalues --   -0.77372  -0.76709  -0.76588  -0.76078  -0.75825
 Alpha  occ. eigenvalues --   -0.74704  -0.74434  -0.73938  -0.73529  -0.72499
 Alpha  occ. eigenvalues --   -0.72324  -0.71250  -0.70816  -0.69353  -0.68845
 Alpha  occ. eigenvalues --   -0.67833  -0.67233  -0.66041  -0.65842  -0.64753
 Alpha  occ. eigenvalues --   -0.64042  -0.63318  -0.62676  -0.62535  -0.62145
 Alpha  occ. eigenvalues --   -0.61355  -0.60795  -0.60662  -0.59868  -0.59502
 Alpha  occ. eigenvalues --   -0.58813  -0.58277  -0.57527  -0.56857  -0.56526
 Alpha  occ. eigenvalues --   -0.56371  -0.55430  -0.55347  -0.55096  -0.54937
 Alpha  occ. eigenvalues --   -0.54467  -0.54186  -0.53758  -0.53548  -0.53360
 Alpha  occ. eigenvalues --   -0.52574  -0.52317  -0.52189  -0.52028  -0.51757
 Alpha  occ. eigenvalues --   -0.51662  -0.51570  -0.51434  -0.51076  -0.50837
 Alpha  occ. eigenvalues --   -0.50536  -0.50083  -0.49938  -0.49503  -0.49439
 Alpha  occ. eigenvalues --   -0.49341  -0.49081  -0.48813  -0.48600  -0.48339
 Alpha  occ. eigenvalues --   -0.48009  -0.47923  -0.47533  -0.47209  -0.47118
 Alpha  occ. eigenvalues --   -0.46782  -0.46697  -0.46431  -0.46228  -0.46178
 Alpha  occ. eigenvalues --   -0.45746  -0.45582  -0.45516  -0.45140  -0.44864
 Alpha  occ. eigenvalues --   -0.44318  -0.44287  -0.44187  -0.44090  -0.43822
 Alpha  occ. eigenvalues --   -0.43717  -0.43659  -0.43390  -0.43289  -0.43127
 Alpha  occ. eigenvalues --   -0.42879  -0.42658  -0.42568  -0.42340  -0.42058
 Alpha  occ. eigenvalues --   -0.41756  -0.41720  -0.41543  -0.41484  -0.41278
 Alpha  occ. eigenvalues --   -0.41209  -0.41161  -0.41137  -0.40711  -0.40534
 Alpha  occ. eigenvalues --   -0.40271  -0.40156  -0.40100  -0.39875  -0.39655
 Alpha  occ. eigenvalues --   -0.39225  -0.38690  -0.38460  -0.38375  -0.37955
 Alpha  occ. eigenvalues --   -0.37654  -0.37268  -0.37079  -0.37074  -0.36719
 Alpha  occ. eigenvalues --   -0.36584  -0.36216  -0.35884  -0.35784  -0.35726
 Alpha  occ. eigenvalues --   -0.35599  -0.35426  -0.34948  -0.33947  -0.33752
 Alpha  occ. eigenvalues --   -0.33245  -0.32509  -0.32050  -0.30786  -0.29891
 Alpha  occ. eigenvalues --   -0.29801  -0.29258  -0.29046  -0.26452  -0.23657
 Alpha  occ. eigenvalues --   -0.21113
 Alpha virt. eigenvalues --   -0.06734  -0.03153   0.00517   0.03084   0.05194
 Alpha virt. eigenvalues --    0.05333   0.05823   0.06099   0.06442   0.07061
 Alpha virt. eigenvalues --    0.07373   0.09207   0.10659   0.11029   0.11381

 Mulliken charges:
               1
     1  Mg   0.843777
     2  C    0.086949
     3  C   -0.230707
     4  C   -0.162388
     5  C   -0.165977
     6  N   -0.622457
     7  C    0.321045
     8  C   -0.176276
     9  C   -0.112372
    10  C    0.325997
    11  C   -0.319002
    12  C   -0.158708
    13  C   -0.263973
    14  C    0.619856
    15  O   -0.492660
    16  O   -0.483489
    17  N   -0.739739
    18  C    0.380352
    19  C    0.005968
    20  C    0.063714
    21  C    0.304088
    22  C   -0.364932
    23  C   -0.109958
    24  C   -0.250047
    25  N   -0.653200
    26  C    0.273412
    27  C    0.039417
    28  C    0.036658
    29  C    0.272936
    30  C   -0.370318
    31  C   -0.247730
    32  C   -0.289804
    33  N   -0.765931
    34  C    0.236866
    35  C    0.101959
    36  C    0.026343
    37  C    0.274809
    38  C   -0.385865
    39  C    0.346978
    40  O   -0.476810
    41  C   -0.325883
    42  C    0.611319
    43  O   -0.487776
    44  O   -0.448482
    45  C   -0.082307
    46  C    0.013167
    47  C   -0.139726
    48  C    0.129571
    49  C   -0.353243
    50  C   -0.219899
    51  C   -0.160763
    52  C   -0.175662
    53  C   -0.075811
    54  C   -0.293870
    55  C   -0.155974
    56  C   -0.182147
    57  C   -0.188818
    58  C   -0.080882
    59  C   -0.291435
    60  C   -0.182590
    61  C   -0.185269
    62  C   -0.157478
    63  C   -0.049798
    64  C   -0.290811
    65  C   -0.281435
    66  H    0.082698
    67  H    0.085249
    68  H    0.085816
    69  H    0.113569
    70  H    0.109895
    71  H    0.116780
    72  H    0.099095
    73  H    0.112396
    74  H    0.123875
    75  H    0.135076
    76  H    0.123579
    77  H    0.120257
    78  H    0.128070
    79  H    0.143529
    80  H    0.069789
    81  H    0.082183
    82  H    0.122868
    83  H    0.096973
    84  H    0.130208
    85  H    0.114398
    86  H    0.083489
    87  H    0.116224
    88  H    0.097366
    89  H    0.109032
    90  H    0.092800
    91  H    0.114000
    92  H    0.100944
    93  H    0.131971
    94  H    0.113253
    95  H    0.131824
    96  H    0.105731
    97  H    0.157322
    98  H    0.138062
    99  H    0.142972
   100  H    0.115342
   101  H    0.082409
   102  H    0.125077
   103  H    0.101864
   104  H    0.106990
   105  H    0.086066
   106  H    0.110194
   107  H    0.117800
   108  H    0.060302
   109  H    0.079609
   110  H    0.095764
   111  H    0.074599
   112  H    0.098929
   113  H    0.096780
   114  H    0.074295
   115  H    0.103814
   116  H    0.100889
   117  H    0.101704
   118  H    0.070225
   119  H    0.086523
   120  H    0.084862
   121  H    0.081313
   122  H    0.114417
   123  H    0.105716
   124  H    0.094962
   125  H    0.097661
   126  H    0.085377
   127  H    0.089468
   128  H    0.076038
   129  H    0.072283
   130  H    0.099410
   131  H    0.066163
   132  H    0.087627
   133  H    0.098496
   134  H    0.112843
   135  H    0.113382
   136  H    0.078012
   137  H    0.058723
 Sum of Mulliken charges =   0.00000

 Dipole moment (field-independent basis, Debye):
    X=              1.1397    Y=              4.9727    Z=              0.8932  Tot=              5.1793
 Quadrupole moment (field-independent basis, Debye-Ang):
   XX=           -346.9438   YY=           -402.8977   ZZ=           -398.4052
   XY=            -39.3882   XZ=             14.0740   YZ=             -3.8916

 Normal termination of Gaussian 09 at Mon Jul  1 03:23:53 2019.
