 Gaussian 09, Revision D.01,
 Gaussian 09:  ES64L-G09RevD.01 24-Apr-2013

 -------------------------------------
 # td=(NStates=1) CAM-B3LYP/6-31G(d,p)
 -------------------------------------

 --
 TD
 --
 Symbolic Z-matrix:
 Charge =  0 Multiplicity = 1

                         Standard orientation:
 ---------------------------------------------------------------------
 Center     Atomic      Atomic             Coordinates (Angstroms)
 Number     Number       Type             X           Y           Z
 ---------------------------------------------------------------------
      1         12           0       -7.174730    0.598849    0.197131
      2          6           0       -4.793446   -1.985721    0.481393
      3          6           0       -4.843144    2.816899    1.186200
      4          6           0       -9.425537    3.125224   -0.325394
      5          6           0       -9.548478   -1.729169   -0.789646
      6          7           0       -5.170762    0.414808    0.673340
      7          6           0       -4.395855   -0.672558    0.776248
      8          6           0       -2.951805   -0.437416    1.134346
      9          6           0       -3.033920    1.107444    1.538398
     10          6           0       -4.397190    1.485926    1.025421
     11          6           0       -3.041128    1.198135    3.192288
     12          6           0       -1.916465   -0.639468   -0.072406
     13          6           0       -0.502263   -0.337809    0.281501
     14          6           0        0.534213   -0.655203   -0.734351
     15          8           0        0.198339   -1.154507   -1.778665
     16          8           0        1.767487   -0.354222   -0.377952
     17          7           0       -7.192980    2.613085    0.446718
     18          6           0       -6.051328    3.357024    0.887228
     19          6           0       -6.430867    4.780064    0.849522
     20          6           0       -7.698028    4.925858    0.424821
     21          6           0       -8.178084    3.480761    0.156212
     22          6           0       -5.425975    5.847007    1.336528
     23          6           0       -8.638049    6.038958    0.193546
     24          6           0       -8.216396    7.348103    0.125667
     25          7           0       -9.151304    0.712579   -0.427704
     26          6           0       -9.900407    1.852721   -0.555496
     27          6           0      -11.209099    1.390976   -1.018447
     28          6           0      -11.129840    0.065115   -1.208686
     29          6           0       -9.913444   -0.427787   -0.798314
     30          6           0      -12.370742    2.377543   -1.293715
     31          6           0      -12.371485   -0.711190   -1.658756
     32          6           0      -12.269776   -1.036256   -3.163229
     33          7           0       -7.248016   -1.403243   -0.158250
     34          6           0       -8.249403   -2.267271   -0.519345
     35          6           0       -7.877254   -3.576874   -0.605079
     36          6           0       -6.519872   -3.639384   -0.145640
     37          6           0       -6.243246   -2.152597    0.041237
     38          6           0       -8.587068   -4.761878   -0.984875
     39          6           0       -5.345241   -4.369382    0.098595
     40          8           0       -5.236327   -5.589102    0.059188
     41          6           0       -4.237626   -3.369572    0.689004
     42          6           0       -3.708578   -3.684826    2.027192
     43          8           0       -3.786657   -3.177059    3.072579
     44          8           0       -2.740363   -4.701397    1.746058
     45          6           0       -2.136324   -5.335293    2.865711
     46          6           0        2.771028   -0.605204   -1.311495
     47          6           0        4.096895   -0.393749   -0.564718
     48          6           0        5.148136    0.327019   -1.036590
     49          6           0        5.194868    1.075880   -2.274598
     50          6           0        6.430956    0.503308   -0.200934
     51          6           0        7.739072   -0.180591   -0.855445
     52          6           0        8.960010   -0.124076    0.042334
     53          6           0       10.227847   -0.453393   -0.768903
     54          6           0       10.142331   -1.878219   -1.339809
     55          6           0       11.432934   -0.123282    0.081879
     56          6           0       12.767664   -0.587102   -0.591342
     57          6           0       13.946848   -0.184346    0.348339
     58          6           0       15.315251   -0.276973   -0.382948
     59          6           0       15.775540   -1.638858   -0.850183
     60          6           0       16.367321    0.258234    0.553575
     61          6           0       17.769658    0.452536   -0.191303
     62          6           0       18.900104    1.305994    0.727358
     63          6           0       20.306056    1.236682    0.243640
     64          6           0       20.386015    1.975325   -1.211425
     65          6           0       21.174140    2.169026    1.139108
     66          1           0       -4.246319    3.397645    1.572995
     67          1           0      -10.158100    4.062339   -0.349141
     68          1           0      -10.089368   -2.411445   -1.344926
     69          1           0       -2.628837   -0.931731    1.877986
     70          1           0       -2.288645    1.667702    1.196781
     71          1           0       -2.086664    1.047669    3.696594
     72          1           0       -3.114147    2.134424    3.414320
     73          1           0       -3.909672    0.746538    3.539266
     74          1           0       -2.013926   -1.651766   -0.538485
     75          1           0       -2.295760    0.087967   -0.950138
     76          1           0       -0.583468    0.744985    0.650246
     77          1           0       -0.313275   -1.013795    1.024036
     78          1           0       -4.820347    6.343301    0.535141
     79          1           0       -5.919037    6.711518    1.889351
     80          1           0       -4.836135    5.495487    2.175719
     81          1           0       -9.688793    5.732558    0.266458
     82          1           0       -9.019398    8.047538   -0.044281
     83          1           0       -7.247032    7.776125    0.066590
     84          1           0      -12.131773    2.974433   -2.183710
     85          1           0      -13.372834    2.019907   -1.424382
     86          1           0      -12.294221    3.134017   -0.395446
     87          1           0      -12.368571   -1.777966   -1.214407
     88          1           0      -13.324682   -0.218803   -1.576979
     89          1           0      -13.212179   -1.742213   -3.629960
     90          1           0      -12.247584   -0.166274   -3.604039
     91          1           0      -11.268707   -1.495888   -3.581579
     92          1           0       -8.718050   -4.865517   -1.988054
     93          1           0       -8.088476   -5.674875   -0.600158
     94          1           0       -9.492586   -4.947723   -0.362322
     95          1           0       -3.228523   -3.465602   -0.031479
     96          1           0       -1.463256   -4.538371    3.590789
     97          1           0       -2.840956   -5.745658    3.491059
     98          1           0       -1.374948   -6.154661    2.788176
     99          1           0        2.588299   -1.762066   -1.680376
    100          1           0        2.529520    0.095201   -2.228432
    101          1           0        4.160382   -0.931007    0.398862
    102          1           0        4.333867    1.140969   -2.813377
    103          1           0        5.722772    1.954321   -2.162712
    104          1           0        6.051499    0.605631   -3.164361
    105          1           0        6.519659    1.513553    0.015209
    106          1           0        6.143005   -0.122348    0.790706
    107          1           0        7.437726   -1.220304   -1.309067
    108          1           0        8.069253    0.597537   -1.756246
    109          1           0        9.043629    0.801478    0.366177
    110          1           0        8.859607   -0.641402    0.800930
    111          1           0       10.180185    0.316149   -1.469614
    112          1           0        9.258449   -2.094943   -1.864892
    113          1           0       11.093196   -2.393239   -1.837467
    114          1           0       10.173320   -2.659874   -0.305500
    115          1           0       11.406397    0.939504   -0.012054
    116          1           0       11.317992   -0.546277    1.086756
    117          1           0       12.800201   -1.599894   -0.631706
    118          1           0       12.889335   -0.153158   -1.827979
    119          1           0       13.924349    0.915158    0.548825
    120          1           0       14.009951   -0.755150    1.479597
    121          1           0       15.271246    0.423100   -1.264807
    122          1           0       15.806453   -2.248490    0.145481
    123          1           0       15.067369   -2.081069   -1.452861
    124          1           0       16.815044   -1.573035   -1.444811
    125          1           0       16.079873    1.143023    1.114845
    126          1           0       16.489693   -0.330457    1.426772
    127          1           0       18.028893   -0.522569   -0.206150
    128          1           0       17.566187    1.162720   -0.940364
    129          1           0       18.621185    2.327119    0.686108
    130          1           0       18.886066    0.859974    1.750686
    131          1           0       20.800466    0.321328    0.291196
    132          1           0       20.250545    2.980882   -1.026066
    133          1           0       21.492791    1.928850   -1.250617
    134          1           0       19.781700    1.621874   -2.040089
    135          1           0       21.150326    1.751708    2.257356
    136          1           0       22.157779    2.255526    0.683216
    137          1           0       20.749276    3.323444    1.051519
 ---------------------------------------------------------------------

 SCF Done:  E(RCAM-B3LYP) =  -2932.55540318     A.U. after   18 cycles

 Excitation energies and oscillator strengths:

 Excited State   1:      Singlet-A      2.0556 eV  603.16 nm  f=0.2532  <S**2>=0.000
     240 -> 242       -0.18921
     240 -> 243        0.19558
     241 -> 242        0.63747
     241 -> 243        0.11071
 This state for optimization and/or second-order correction.
 Total Energy, E(TD-HF/TD-KS) =  -2932.47986155
 Copying the excited state density for this state as the 1-particle RhoCI density.

 The electronic state is 1-A.
 Alpha  occ. eigenvalues --  -46.84457 -19.26957 -19.24238 -19.22360 -19.20474
 Alpha  occ. eigenvalues --  -19.18442 -14.43146 -14.39992 -14.39510 -14.38950
 Alpha  occ. eigenvalues --  -10.39340 -10.38900 -10.33902 -10.33863 -10.32564
 Alpha  occ. eigenvalues --  -10.31230 -10.30783 -10.30530 -10.30497 -10.29567
 Alpha  occ. eigenvalues --  -10.29385 -10.29065 -10.28791 -10.28433 -10.28338
 Alpha  occ. eigenvalues --  -10.28153 -10.27953 -10.27913 -10.27740 -10.27669
 Alpha  occ. eigenvalues --  -10.27666 -10.27447 -10.27378 -10.27353 -10.27351
 Alpha  occ. eigenvalues --  -10.27075 -10.26849 -10.26848 -10.26828 -10.26804
 Alpha  occ. eigenvalues --  -10.26792 -10.26778 -10.26727 -10.26623 -10.26607
 Alpha  occ. eigenvalues --  -10.26481 -10.26399 -10.26133 -10.25911 -10.25604
 Alpha  occ. eigenvalues --  -10.25418 -10.25363 -10.25232 -10.25154 -10.24991
 Alpha  occ. eigenvalues --  -10.24991 -10.24974 -10.24837 -10.24518 -10.24168
 Alpha  occ. eigenvalues --  -10.24092 -10.24069 -10.23847 -10.23411 -10.22305
 Alpha  occ. eigenvalues --   -3.13567  -1.88272  -1.87782  -1.87770  -1.20444
 Alpha  occ. eigenvalues --   -1.17961  -1.10336  -1.09473  -1.08875  -1.06019
 Alpha  occ. eigenvalues --   -1.05120  -1.03274  -1.02094  -0.91709  -0.91559
 Alpha  occ. eigenvalues --   -0.90670  -0.90268  -0.89789  -0.89666  -0.89322
 Alpha  occ. eigenvalues --   -0.88704  -0.88263  -0.88219  -0.87231  -0.86580
 Alpha  occ. eigenvalues --   -0.85013  -0.84581  -0.83144  -0.82855  -0.82265
 Alpha  occ. eigenvalues --   -0.81457  -0.80918  -0.80599  -0.79099  -0.78658
 Alpha  occ. eigenvalues --   -0.78376  -0.77401  -0.76522  -0.76080  -0.75148
 Alpha  occ. eigenvalues --   -0.74924  -0.74805  -0.74463  -0.73749  -0.73199
 Alpha  occ. eigenvalues --   -0.72286  -0.70377  -0.69836  -0.68949  -0.68650
 Alpha  occ. eigenvalues --   -0.68084  -0.67259  -0.66319  -0.65517  -0.65515
 Alpha  occ. eigenvalues --   -0.64471  -0.63210  -0.62914  -0.62732  -0.61950
 Alpha  occ. eigenvalues --   -0.61661  -0.61578  -0.60383  -0.60224  -0.59836
 Alpha  occ. eigenvalues --   -0.59013  -0.58667  -0.58132  -0.57735  -0.56816
 Alpha  occ. eigenvalues --   -0.56545  -0.55898  -0.55780  -0.55529  -0.55054
 Alpha  occ. eigenvalues --   -0.54613  -0.54499  -0.54353  -0.53865  -0.53286
 Alpha  occ. eigenvalues --   -0.52962  -0.52576  -0.52272  -0.52171  -0.52163
 Alpha  occ. eigenvalues --   -0.51807  -0.51722  -0.51479  -0.51233  -0.51029
 Alpha  occ. eigenvalues --   -0.50719  -0.50623  -0.50542  -0.49935  -0.49797
 Alpha  occ. eigenvalues --   -0.49406  -0.49240  -0.48971  -0.48725  -0.48344
 Alpha  occ. eigenvalues --   -0.48147  -0.48041  -0.47894  -0.47522  -0.47154
 Alpha  occ. eigenvalues --   -0.46937  -0.46824  -0.46404  -0.46201  -0.46022
 Alpha  occ. eigenvalues --   -0.45854  -0.45683  -0.45490  -0.45439  -0.45132
 Alpha  occ. eigenvalues --   -0.44872  -0.44841  -0.44659  -0.44069  -0.43730
 Alpha  occ. eigenvalues --   -0.43673  -0.43482  -0.43424  -0.43186  -0.42936
 Alpha  occ. eigenvalues --   -0.42827  -0.42724  -0.42514  -0.42376  -0.42160
 Alpha  occ. eigenvalues --   -0.42125  -0.42021  -0.41916  -0.41774  -0.41301
 Alpha  occ. eigenvalues --   -0.40999  -0.40794  -0.40553  -0.40444  -0.39987
 Alpha  occ. eigenvalues --   -0.39879  -0.39673  -0.39482  -0.39419  -0.39280
 Alpha  occ. eigenvalues --   -0.39144  -0.38815  -0.38532  -0.38363  -0.38318
 Alpha  occ. eigenvalues --   -0.37748  -0.37265  -0.37250  -0.37132  -0.37093
 Alpha  occ. eigenvalues --   -0.36772  -0.36616  -0.36153  -0.36122  -0.35507
 Alpha  occ. eigenvalues --   -0.34893  -0.34510  -0.34058  -0.33597  -0.33408
 Alpha  occ. eigenvalues --   -0.33006  -0.32713  -0.32696  -0.30907  -0.29247
 Alpha  occ. eigenvalues --   -0.29204  -0.28851  -0.28552  -0.27889  -0.23550
 Alpha  occ. eigenvalues --   -0.21420
 Alpha virt. eigenvalues --   -0.06974  -0.02968   0.01216   0.03371   0.05023
 Alpha virt. eigenvalues --    0.05515   0.05757   0.06475   0.06751   0.07203
 Alpha virt. eigenvalues --    0.08031   0.10490   0.11198   0.11420   0.11650

 Mulliken charges:
               1
     1  Mg   0.812939
     2  C    0.056302
     3  C   -0.145850
     4  C   -0.194757
     5  C   -0.155367
     6  N   -0.636571
     7  C    0.302410
     8  C   -0.108771
     9  C   -0.165435
    10  C    0.336512
    11  C   -0.322641
    12  C   -0.182563
    13  C   -0.250868
    14  C    0.601257
    15  O   -0.468161
    16  O   -0.439700
    17  N   -0.723358
    18  C    0.321032
    19  C   -0.004029
    20  C    0.054818
    21  C    0.311432
    22  C   -0.384928
    23  C   -0.084125
    24  C   -0.235462
    25  N   -0.729689
    26  C    0.334654
    27  C   -0.002844
    28  C    0.031690
    29  C    0.320544
    30  C   -0.363664
    31  C   -0.233665
    32  C   -0.299174
    33  N   -0.688744
    34  C    0.227652
    35  C    0.046495
    36  C    0.018765
    37  C    0.274856
    38  C   -0.400787
    39  C    0.334690
    40  O   -0.474112
    41  C   -0.332142
    42  C    0.635610
    43  O   -0.417019
    44  O   -0.483407
    45  C   -0.064128
    46  C    0.004264
    47  C   -0.145599
    48  C    0.141550
    49  C   -0.338882
    50  C   -0.232854
    51  C   -0.176858
    52  C   -0.140291
    53  C   -0.062778
    54  C   -0.296067
    55  C   -0.172244
    56  C   -0.167656
    57  C   -0.169015
    58  C   -0.050110
    59  C   -0.298174
    60  C   -0.203551
    61  C   -0.182599
    62  C   -0.162638
    63  C   -0.069281
    64  C   -0.320758
    65  C   -0.299455
    66  H    0.031352
    67  H    0.076439
    68  H    0.102876
    69  H    0.113306
    70  H    0.100086
    71  H    0.113940
    72  H    0.118135
    73  H    0.137693
    74  H    0.120428
    75  H    0.085158
    76  H    0.117754
    77  H    0.144358
    78  H    0.128123
    79  H    0.116155
    80  H    0.122962
    81  H    0.110151
    82  H    0.102535
    83  H    0.118938
    84  H    0.126489
    85  H    0.119194
    86  H    0.100565
    87  H    0.099433
    88  H    0.112345
    89  H    0.067114
    90  H    0.124825
    91  H    0.091542
    92  H    0.136530
    93  H    0.147956
    94  H    0.114094
    95  H    0.162500
    96  H    0.061855
    97  H    0.129822
    98  H    0.122676
    99  H    0.114178
   100  H    0.112322
   101  H    0.099730
   102  H    0.116101
   103  H    0.126151
   104  H    0.070224
   105  H    0.113518
   106  H    0.074313
   107  H    0.100609
   108  H    0.059973
   109  H    0.094586
   110  H    0.099194
   111  H    0.088717
   112  H    0.116974
   113  H    0.095972
   114  H    0.045497
   115  H    0.099492
   116  H    0.095674
   117  H    0.117116
   118  H    0.053504
   119  H    0.096384
   120  H    0.061259
   121  H    0.077425
   122  H    0.083810
   123  H    0.105943
   124  H    0.096401
   125  H    0.076012
   126  H    0.085842
   127  H    0.116547
   128  H    0.103867
   129  H    0.090901
   130  H    0.073636
   131  H    0.097297
   132  H    0.108725
   133  H    0.093045
   134  H    0.108917
   135  H    0.088618
   136  H    0.103970
   137  H    0.073520
 Sum of Mulliken charges =   0.00000

 Dipole moment (field-independent basis, Debye):
    X=              1.8765    Y=              7.9184    Z=              1.2672  Tot=              8.2358
 Quadrupole moment (field-independent basis, Debye-Ang):
   XX=           -359.0984   YY=           -392.6491   ZZ=           -399.2397
   XY=            -35.9146   XZ=              6.6438   YZ=             -2.3569

 Normal termination of Gaussian 09 at Thu Jun 27 07:02:00 2019.
