 Gaussian 09, Revision D.01,
 Gaussian 09:  ES64L-G09RevD.01 24-Apr-2013

 -------------------------------------
 # td=(NStates=1) CAM-B3LYP/6-31G(d,p)
 -------------------------------------

 --
 TD
 --
 Symbolic Z-matrix:
 Charge =  0 Multiplicity = 1

                         Standard orientation:
 ---------------------------------------------------------------------
 Center     Atomic      Atomic             Coordinates (Angstroms)
 Number     Number       Type             X           Y           Z
 ---------------------------------------------------------------------
      1         12           0       -7.020266    0.630601   -0.034892
      2          6           0       -4.755111   -2.005568    0.432214
      3          6           0       -4.865011    2.737273    1.200529
      4          6           0       -9.458680    3.108358   -0.340142
      5          6           0       -9.459675   -1.721829   -1.047867
      6          7           0       -5.057820    0.480242    0.737613
      7          6           0       -4.343121   -0.700838    0.807856
      8          6           0       -2.944074   -0.405566    1.346423
      9          6           0       -3.076383    1.025844    1.833039
     10          6           0       -4.349789    1.481142    1.156093
     11          6           0       -3.165439    1.171261    3.350849
     12          6           0       -1.987957   -0.702207    0.297635
     13          6           0       -0.501138   -0.587765    0.728994
     14          6           0        0.476546   -0.816053   -0.381636
     15          8           0        0.221312   -1.209931   -1.401851
     16          8           0        1.749248   -0.407613   -0.022917
     17          7           0       -7.143481    2.612392    0.404239
     18          6           0       -6.026513    3.380293    0.792526
     19          6           0       -6.451506    4.716285    0.861098
     20          6           0       -7.748304    4.906534    0.328023
     21          6           0       -8.111614    3.433666    0.070377
     22          6           0       -5.589876    5.962450    1.386239
     23          6           0       -8.640776    5.968179    0.309242
     24          6           0       -8.366288    7.253345    0.189019
     25          7           0       -9.101573    0.663489   -0.482244
     26          6           0       -9.924753    1.843166   -0.553040
     27          6           0      -11.211135    1.341606   -1.122522
     28          6           0      -11.180339    0.127330   -1.359146
     29          6           0       -9.841408   -0.421387   -0.975310
     30          6           0      -12.357966    2.365153   -1.241392
     31          6           0      -12.293899   -0.703605   -2.000378
     32          6           0      -12.067271   -0.956512   -3.396214
     33          7           0       -7.212670   -1.412955   -0.232834
     34          6           0       -8.174838   -2.297842   -0.684297
     35          6           0       -7.798621   -3.573015   -0.781335
     36          6           0       -6.459658   -3.568330   -0.235934
     37          6           0       -6.166944   -2.196790   -0.032673
     38          6           0       -8.600333   -4.837639   -1.031111
     39          6           0       -5.273423   -4.324449    0.128231
     40          8           0       -5.107124   -5.567477    0.193409
     41          6           0       -4.113823   -3.268163    0.555876
     42          6           0       -3.643743   -3.604090    1.868745
     43          8           0       -3.772211   -3.060869    2.929307
     44          8           0       -2.770667   -4.759694    1.781148
     45          6           0       -2.228369   -5.177723    3.107443
     46          6           0        2.819471   -0.681345   -1.045990
     47          6           0        4.146806   -0.340328   -0.379655
     48          6           0        5.167347    0.456852   -0.868115
     49          6           0        4.956401    1.281052   -2.223455
     50          6           0        6.463023    0.452037   -0.195221
     51          6           0        7.543860   -0.012371   -1.005882
     52          6           0        8.905057   -0.102782   -0.130690
     53          6           0       10.171661   -0.438678   -0.752344
     54          6           0        9.979594   -1.987115   -1.198497
     55          6           0       11.473873   -0.293780    0.085339
     56          6           0       12.742606   -0.510298   -0.772168
     57          6           0       13.951026   -0.280043    0.176862
     58          6           0       15.327847   -0.178636   -0.507157
     59          6           0       15.786004   -1.632153   -0.983030
     60          6           0       16.426787    0.355244    0.345262
     61          6           0       17.798459    0.355177   -0.272492
     62          6           0       18.770762    1.303797    0.528225
     63          6           0       20.205423    1.426995    0.126375
     64          6           0       20.373373    2.309370   -1.170137
     65          6           0       21.075703    1.928191    1.229352
     66          1           0       -3.920418    3.243348    1.767970
     67          1           0      -10.111677    4.006813   -0.503214
     68          1           0      -10.277765   -2.334227   -1.491894
     69          1           0       -2.673488   -1.121227    2.243216
     70          1           0       -2.328265    1.823704    1.503878
     71          1           0       -2.251661    0.516669    3.617550
     72          1           0       -3.037788    2.256484    3.925574
     73          1           0       -4.102151    0.631017    3.830681
     74          1           0       -2.014946   -1.676975   -0.127730
     75          1           0       -1.837736   -0.170601   -0.657083
     76          1           0       -0.233723    0.472445    1.165793
     77          1           0       -0.228041   -1.252551    1.651685
     78          1           0       -5.043986    6.448290    0.631292
     79          1           0       -6.205179    6.756754    1.870290
     80          1           0       -4.944358    5.604148    2.209715
     81          1           0       -9.707902    5.724118    0.233691
     82          1           0       -9.275470    7.937991   -0.057279
     83          1           0       -7.259145    7.358370    0.196857
     84          1           0      -12.117970    3.164373   -2.076848
     85          1           0      -13.357608    2.047951   -1.605460
     86          1           0      -12.361768    2.815969   -0.351055
     87          1           0      -12.370814   -1.770205   -1.372406
     88          1           0      -13.336480   -0.253313   -1.866386
     89          1           0      -12.911263   -1.548151   -3.969479
     90          1           0      -11.832426    0.162718   -4.117371
     91          1           0      -11.124457   -1.562025   -3.749000
     92          1           0       -8.417271   -5.026460   -2.249361
     93          1           0       -7.999877   -5.699832   -0.509663
     94          1           0       -9.666098   -4.725652   -0.744519
     95          1           0       -3.448662   -3.534837   -0.266536
     96          1           0       -1.905979   -4.301022    3.878141
     97          1           0       -3.133824   -5.858537    3.486282
     98          1           0       -1.091504   -5.826242    2.927649
     99          1           0        2.669288   -1.649331   -1.248930
    100          1           0        2.522265   -0.066780   -1.872328
    101          1           0        4.477730   -1.035801    0.476646
    102          1           0        3.868243    1.361741   -2.453168
    103          1           0        5.411846    2.117132   -1.792586
    104          1           0        5.584311    0.811100   -3.077577
    105          1           0        6.715532    1.645436    0.134739
    106          1           0        6.331223   -0.330145    0.686315
    107          1           0        7.275824   -1.100920   -1.623230
    108          1           0        7.640782    0.874157   -1.714392
    109          1           0        9.209813    1.049812    0.001460
    110          1           0        8.599971   -0.482507    0.947611
    111          1           0       10.406521    0.175462   -1.812713
    112          1           0        8.927185   -2.353004   -1.483769
    113          1           0       10.833509   -2.214818   -1.815384
    114          1           0       10.342631   -2.492299   -0.240836
    115          1           0       11.618960    0.783132    0.236163
    116          1           0       11.474357   -0.930776    0.908410
    117          1           0       12.792602   -1.539763   -1.030646
    118          1           0       12.617627    0.296044   -1.424766
    119          1           0       13.834647    0.672018    0.665200
    120          1           0       13.739710   -1.080661    0.910717
    121          1           0       15.255957    0.512464   -1.465400
    122          1           0       15.899900   -2.117772   -0.198879
    123          1           0       14.941487   -2.107374   -1.665725
    124          1           0       16.667935   -1.661784   -1.594133
    125          1           0       16.122713    1.350464    0.740714
    126          1           0       16.544109   -0.304034    1.414664
    127          1           0       18.305957   -0.728081   -0.502164
    128          1           0       17.717032    0.705235   -1.323247
    129          1           0       18.295950    2.315925    0.641401
    130          1           0       18.961163    0.914638    1.591557
    131          1           0       20.726611    0.351031   -0.226005
    132          1           0       20.160300    3.329033   -0.745094
    133          1           0       21.361237    2.515705   -1.527935
    134          1           0       19.717763    1.979873   -2.114989
    135          1           0       20.981853    1.235584    2.117617
    136          1           0       22.049437    1.728472    0.967904
    137          1           0       20.910149    3.055158    1.362118
 ---------------------------------------------------------------------

 SCF Done:  E(RCAM-B3LYP) =  -2932.53409548     A.U. after   18 cycles

 Excitation energies and oscillator strengths:

 Excited State   1:      Singlet-A      1.9092 eV  649.42 nm  f=0.3318  <S**2>=0.000
     240 -> 243        0.17213
     241 -> 242        0.68098
 This state for optimization and/or second-order correction.
 Total Energy, E(TD-HF/TD-KS) =  -2932.46393524
 Copying the excited state density for this state as the 1-particle RhoCI density.

 The electronic state is 1-A.
 Alpha  occ. eigenvalues --  -46.85592 -19.23877 -19.23409 -19.21497 -19.21290
 Alpha  occ. eigenvalues --  -19.19333 -14.42573 -14.40537 -14.39758 -14.39159
 Alpha  occ. eigenvalues --  -10.39033 -10.37814 -10.35061 -10.33702 -10.31542
 Alpha  occ. eigenvalues --  -10.31256 -10.31028 -10.30897 -10.30819 -10.30411
 Alpha  occ. eigenvalues --  -10.29014 -10.28923 -10.28877 -10.28664 -10.28600
 Alpha  occ. eigenvalues --  -10.28546 -10.28493 -10.28233 -10.28217 -10.28189
 Alpha  occ. eigenvalues --  -10.28171 -10.28153 -10.28088 -10.28059 -10.28000
 Alpha  occ. eigenvalues --  -10.27867 -10.27709 -10.27671 -10.27657 -10.27490
 Alpha  occ. eigenvalues --  -10.27460 -10.27404 -10.27224 -10.27078 -10.27018
 Alpha  occ. eigenvalues --  -10.27003 -10.26872 -10.26831 -10.26807 -10.26678
 Alpha  occ. eigenvalues --  -10.26651 -10.26393 -10.26226 -10.26032 -10.25888
 Alpha  occ. eigenvalues --  -10.25718 -10.25563 -10.25288 -10.25080 -10.25018
 Alpha  occ. eigenvalues --  -10.24897 -10.24580 -10.24555 -10.24497 -10.23244
 Alpha  occ. eigenvalues --   -3.14464  -1.89175  -1.88687  -1.88641  -1.19927
 Alpha  occ. eigenvalues --   -1.15819  -1.09119  -1.08040  -1.06640  -1.06466
 Alpha  occ. eigenvalues --   -1.04710  -1.04392  -1.01293  -0.93555  -0.91970
 Alpha  occ. eigenvalues --   -0.91190  -0.90889  -0.90664  -0.89664  -0.89652
 Alpha  occ. eigenvalues --   -0.88833  -0.88371  -0.87842  -0.86838  -0.86207
 Alpha  occ. eigenvalues --   -0.85566  -0.84718  -0.83490  -0.83356  -0.83210
 Alpha  occ. eigenvalues --   -0.81493  -0.80794  -0.80033  -0.79802  -0.78121
 Alpha  occ. eigenvalues --   -0.77426  -0.77401  -0.75951  -0.75726  -0.75488
 Alpha  occ. eigenvalues --   -0.75139  -0.74391  -0.73916  -0.73422  -0.72967
 Alpha  occ. eigenvalues --   -0.71283  -0.70245  -0.69199  -0.68870  -0.67626
 Alpha  occ. eigenvalues --   -0.67217  -0.66158  -0.65693  -0.65566  -0.64496
 Alpha  occ. eigenvalues --   -0.63275  -0.62365  -0.61406  -0.61310  -0.61089
 Alpha  occ. eigenvalues --   -0.60760  -0.60418  -0.59890  -0.59703  -0.58943
 Alpha  occ. eigenvalues --   -0.58173  -0.58018  -0.57774  -0.57211  -0.57124
 Alpha  occ. eigenvalues --   -0.56893  -0.56389  -0.55893  -0.54927  -0.54526
 Alpha  occ. eigenvalues --   -0.54074  -0.53720  -0.53565  -0.53450  -0.53302
 Alpha  occ. eigenvalues --   -0.52854  -0.52627  -0.52353  -0.52264  -0.51955
 Alpha  occ. eigenvalues --   -0.51496  -0.51139  -0.50842  -0.50621  -0.50545
 Alpha  occ. eigenvalues --   -0.50425  -0.50113  -0.49915  -0.49739  -0.49224
 Alpha  occ. eigenvalues --   -0.48951  -0.48879  -0.48672  -0.48580  -0.48343
 Alpha  occ. eigenvalues --   -0.48185  -0.47844  -0.47665  -0.47570  -0.47101
 Alpha  occ. eigenvalues --   -0.47042  -0.46712  -0.46453  -0.46203  -0.45938
 Alpha  occ. eigenvalues --   -0.45866  -0.45600  -0.45376  -0.45135  -0.45006
 Alpha  occ. eigenvalues --   -0.44840  -0.44579  -0.44137  -0.44011  -0.43969
 Alpha  occ. eigenvalues --   -0.43632  -0.43563  -0.43468  -0.43199  -0.43107
 Alpha  occ. eigenvalues --   -0.42889  -0.42868  -0.42377  -0.42158  -0.41816
 Alpha  occ. eigenvalues --   -0.41658  -0.41579  -0.41498  -0.41383  -0.41233
 Alpha  occ. eigenvalues --   -0.41063  -0.40846  -0.40625  -0.40527  -0.40381
 Alpha  occ. eigenvalues --   -0.39823  -0.39239  -0.39110  -0.39017  -0.38869
 Alpha  occ. eigenvalues --   -0.38365  -0.38357  -0.38093  -0.37936  -0.37894
 Alpha  occ. eigenvalues --   -0.37369  -0.37251  -0.36927  -0.36578  -0.36558
 Alpha  occ. eigenvalues --   -0.36412  -0.36120  -0.35914  -0.35289  -0.35233
 Alpha  occ. eigenvalues --   -0.35034  -0.34770  -0.34008  -0.33849  -0.33787
 Alpha  occ. eigenvalues --   -0.33359  -0.32887  -0.32798  -0.31684  -0.30253
 Alpha  occ. eigenvalues --   -0.29429  -0.29153  -0.28464  -0.28049  -0.23335
 Alpha  occ. eigenvalues --   -0.21721
 Alpha virt. eigenvalues --   -0.08263  -0.01657   0.01328   0.03537   0.04235
 Alpha virt. eigenvalues --    0.05031   0.05336   0.07283   0.07702   0.08248
 Alpha virt. eigenvalues --    0.08871   0.10272   0.10297   0.11067   0.11484

 Mulliken charges:
               1
     1  Mg   0.829802
     2  C    0.083723
     3  C   -0.192314
     4  C   -0.193314
     5  C   -0.183716
     6  N   -0.634795
     7  C    0.298551
     8  C   -0.170761
     9  C   -0.143281
    10  C    0.338787
    11  C   -0.294866
    12  C   -0.173380
    13  C   -0.288224
    14  C    0.598861
    15  O   -0.412604
    16  O   -0.532961
    17  N   -0.700040
    18  C    0.316997
    19  C   -0.010431
    20  C    0.029856
    21  C    0.316796
    22  C   -0.378762
    23  C   -0.072471
    24  C   -0.252493
    25  N   -0.699606
    26  C    0.288215
    27  C    0.035846
    28  C    0.048597
    29  C    0.307646
    30  C   -0.360184
    31  C   -0.223012
    32  C   -0.269443
    33  N   -0.725590
    34  C    0.261020
    35  C    0.031373
    36  C    0.006194
    37  C    0.303141
    38  C   -0.355360
    39  C    0.309407
    40  O   -0.483232
    41  C   -0.343012
    42  C    0.656879
    43  O   -0.460805
    44  O   -0.498296
    45  C   -0.059206
    46  C    0.026140
    47  C   -0.133735
    48  C    0.102176
    49  C   -0.343654
    50  C   -0.214452
    51  C   -0.141076
    52  C   -0.150237
    53  C   -0.056054
    54  C   -0.323201
    55  C   -0.185367
    56  C   -0.181794
    57  C   -0.175162
    58  C   -0.063609
    59  C   -0.303736
    60  C   -0.145174
    61  C   -0.173000
    62  C   -0.146675
    63  C   -0.058794
    64  C   -0.304112
    65  C   -0.302475
    66  H    0.067547
    67  H    0.094141
    68  H    0.089900
    69  H    0.134834
    70  H    0.110325
    71  H    0.109322
    72  H    0.099726
    73  H    0.124556
    74  H    0.134041
    75  H    0.120283
    76  H    0.117818
    77  H    0.119932
    78  H    0.136507
    79  H    0.122376
    80  H    0.114549
    81  H    0.092726
    82  H    0.116801
    83  H    0.103700
    84  H    0.100418
    85  H    0.113771
    86  H    0.134023
    87  H    0.084346
    88  H    0.110688
    89  H    0.097666
    90  H    0.054225
    91  H    0.108501
    92  H    0.100188
    93  H    0.148596
    94  H    0.121483
    95  H    0.193648
    96  H    0.121270
    97  H    0.131040
    98  H    0.084845
    99  H    0.134979
   100  H    0.119460
   101  H    0.080860
   102  H    0.117327
   103  H    0.124637
   104  H    0.123122
   105  H    0.079264
   106  H    0.087840
   107  H    0.070929
   108  H    0.095484
   109  H    0.065542
   110  H    0.091097
   111  H    0.057091
   112  H    0.102241
   113  H    0.106282
   114  H    0.082590
   115  H    0.094092
   116  H    0.098801
   117  H    0.109473
   118  H    0.100661
   119  H    0.085130
   120  H    0.089635
   121  H    0.069812
   122  H    0.119054
   123  H    0.073726
   124  H    0.103360
   125  H    0.090740
   126  H    0.054960
   127  H    0.082298
   128  H    0.093355
   129  H    0.088426
   130  H    0.080107
   131  H    0.050648
   132  H    0.084446
   133  H    0.104430
   134  H    0.089976
   135  H    0.098307
   136  H    0.116405
   137  H    0.094081
 Sum of Mulliken charges =   0.00000

 Dipole moment (field-independent basis, Debye):
    X=              1.5744    Y=              7.2084    Z=             -0.6482  Tot=              7.4067
 Quadrupole moment (field-independent basis, Debye-Ang):
   XX=           -325.5627   YY=           -405.6265   ZZ=           -399.0257
   XY=            -33.1028   XZ=             15.5856   YZ=             -0.7622

 Normal termination of Gaussian 09 at Mon Jul  1 12:34:16 2019.
