 Gaussian 09, Revision D.01,
 Gaussian 09:  ES64L-G09RevD.01 24-Apr-2013

 -------------------------------------
 # td=(NStates=1) CAM-B3LYP/6-31G(d,p)
 -------------------------------------

 --
 TD
 --
 Symbolic Z-matrix:
 Charge =  0 Multiplicity = 1

                         Standard orientation:
 ---------------------------------------------------------------------
 Center     Atomic      Atomic             Coordinates (Angstroms)
 Number     Number       Type             X           Y           Z
 ---------------------------------------------------------------------
      1         12           0       -7.136819    0.568956    0.024615
      2          6           0       -4.773607   -1.938505    0.594752
      3          6           0       -4.990609    2.770439    1.359814
      4          6           0       -9.418105    3.099224   -0.351976
      5          6           0       -9.434561   -1.803664   -1.002445
      6          7           0       -5.144688    0.510846    0.718497
      7          6           0       -4.375464   -0.657160    0.786683
      8          6           0       -2.952464   -0.329801    1.253446
      9          6           0       -3.121842    1.151444    1.695888
     10          6           0       -4.515193    1.531353    1.243339
     11          6           0       -3.081330    1.297935    3.335185
     12          6           0       -1.933476   -0.555050    0.086073
     13          6           0       -0.475450   -0.386847    0.524047
     14          6           0        0.579103   -0.588749   -0.573492
     15          8           0        0.238632   -0.839600   -1.734765
     16          8           0        1.791781   -0.442393   -0.123531
     17          7           0       -7.202331    2.630071    0.443436
     18          6           0       -6.177236    3.324270    0.830138
     19          6           0       -6.486733    4.748180    0.856176
     20          6           0       -7.743074    4.908630    0.363935
     21          6           0       -8.196752    3.511189    0.055913
     22          6           0       -5.542975    5.827992    1.472357
     23          6           0       -8.699582    6.047393    0.247688
     24          6           0       -8.240886    7.325127    0.012216
     25          7           0       -9.032920    0.632960   -0.703565
     26          6           0       -9.830623    1.756890   -0.757098
     27          6           0      -11.220243    1.360694   -1.181641
     28          6           0      -11.243268   -0.029953   -1.363706
     29          6           0       -9.947220   -0.444320   -1.026186
     30          6           0      -12.383867    2.245010   -1.421036
     31          6           0      -12.394079   -0.859107   -1.816413
     32          6           0      -12.218777   -1.304766   -3.255830
     33          7           0       -7.155581   -1.379346   -0.228783
     34          6           0       -8.184499   -2.274163   -0.610159
     35          6           0       -7.801558   -3.694782   -0.434981
     36          6           0       -6.478198   -3.597374   -0.011198
     37          6           0       -6.083244   -2.181196    0.014026
     38          6           0       -8.455672   -4.936892   -0.754863
     39          6           0       -5.294175   -4.303855    0.197482
     40          8           0       -5.100712   -5.540199    0.201189
     41          6           0       -4.173804   -3.254184    0.637342
     42          6           0       -3.528705   -3.630170    1.883118
     43          8           0       -3.825504   -3.103364    3.009743
     44          8           0       -2.540867   -4.567931    1.839784
     45          6           0       -1.926576   -4.954149    3.038517
     46          6           0        2.782921   -0.619407   -1.108453
     47          6           0        4.169086   -0.480847   -0.544336
     48          6           0        5.115829    0.321925   -0.916281
     49          6           0        4.981564    1.216301   -2.108912
     50          6           0        6.434986    0.424187   -0.177166
     51          6           0        7.566016   -0.184524   -0.922895
     52          6           0        8.915849   -0.155663   -0.184045
     53          6           0       10.199506   -0.587051   -0.877096
     54          6           0       10.102768   -2.007654   -1.355271
     55          6           0       11.375627   -0.341948    0.016368
     56          6           0       12.758929   -0.497548   -0.701648
     57          6           0       13.987991   -0.177953    0.177244
     58          6           0       15.338457   -0.253510   -0.586499
     59          6           0       15.700473   -1.662434   -0.876447
     60          6           0       16.301539    0.479402    0.329939
     61          6           0       17.865503    0.483964   -0.212635
     62          6           0       18.811397    1.146015    0.802677
     63          6           0       20.194555    1.437013    0.177635
     64          6           0       20.147522    2.270833   -1.127156
     65          6           0       21.190098    2.017220    1.229056
     66          1           0       -4.152974    3.546580    1.695529
     67          1           0      -10.214685    3.955820   -0.555351
     68          1           0      -10.143844   -2.582011   -1.041832
     69          1           0       -2.574647   -1.057191    2.045961
     70          1           0       -2.527235    1.809581    1.371109
     71          1           0       -1.941560    1.174936    3.700367
     72          1           0       -3.390654    2.331795    3.595399
     73          1           0       -3.532172    0.540964    3.838420
     74          1           0       -1.881275   -1.553920   -0.542811
     75          1           0       -2.021175    0.065327   -0.544326
     76          1           0       -0.299471    0.547332    1.003902
     77          1           0       -0.149746   -0.999933    1.291242
     78          1           0       -4.843877    6.226683    0.618302
     79          1           0       -6.116892    6.565004    2.024020
     80          1           0       -4.909977    5.331698    2.229107
     81          1           0       -9.732611    5.890680    0.415990
     82          1           0       -8.884849    8.203513    0.225527
     83          1           0       -7.216096    7.625866   -0.185269
     84          1           0      -12.375433    2.953875   -2.312553
     85          1           0      -13.166268    1.599292   -1.863079
     86          1           0      -12.699395    2.948695   -0.668452
     87          1           0      -12.700066   -1.625844   -0.995744
     88          1           0      -13.195716   -0.255429   -1.809360
     89          1           0      -12.947685   -1.881925   -3.612080
     90          1           0      -11.918911   -0.386805   -3.898953
     91          1           0      -11.338919   -1.826628   -3.179641
     92          1           0       -8.837494   -4.951279   -1.616097
     93          1           0       -7.583825   -5.769592   -0.800197
     94          1           0       -9.186522   -5.322380    0.027852
     95          1           0       -3.545772   -3.403509   -0.288146
     96          1           0       -1.580628   -4.153204    3.734684
     97          1           0       -2.735217   -5.349658    3.646842
     98          1           0       -1.159423   -5.717314    2.732231
     99          1           0        2.737073   -1.555005   -1.599661
    100          1           0        2.475741   -0.035285   -1.940895
    101          1           0        4.282113   -1.115680    0.406565
    102          1           0        3.829653    1.200613   -2.334702
    103          1           0        5.313169    2.294509   -2.153595
    104          1           0        5.582465    1.045195   -3.066874
    105          1           0        6.496626    1.425468    0.007797
    106          1           0        6.455620   -0.041528    0.796967
    107          1           0        7.299862   -1.316062   -1.006359
    108          1           0        7.770805    0.188388   -1.905977
    109          1           0        9.153643    0.908538    0.208657
    110          1           0        8.885240   -0.746503    0.711540
    111          1           0       10.326033   -0.013342   -1.925449
    112          1           0        9.273162   -2.131887   -1.980098
    113          1           0       11.014322   -2.307654   -1.949348
    114          1           0       10.275692   -2.734322   -0.530701
    115          1           0       11.332522    0.688308    0.224862
    116          1           0       11.386284   -1.027166    0.946780
    117          1           0       12.824289   -1.569818   -1.090459
    118          1           0       12.912314    0.108006   -1.580139
    119          1           0       13.783651    0.842323    0.667755
    120          1           0       14.129028   -1.012146    0.942998
    121          1           0       15.234456    0.390216   -1.543044
    122          1           0       15.950663   -2.177105   -0.102015
    123          1           0       15.001819   -2.556440   -1.409819
    124          1           0       16.653600   -1.664529   -1.683530
    125          1           0       15.920635    1.541697    0.504887
    126          1           0       16.164183   -0.007385    1.430132
    127          1           0       18.440633   -0.333703   -0.453677
    128          1           0       17.687201    1.035308   -1.220332
    129          1           0       18.438670    2.104656    1.197991
    130          1           0       18.943019    0.320990    1.698548
    131          1           0       20.574850    0.469658    0.007665
    132          1           0       19.754453    3.214930   -0.864537
    133          1           0       21.161414    2.312123   -1.487617
    134          1           0       19.561843    1.860646   -2.026049
    135          1           0       20.913492    1.419066    2.089896
    136          1           0       22.241432    1.867479    0.940486
    137          1           0       21.031960    2.928727    1.579804
 ---------------------------------------------------------------------

 SCF Done:  E(RCAM-B3LYP) =  -2932.71098862     A.U. after   16 cycles

 Excitation energies and oscillator strengths:

 Excited State   1:      Singlet-A      2.1546 eV  575.45 nm  f=0.2375  <S**2>=0.000
     240 -> 243        0.25212
     241 -> 242        0.64531
 This state for optimization and/or second-order correction.
 Total Energy, E(TD-HF/TD-KS) =  -2932.63180957
 Copying the excited state density for this state as the 1-particle RhoCI density.

 The electronic state is 1-A.
 Alpha  occ. eigenvalues --  -46.84151 -19.27932 -19.26050 -19.20467 -19.19787
 Alpha  occ. eigenvalues --  -19.19565 -14.40922 -14.40050 -14.39986 -14.39657
 Alpha  occ. eigenvalues --  -10.39321 -10.39228 -10.34665 -10.31136 -10.30803
 Alpha  occ. eigenvalues --  -10.30649 -10.30376 -10.30070 -10.29984 -10.29622
 Alpha  occ. eigenvalues --  -10.29494 -10.29444 -10.29137 -10.28956 -10.28547
 Alpha  occ. eigenvalues --  -10.28423 -10.28327 -10.28126 -10.27988 -10.27897
 Alpha  occ. eigenvalues --  -10.27631 -10.27410 -10.27338 -10.27313 -10.27282
 Alpha  occ. eigenvalues --  -10.27063 -10.26671 -10.26624 -10.26501 -10.26393
 Alpha  occ. eigenvalues --  -10.26323 -10.26316 -10.26122 -10.26108 -10.25933
 Alpha  occ. eigenvalues --  -10.25928 -10.25923 -10.25868 -10.25847 -10.25765
 Alpha  occ. eigenvalues --  -10.25709 -10.25622 -10.25532 -10.25358 -10.25179
 Alpha  occ. eigenvalues --  -10.25119 -10.25096 -10.24954 -10.24921 -10.24841
 Alpha  occ. eigenvalues --  -10.24816 -10.24138 -10.24073 -10.23769 -10.23112
 Alpha  occ. eigenvalues --   -3.13288  -1.87988  -1.87527  -1.87479  -1.20911
 Alpha  occ. eigenvalues --   -1.17105  -1.08884  -1.08732  -1.05946  -1.05471
 Alpha  occ. eigenvalues --   -1.04149  -1.02709  -1.00771  -0.93390  -0.92205
 Alpha  occ. eigenvalues --   -0.90708  -0.89975  -0.89727  -0.89601  -0.89164
 Alpha  occ. eigenvalues --   -0.88730  -0.88422  -0.87921  -0.86771  -0.86575
 Alpha  occ. eigenvalues --   -0.85288  -0.84426  -0.83669  -0.83010  -0.82755
 Alpha  occ. eigenvalues --   -0.81802  -0.81398  -0.80962  -0.80244  -0.78698
 Alpha  occ. eigenvalues --   -0.77837  -0.77161  -0.76440  -0.76255  -0.76245
 Alpha  occ. eigenvalues --   -0.75525  -0.75059  -0.74590  -0.73900  -0.72820
 Alpha  occ. eigenvalues --   -0.72016  -0.71304  -0.70877  -0.69400  -0.68844
 Alpha  occ. eigenvalues --   -0.67653  -0.67168  -0.66544  -0.65688  -0.65310
 Alpha  occ. eigenvalues --   -0.64015  -0.64003  -0.63020  -0.62396  -0.61960
 Alpha  occ. eigenvalues --   -0.61723  -0.61146  -0.60669  -0.60576  -0.59767
 Alpha  occ. eigenvalues --   -0.58968  -0.58352  -0.58001  -0.57545  -0.57339
 Alpha  occ. eigenvalues --   -0.56447  -0.55985  -0.55463  -0.55170  -0.54971
 Alpha  occ. eigenvalues --   -0.54664  -0.54172  -0.53795  -0.53434  -0.53073
 Alpha  occ. eigenvalues --   -0.53014  -0.52352  -0.52288  -0.52227  -0.51825
 Alpha  occ. eigenvalues --   -0.51579  -0.51489  -0.51096  -0.51049  -0.50648
 Alpha  occ. eigenvalues --   -0.50475  -0.50120  -0.49949  -0.49774  -0.49346
 Alpha  occ. eigenvalues --   -0.48966  -0.48840  -0.48708  -0.48641  -0.48340
 Alpha  occ. eigenvalues --   -0.48166  -0.47994  -0.47766  -0.47533  -0.47158
 Alpha  occ. eigenvalues --   -0.46823  -0.46635  -0.46522  -0.46323  -0.46297
 Alpha  occ. eigenvalues --   -0.45988  -0.45801  -0.45455  -0.45069  -0.44943
 Alpha  occ. eigenvalues --   -0.44637  -0.44512  -0.44314  -0.44101  -0.44054
 Alpha  occ. eigenvalues --   -0.43774  -0.43702  -0.43396  -0.43190  -0.43050
 Alpha  occ. eigenvalues --   -0.42889  -0.42792  -0.42623  -0.42594  -0.42271
 Alpha  occ. eigenvalues --   -0.42196  -0.41909  -0.41412  -0.41308  -0.41233
 Alpha  occ. eigenvalues --   -0.41103  -0.40747  -0.40672  -0.40584  -0.40244
 Alpha  occ. eigenvalues --   -0.40033  -0.39903  -0.39610  -0.39456  -0.39352
 Alpha  occ. eigenvalues --   -0.39118  -0.38616  -0.38405  -0.38097  -0.37978
 Alpha  occ. eigenvalues --   -0.37442  -0.37241  -0.37104  -0.36734  -0.36615
 Alpha  occ. eigenvalues --   -0.36541  -0.36509  -0.36313  -0.36053  -0.36011
 Alpha  occ. eigenvalues --   -0.35367  -0.35262  -0.34421  -0.33711  -0.33245
 Alpha  occ. eigenvalues --   -0.33005  -0.32615  -0.32214  -0.31012  -0.30790
 Alpha  occ. eigenvalues --   -0.29961  -0.29599  -0.28537  -0.27953  -0.23391
 Alpha  occ. eigenvalues --   -0.21585
 Alpha virt. eigenvalues --   -0.06166  -0.03266   0.01202   0.03578   0.04752
 Alpha virt. eigenvalues --    0.06141   0.06691   0.06931   0.07108   0.07602
 Alpha virt. eigenvalues --    0.08346   0.10886   0.11092   0.11513   0.11751

 Mulliken charges:
               1
     1  Mg   0.822863
     2  C    0.138814
     3  C   -0.229037
     4  C   -0.193330
     5  C   -0.160737
     6  N   -0.659906
     7  C    0.285985
     8  C   -0.179054
     9  C   -0.123324
    10  C    0.385786
    11  C   -0.314410
    12  C   -0.135376
    13  C   -0.289222
    14  C    0.603318
    15  O   -0.503366
    16  O   -0.431291
    17  N   -0.670394
    18  C    0.357417
    19  C   -0.018689
    20  C    0.036525
    21  C    0.281052
    22  C   -0.359768
    23  C   -0.086440
    24  C   -0.238630
    25  N   -0.672760
    26  C    0.293989
    27  C   -0.000930
    28  C    0.065944
    29  C    0.220924
    30  C   -0.395543
    31  C   -0.235428
    32  C   -0.304562
    33  N   -0.703224
    34  C    0.231591
    35  C    0.073714
    36  C    0.043877
    37  C    0.228410
    38  C   -0.390751
    39  C    0.325080
    40  O   -0.495737
    41  C   -0.339644
    42  C    0.651626
    43  O   -0.519507
    44  O   -0.448858
    45  C   -0.081783
    46  C   -0.008131
    47  C   -0.157045
    48  C    0.151355
    49  C   -0.377934
    50  C   -0.211496
    51  C   -0.175091
    52  C   -0.163498
    53  C   -0.055960
    54  C   -0.308384
    55  C   -0.162231
    56  C   -0.186381
    57  C   -0.169955
    58  C   -0.052333
    59  C   -0.281776
    60  C   -0.167221
    61  C   -0.171006
    62  C   -0.173528
    63  C   -0.069251
    64  C   -0.303127
    65  C   -0.317780
    66  H    0.065689
    67  H    0.089860
    68  H    0.095312
    69  H    0.125497
    70  H    0.101125
    71  H    0.076351
    72  H    0.111902
    73  H    0.147745
    74  H    0.110045
    75  H    0.113790
    76  H    0.126729
    77  H    0.131710
    78  H    0.115855
    79  H    0.130899
    80  H    0.118301
    81  H    0.111868
    82  H    0.101802
    83  H    0.113664
    84  H    0.105765
    85  H    0.111165
    86  H    0.123220
    87  H    0.098691
    88  H    0.111699
    89  H    0.113543
    90  H    0.103455
    91  H    0.119801
    92  H    0.137831
    93  H    0.142543
    94  H    0.128365
    95  H    0.172368
    96  H    0.123174
    97  H    0.132525
    98  H    0.122064
    99  H    0.136083
   100  H    0.129918
   101  H    0.093067
   102  H    0.099939
   103  H    0.112241
   104  H    0.115870
   105  H    0.110304
   106  H    0.098302
   107  H    0.090899
   108  H    0.097300
   109  H    0.069115
   110  H    0.091148
   111  H    0.058420
   112  H    0.109524
   113  H    0.092890
   114  H    0.090702
   115  H    0.097341
   116  H    0.086075
   117  H    0.083293
   118  H    0.092616
   119  H    0.078649
   120  H    0.080098
   121  H    0.075450
   122  H    0.123647
   123  H    0.075513
   124  H    0.073154
   125  H    0.096623
   126  H    0.064346
   127  H    0.105872
   128  H    0.081594
   129  H    0.084190
   130  H    0.068733
   131  H    0.090387
   132  H    0.107544
   133  H    0.102341
   134  H    0.090692
   135  H    0.096973
   136  H    0.099102
   137  H    0.111253
 Sum of Mulliken charges =   0.00000

 Dipole moment (field-independent basis, Debye):
    X=              1.2988    Y=              5.2381    Z=             -0.0205  Tot=              5.3967
 Quadrupole moment (field-independent basis, Debye-Ang):
   XX=           -329.8540   YY=           -389.2224   ZZ=           -401.0659
   XY=            -23.8141   XZ=             12.6587   YZ=              2.4274

 Normal termination of Gaussian 09 at Mon Jul  1 04:40:58 2019.
