 Gaussian 09, Revision D.01,
 Gaussian 09:  ES64L-G09RevD.01 24-Apr-2013

 -------------------------------------
 # td=(NStates=1) CAM-B3LYP/6-31G(d,p)
 -------------------------------------

 --
 TD
 --
 Symbolic Z-matrix:
 Charge =  0 Multiplicity = 1

                         Standard orientation:
 ---------------------------------------------------------------------
 Center     Atomic      Atomic             Coordinates (Angstroms)
 Number     Number       Type             X           Y           Z
 ---------------------------------------------------------------------
      1         12           0       -7.147291    0.601305    0.161544
      2          6           0       -4.900607   -1.883134    0.523039
      3          6           0       -4.798443    2.917487    1.280534
      4          6           0       -9.346372    3.123564   -0.394235
      5          6           0       -9.558452   -1.727792   -0.856617
      6          7           0       -5.026056    0.542738    0.720962
      7          6           0       -4.342950   -0.711273    0.879453
      8          6           0       -2.890631   -0.269163    1.160968
      9          6           0       -2.936444    1.157452    1.681081
     10          6           0       -4.296035    1.569222    1.158157
     11          6           0       -2.776529    1.501217    3.135357
     12          6           0       -1.940145   -0.453864   -0.124927
     13          6           0       -0.406149   -0.418588    0.359886
     14          6           0        0.461629   -0.811837   -0.716186
     15          8           0        0.195656   -1.241766   -1.780215
     16          8           0        1.866191   -0.507788   -0.335780
     17          7           0       -7.128368    2.635844    0.450395
     18          6           0       -6.033665    3.393516    0.885598
     19          6           0       -6.402132    4.783337    0.837676
     20          6           0       -7.752598    4.879562    0.451777
     21          6           0       -8.069251    3.543288    0.070402
     22          6           0       -5.557035    5.857866    1.322016
     23          6           0       -8.539853    6.117578    0.170089
     24          6           0       -8.045755    7.304644    0.058908
     25          7           0       -9.166052    0.656684   -0.559354
     26          6           0       -9.896271    1.770127   -0.613620
     27          6           0      -11.246637    1.475696   -0.982594
     28          6           0      -11.327146    0.099099   -1.175575
     29          6           0       -9.950107   -0.389072   -0.884382
     30          6           0      -12.244854    2.470915   -1.405435
     31          6           0      -12.410407   -0.808321   -1.579896
     32          6           0      -12.398982   -1.074369   -3.186507
     33          7           0       -7.208335   -1.376333   -0.139083
     34          6           0       -8.259084   -2.191130   -0.604604
     35          6           0       -7.908913   -3.677938   -0.482904
     36          6           0       -6.554000   -3.540421    0.045470
     37          6           0       -6.160791   -2.108178    0.123167
     38          6           0       -8.625487   -4.840083   -0.820065
     39          6           0       -5.326500   -4.364537    0.180847
     40          8           0       -5.140227   -5.539858    0.212789
     41          6           0       -4.174491   -3.264773    0.695844
     42          6           0       -3.616448   -3.587372    2.027042
     43          8           0       -3.879758   -2.990051    3.013533
     44          8           0       -2.853908   -4.743454    1.924243
     45          6           0       -2.329881   -5.255015    3.169974
     46          6           0        2.808010   -0.968022   -1.296292
     47          6           0        4.080422   -0.644060   -0.672992
     48          6           0        5.104089    0.226397   -1.080210
     49          6           0        5.056178    0.937721   -2.397947
     50          6           0        6.446245    0.298411   -0.394596
     51          6           0        7.653233   -0.444161   -1.135695
     52          6           0        8.897510   -0.360587   -0.358070
     53          6           0       10.187593   -0.650628   -1.147227
     54          6           0       10.217187   -2.196732   -1.576747
     55          6           0       11.325013   -0.220462   -0.094838
     56          6           0       12.762438   -0.524874   -0.747307
     57          6           0       13.882866   -0.039686    0.272978
     58          6           0       15.249401   -0.114178   -0.271066
     59          6           0       15.788687   -1.614981   -0.689202
     60          6           0       16.435298    0.449455    0.610837
     61          6           0       17.699277    0.658045   -0.061740
     62          6           0       18.723104    1.360188    0.897976
     63          6           0       20.112068    1.424232    0.329234
     64          6           0       20.237876    2.087114   -1.110426
     65          6           0       21.205431    2.082024    1.309431
     66          1           0       -4.145331    3.678608    1.533578
     67          1           0      -10.073935    3.962787   -0.523108
     68          1           0      -10.250772   -2.522173   -0.955320
     69          1           0       -2.280223   -0.632576    2.008609
     70          1           0       -1.904433    1.453038    1.087109
     71          1           0       -1.726299    1.056782    3.502951
     72          1           0       -2.692194    2.545162    3.276779
     73          1           0       -3.565245    0.806835    3.669336
     74          1           0       -1.875920   -1.430033   -0.300214
     75          1           0       -2.129581    0.108137   -1.058343
     76          1           0       -0.071788    0.522773    0.741677
     77          1           0       -0.286834   -1.140023    1.208908
     78          1           0       -4.937161    6.369822    0.630143
     79          1           0       -6.088443    6.661482    1.657382
     80          1           0       -4.688651    5.614581    2.036482
     81          1           0       -9.819668    5.854838    0.093982
     82          1           0       -8.663168    8.216743   -0.159379
     83          1           0       -6.886126    7.281962    0.226588
     84          1           0      -11.835149    2.796008   -2.355826
     85          1           0      -13.211698    2.028453   -1.744101
     86          1           0      -12.460500    3.287117   -0.611704
     87          1           0      -12.383899   -1.799625   -1.064606
     88          1           0      -13.384862   -0.395147   -1.218554
     89          1           0      -13.206363   -1.747604   -3.356419
     90          1           0      -12.657784   -0.107879   -3.746559
     91          1           0      -11.392176   -1.419056   -3.435836
     92          1           0       -8.891237   -4.640563   -1.814333
     93          1           0       -8.063420   -5.798198   -0.806339
     94          1           0       -9.650221   -4.953957   -0.212035
     95          1           0       -3.472406   -3.595870    0.064443
     96          1           0       -1.775697   -4.445343    3.699003
     97          1           0       -3.176002   -5.602428    3.689378
     98          1           0       -1.395992   -5.880089    2.764348
     99          1           0        2.800500   -1.831803   -1.678497
    100          1           0        2.889242   -0.501726   -2.180649
    101          1           0        4.328384   -1.053077    0.356003
    102          1           0        4.139759    0.926511   -2.859031
    103          1           0        5.298908    1.898725   -2.193883
    104          1           0        5.596224    0.557062   -3.113183
    105          1           0        6.615620    1.298817   -0.209792
    106          1           0        6.335948   -0.057942    0.678159
    107          1           0        7.264409   -1.373471   -1.495137
    108          1           0        7.868688    0.119088   -2.087781
    109          1           0        9.065758    0.588887    0.176579
    110          1           0        8.910932   -1.021915    0.579489
    111          1           0       10.281737   -0.061779   -1.883607
    112          1           0        9.339786   -2.324474   -2.057453
    113          1           0       11.050991   -2.337883   -2.325411
    114          1           0       10.481061   -2.954178   -0.710571
    115          1           0       11.154385    0.953312    0.219544
    116          1           0       11.138800   -0.613859    0.934824
    117          1           0       12.948991   -1.534805   -0.858938
    118          1           0       12.761667    0.215183   -1.580261
    119          1           0       13.831951    1.043199    0.726641
    120          1           0       13.899047   -0.578297    1.230683
    121          1           0       15.609328    0.399304   -1.181043
    122          1           0       15.766734   -2.200753    0.267601
    123          1           0       15.124282   -1.997396   -1.528587
    124          1           0       16.775509   -1.344960   -0.904624
    125          1           0       16.200619    1.545828    0.830776
    126          1           0       16.429047   -0.167518    1.518323
    127          1           0       18.066632   -0.301510   -0.289790
    128          1           0       17.634707    1.424927   -0.960100
    129          1           0       18.656862    2.298984    1.157366
    130          1           0       19.013549    0.775110    1.807851
    131          1           0       20.470541    0.362168    0.332586
    132          1           0       19.918969    3.041643   -1.046952
    133          1           0       21.421427    2.296353   -1.236672
    134          1           0       19.693560    1.346559   -1.743968
    135          1           0       21.254994    1.407535    2.129198
    136          1           0       22.175374    2.236057    0.874787
    137          1           0       20.930772    3.145127    1.596958
 ---------------------------------------------------------------------

 SCF Done:  E(RCAM-B3LYP) =  -2932.61238737     A.U. after   18 cycles

 Excitation energies and oscillator strengths:

 Excited State   1:      Singlet-A      2.0590 eV  602.15 nm  f=0.1995  <S**2>=0.000
     240 -> 243        0.27539
     241 -> 242        0.64607
 This state for optimization and/or second-order correction.
 Total Energy, E(TD-HF/TD-KS) =  -2932.53672003
 Copying the excited state density for this state as the 1-particle RhoCI density.

 The electronic state is 1-A.
 Alpha  occ. eigenvalues --  -46.85372 -19.24843 -19.24559 -19.23254 -19.20780
 Alpha  occ. eigenvalues --  -19.20577 -14.42121 -14.40296 -14.39071 -14.39063
 Alpha  occ. eigenvalues --  -10.39711 -10.38146 -10.35242 -10.31539 -10.31501
 Alpha  occ. eigenvalues --  -10.31134 -10.30003 -10.29702 -10.29641 -10.29422
 Alpha  occ. eigenvalues --  -10.29150 -10.29061 -10.29059 -10.28401 -10.28373
 Alpha  occ. eigenvalues --  -10.28291 -10.28245 -10.27903 -10.27566 -10.27561
 Alpha  occ. eigenvalues --  -10.27460 -10.27454 -10.27183 -10.27163 -10.27070
 Alpha  occ. eigenvalues --  -10.27043 -10.27040 -10.26893 -10.26695 -10.26627
 Alpha  occ. eigenvalues --  -10.26512 -10.26162 -10.26102 -10.26075 -10.25970
 Alpha  occ. eigenvalues --  -10.25947 -10.25879 -10.25690 -10.25658 -10.25610
 Alpha  occ. eigenvalues --  -10.25509 -10.25502 -10.25300 -10.25209 -10.25179
 Alpha  occ. eigenvalues --  -10.25160 -10.24977 -10.24956 -10.24836 -10.24718
 Alpha  occ. eigenvalues --  -10.24523 -10.24375 -10.24321 -10.23717 -10.21965
 Alpha  occ. eigenvalues --   -3.14202  -1.88924  -1.88451  -1.88353  -1.17717
 Alpha  occ. eigenvalues --   -1.16946  -1.12403  -1.09447  -1.09355  -1.04493
 Alpha  occ. eigenvalues --   -1.03655  -1.03346  -1.02484  -0.92097  -0.90885
 Alpha  occ. eigenvalues --   -0.90817  -0.90264  -0.89640  -0.88870  -0.88810
 Alpha  occ. eigenvalues --   -0.88135  -0.87961  -0.87889  -0.87396  -0.86776
 Alpha  occ. eigenvalues --   -0.84870  -0.84428  -0.83432  -0.83278  -0.82524
 Alpha  occ. eigenvalues --   -0.81598  -0.81121  -0.80496  -0.79344  -0.79225
 Alpha  occ. eigenvalues --   -0.78832  -0.76815  -0.76474  -0.75771  -0.75428
 Alpha  occ. eigenvalues --   -0.75305  -0.75079  -0.74641  -0.73135  -0.72304
 Alpha  occ. eigenvalues --   -0.72141  -0.71682  -0.70097  -0.69735  -0.67260
 Alpha  occ. eigenvalues --   -0.66799  -0.66225  -0.65340  -0.64942  -0.64405
 Alpha  occ. eigenvalues --   -0.64192  -0.64007  -0.63216  -0.62289  -0.61588
 Alpha  occ. eigenvalues --   -0.61310  -0.60896  -0.60612  -0.59503  -0.58997
 Alpha  occ. eigenvalues --   -0.58629  -0.58382  -0.57690  -0.57373  -0.56825
 Alpha  occ. eigenvalues --   -0.56454  -0.55889  -0.55540  -0.55151  -0.54781
 Alpha  occ. eigenvalues --   -0.54684  -0.54086  -0.53810  -0.53349  -0.53008
 Alpha  occ. eigenvalues --   -0.52625  -0.52450  -0.52342  -0.52090  -0.51709
 Alpha  occ. eigenvalues --   -0.51501  -0.51238  -0.50996  -0.50853  -0.50619
 Alpha  occ. eigenvalues --   -0.50301  -0.50290  -0.50148  -0.50043  -0.49824
 Alpha  occ. eigenvalues --   -0.49503  -0.49408  -0.48955  -0.48516  -0.48372
 Alpha  occ. eigenvalues --   -0.48232  -0.48029  -0.47977  -0.47510  -0.47315
 Alpha  occ. eigenvalues --   -0.47082  -0.46970  -0.46791  -0.46611  -0.46334
 Alpha  occ. eigenvalues --   -0.46201  -0.46141  -0.45693  -0.45661  -0.45504
 Alpha  occ. eigenvalues --   -0.45082  -0.44830  -0.44690  -0.44546  -0.44523
 Alpha  occ. eigenvalues --   -0.44498  -0.44181  -0.44155  -0.43917  -0.43774
 Alpha  occ. eigenvalues --   -0.43391  -0.43324  -0.43151  -0.42919  -0.42861
 Alpha  occ. eigenvalues --   -0.42474  -0.42229  -0.41589  -0.41547  -0.41382
 Alpha  occ. eigenvalues --   -0.41214  -0.41025  -0.40850  -0.40689  -0.40578
 Alpha  occ. eigenvalues --   -0.40365  -0.40281  -0.39822  -0.39280  -0.39251
 Alpha  occ. eigenvalues --   -0.38784  -0.38510  -0.38232  -0.38104  -0.37711
 Alpha  occ. eigenvalues --   -0.37161  -0.36913  -0.36851  -0.36567  -0.36414
 Alpha  occ. eigenvalues --   -0.36193  -0.36120  -0.35686  -0.35443  -0.35281
 Alpha  occ. eigenvalues --   -0.34961  -0.34793  -0.34509  -0.33339  -0.33197
 Alpha  occ. eigenvalues --   -0.32959  -0.32526  -0.32177  -0.31026  -0.29295
 Alpha  occ. eigenvalues --   -0.28986  -0.27912  -0.27831  -0.27483  -0.23189
 Alpha  occ. eigenvalues --   -0.21042
 Alpha virt. eigenvalues --   -0.06124  -0.03472   0.00951   0.04183   0.05197
 Alpha virt. eigenvalues --    0.05877   0.06244   0.06718   0.06968   0.07493
 Alpha virt. eigenvalues --    0.08147   0.10411   0.11217   0.11517   0.11836

 Mulliken charges:
               1
     1  Mg   0.825638
     2  C    0.090943
     3  C   -0.195004
     4  C   -0.191970
     5  C   -0.159405
     6  N   -0.634142
     7  C    0.275943
     8  C   -0.163983
     9  C   -0.141488
    10  C    0.365830
    11  C   -0.291903
    12  C   -0.173529
    13  C   -0.307675
    14  C    0.620424
    15  O   -0.427091
    16  O   -0.528262
    17  N   -0.719479
    18  C    0.343876
    19  C    0.016243
    20  C    0.015965
    21  C    0.307637
    22  C   -0.425833
    23  C   -0.001648
    24  C   -0.274099
    25  N   -0.672405
    26  C    0.312906
    27  C   -0.000837
    28  C    0.054456
    29  C    0.274402
    30  C   -0.376396
    31  C   -0.269343
    32  C   -0.308095
    33  N   -0.739459
    34  C    0.226254
    35  C    0.076766
    36  C   -0.064495
    37  C    0.340416
    38  C   -0.404996
    39  C    0.348328
    40  O   -0.426256
    41  C   -0.312451
    42  C    0.620717
    43  O   -0.455022
    44  O   -0.484901
    45  C   -0.078435
    46  C    0.075097
    47  C   -0.151357
    48  C    0.067745
    49  C   -0.356898
    50  C   -0.226740
    51  C   -0.174667
    52  C   -0.171393
    53  C   -0.042258
    54  C   -0.313475
    55  C   -0.200745
    56  C   -0.172695
    57  C   -0.178135
    58  C   -0.072051
    59  C   -0.318074
    60  C   -0.171704
    61  C   -0.195721
    62  C   -0.145828
    63  C   -0.095776
    64  C   -0.306405
    65  C   -0.325859
    66  H    0.065758
    67  H    0.077606
    68  H    0.092006
    69  H    0.105822
    70  H    0.083734
    71  H    0.082266
    72  H    0.132115
    73  H    0.125919
    74  H    0.140997
    75  H    0.130574
    76  H    0.152244
    77  H    0.152225
    78  H    0.132815
    79  H    0.137209
    80  H    0.108944
    81  H    0.064454
    82  H    0.116744
    83  H    0.091905
    84  H    0.136390
    85  H    0.108573
    86  H    0.108211
    87  H    0.104443
    88  H    0.102360
    89  H    0.113263
    90  H    0.102065
    91  H    0.119665
    92  H    0.144255
    93  H    0.156176
    94  H    0.116703
    95  H    0.146982
    96  H    0.120327
    97  H    0.146879
    98  H    0.119472
    99  H    0.122186
   100  H    0.092773
   101  H    0.067693
   102  H    0.109684
   103  H    0.114572
   104  H    0.125827
   105  H    0.104591
   106  H    0.086561
   107  H    0.112151
   108  H    0.086272
   109  H    0.090426
   110  H    0.081924
   111  H    0.094462
   112  H    0.118101
   113  H    0.093131
   114  H    0.096563
   115  H    0.064192
   116  H    0.090473
   117  H    0.120128
   118  H    0.108881
   119  H    0.075444
   120  H    0.090712
   121  H    0.078145
   122  H    0.089949
   123  H    0.098361
   124  H    0.101882
   125  H    0.077291
   126  H    0.089011
   127  H    0.109512
   128  H    0.096775
   129  H    0.101768
   130  H    0.083567
   131  H    0.076165
   132  H    0.113635
   133  H    0.077929
   134  H    0.110638
   135  H    0.105566
   136  H    0.106748
   137  H    0.086007
 Sum of Mulliken charges =   0.00000

 Dipole moment (field-independent basis, Debye):
    X=             -0.0202    Y=              3.6928    Z=             -0.1959  Tot=              3.6981
 Quadrupole moment (field-independent basis, Debye-Ang):
   XX=           -352.6828   YY=           -388.5210   ZZ=           -397.5257
   XY=             -7.4255   XZ=             15.6842   YZ=             -0.4019

 Normal termination of Gaussian 09 at Fri Jun 28 15:21:14 2019.
