 Gaussian 09, Revision D.01,
 Gaussian 09:  ES64L-G09RevD.01 24-Apr-2013

 -------------------------------------
 # td=(NStates=1) CAM-B3LYP/6-31G(d,p)
 -------------------------------------

 --
 TD
 --
 Symbolic Z-matrix:
 Charge =  0 Multiplicity = 1

                         Standard orientation:
 ---------------------------------------------------------------------
 Center     Atomic      Atomic             Coordinates (Angstroms)
 Number     Number       Type             X           Y           Z
 ---------------------------------------------------------------------
      1         12           0       -7.133436    0.603586    0.046817
      2          6           0       -4.897450   -1.985832    0.484080
      3          6           0       -4.876821    2.863691    1.188687
      4          6           0       -9.399676    3.147251   -0.362245
      5          6           0       -9.491121   -1.726241   -0.943128
      6          7           0       -5.112825    0.453955    0.665509
      7          6           0       -4.337509   -0.722362    0.831567
      8          6           0       -2.946770   -0.360398    1.155407
      9          6           0       -2.989687    1.089149    1.492234
     10          6           0       -4.470183    1.580014    1.054108
     11          6           0       -2.818232    1.461072    3.034907
     12          6           0       -1.898232   -0.625799    0.053654
     13          6           0       -0.506751   -0.510924    0.542540
     14          6           0        0.500607   -0.646772   -0.667984
     15          8           0        0.270140   -1.009480   -1.781157
     16          8           0        1.757445   -0.526890   -0.235769
     17          7           0       -7.193770    2.617726    0.383351
     18          6           0       -6.162679    3.382268    0.818961
     19          6           0       -6.495730    4.801634    0.948678
     20          6           0       -7.807080    4.802012    0.478171
     21          6           0       -8.186773    3.421288    0.147423
     22          6           0       -5.651987    5.936024    1.449547
     23          6           0       -8.640130    5.986906    0.453338
     24          6           0       -8.256692    7.228774    0.137216
     25          7           0       -9.102905    0.649461   -0.589351
     26          6           0       -9.903450    1.783791   -0.655988
     27          6           0      -11.199833    1.441837   -1.169343
     28          6           0      -11.189223    0.088118   -1.367144
     29          6           0       -9.923854   -0.375777   -0.965208
     30          6           0      -12.374918    2.447159   -1.299054
     31          6           0      -12.344110   -0.806420   -1.755578
     32          6           0      -12.247041   -1.095699   -3.225662
     33          7           0       -7.228101   -1.415796   -0.154625
     34          6           0       -8.279580   -2.235895   -0.550162
     35          6           0       -7.836671   -3.595513   -0.455889
     36          6           0       -6.526530   -3.584426   -0.049462
     37          6           0       -6.232209   -2.163123    0.177805
     38          6           0       -8.686112   -4.827472   -0.708179
     39          6           0       -5.424630   -4.338366    0.376339
     40          8           0       -5.236481   -5.560287    0.466337
     41          6           0       -4.246452   -3.338735    0.486167
     42          6           0       -3.559402   -3.662502    1.863555
     43          8           0       -3.727235   -3.132737    2.886741
     44          8           0       -2.690376   -4.743653    1.699449
     45          6           0       -2.200790   -5.207986    3.003483
     46          6           0        2.795297   -0.661359   -1.270873
     47          6           0        4.059163   -0.406503   -0.494783
     48          6           0        5.186469    0.283622   -0.942529
     49          6           0        5.097221    1.081651   -2.147715
     50          6           0        6.480085    0.388073   -0.232023
     51          6           0        7.710510   -0.161094   -0.935619
     52          6           0        8.942179   -0.168978   -0.157342
     53          6           0       10.266717   -0.521340   -0.989600
     54          6           0       10.172438   -2.016105   -1.366339
     55          6           0       11.588182   -0.297448   -0.073429
     56          6           0       12.847880   -0.496290   -0.828149
     57          6           0       13.933179   -0.075120    0.031460
     58          6           0       15.359098   -0.176434   -0.495660
     59          6           0       15.662444   -1.634705   -0.724285
     60          6           0       16.438046    0.494278    0.400600
     61          6           0       17.915708    0.665929   -0.186782
     62          6           0       18.826609    1.320779    0.803665
     63          6           0       20.295232    1.328076    0.305572
     64          6           0       20.384930    2.089923   -0.996043
     65          6           0       21.134502    1.903488    1.388490
     66          1           0       -4.206095    3.542955    1.635809
     67          1           0      -10.135560    3.959421   -0.561533
     68          1           0      -10.183414   -2.554834   -1.549733
     69          1           0       -2.828557   -0.846505    2.147950
     70          1           0       -2.208880    1.682506    1.106300
     71          1           0       -2.054199    1.041672    3.568170
     72          1           0       -2.804059    2.628482    3.319297
     73          1           0       -3.793634    0.857743    3.399245
     74          1           0       -1.823629   -1.597901   -0.268483
     75          1           0       -2.254784    0.017306   -0.767962
     76          1           0        0.198465    0.458058    0.901954
     77          1           0       -0.168690   -1.332196    1.403501
     78          1           0       -5.023723    6.429432    0.775660
     79          1           0       -6.173722    6.786829    1.721628
     80          1           0       -5.028194    5.501970    2.334302
     81          1           0       -9.774678    5.460824    0.417551
     82          1           0       -9.080020    7.885187    0.012550
     83          1           0       -7.300133    7.591796   -0.200154
     84          1           0      -12.160618    3.099572   -2.125660
     85          1           0      -13.301802    1.735348   -1.309549
     86          1           0      -12.498423    3.053459   -0.485102
     87          1           0      -12.318571   -1.791074   -1.273093
     88          1           0      -13.403666   -0.397546   -1.585288
     89          1           0      -13.151443   -1.601487   -3.683875
     90          1           0      -12.060613   -0.036605   -3.614728
     91          1           0      -11.113108   -1.560629   -3.260495
     92          1           0       -8.932735   -4.830544   -1.813760
     93          1           0       -8.004499   -5.722770   -0.541182
     94          1           0       -9.756112   -4.692462   -0.252308
     95          1           0       -3.382110   -3.374098   -0.106640
     96          1           0       -1.558813   -4.437224    3.462154
     97          1           0       -3.125740   -5.688434    3.581777
     98          1           0       -1.715347   -6.130224    2.721022
     99          1           0        2.550165   -1.641879   -1.617842
    100          1           0        2.453413    0.026386   -2.019319
    101          1           0        4.101626   -1.020528    0.402899
    102          1           0        4.052971    1.510909   -2.385522
    103          1           0        5.995343    2.148665   -2.115673
    104          1           0        5.549742    0.556359   -3.021257
    105          1           0        6.571095    1.425672    0.196166
    106          1           0        6.334562   -0.322066    0.552442
    107          1           0        7.326248   -1.009792   -1.379906
    108          1           0        7.740376    0.428507   -1.906788
    109          1           0        9.154626    0.726124    0.451517
    110          1           0        9.034728   -1.004643    0.713597
    111          1           0       10.122132    0.020994   -1.997299
    112          1           0        9.340136   -2.202196   -2.014427
    113          1           0       11.037874   -2.574456   -2.016676
    114          1           0        9.924961   -2.612955   -0.294238
    115          1           0       11.576531    0.578878    0.322717
    116          1           0       11.601943   -1.031315    0.752251
    117          1           0       13.140032   -1.653393   -1.150051
    118          1           0       12.789115   -0.058443   -1.853518
    119          1           0       13.875323    0.894674    0.359542
    120          1           0       13.934415   -0.583085    0.909916
    121          1           0       15.433287    0.444536   -1.294184
    122          1           0       16.066868   -2.114015    0.249637
    123          1           0       14.805715   -2.333695   -1.183913
    124          1           0       16.519840   -1.824700   -1.322593
    125          1           0       16.057783    1.492921    0.584494
    126          1           0       16.278597   -0.075525    1.259450
    127          1           0       18.174277   -0.312410   -0.436227
    128          1           0       17.949305    1.162288   -1.204842
    129          1           0       18.523610    2.492702    1.184879
    130          1           0       18.696178    0.926818    1.746102
    131          1           0       20.608870    0.278355    0.092614
    132          1           0       20.078923    3.047703   -0.891002
    133          1           0       21.430348    2.276428   -1.414831
    134          1           0       19.510843    1.587287   -1.687342
    135          1           0       21.139307    1.295624    2.321745
    136          1           0       22.235939    1.954291    0.878489
    137          1           0       20.957402    2.817739    1.590123
 ---------------------------------------------------------------------

 SCF Done:  E(RCAM-B3LYP) =  -2932.62169517     A.U. after   16 cycles

 Excitation energies and oscillator strengths:

 Excited State   1:      Singlet-A      2.1544 eV  575.49 nm  f=0.1953  <S**2>=0.000
     240 -> 243        0.28210
     241 -> 242        0.63304
 This state for optimization and/or second-order correction.
 Total Energy, E(TD-HF/TD-KS) =  -2932.54252253
 Copying the excited state density for this state as the 1-particle RhoCI density.

 The electronic state is 1-A.
 Alpha  occ. eigenvalues --  -46.84569 -19.25156 -19.24748 -19.21411 -19.20736
 Alpha  occ. eigenvalues --  -19.19549 -14.41568 -14.39899 -14.39378 -14.39255
 Alpha  occ. eigenvalues --  -10.38656 -10.38366 -10.34524 -10.31692 -10.31569
 Alpha  occ. eigenvalues --  -10.31255 -10.30951 -10.30906 -10.30436 -10.29204
 Alpha  occ. eigenvalues --  -10.28942 -10.28911 -10.28799 -10.28795 -10.28772
 Alpha  occ. eigenvalues --  -10.28734 -10.28665 -10.28242 -10.28202 -10.27718
 Alpha  occ. eigenvalues --  -10.27631 -10.27574 -10.27499 -10.27283 -10.27281
 Alpha  occ. eigenvalues --  -10.27255 -10.27209 -10.27127 -10.26893 -10.26886
 Alpha  occ. eigenvalues --  -10.26824 -10.26579 -10.26563 -10.26549 -10.26383
 Alpha  occ. eigenvalues --  -10.26363 -10.26241 -10.25900 -10.25853 -10.25790
 Alpha  occ. eigenvalues --  -10.25739 -10.25690 -10.25668 -10.25497 -10.25479
 Alpha  occ. eigenvalues --  -10.25310 -10.25196 -10.25057 -10.24802 -10.24741
 Alpha  occ. eigenvalues --  -10.24380 -10.24369 -10.24066 -10.23836 -10.22400
 Alpha  occ. eigenvalues --   -3.13590  -1.88306  -1.87808  -1.87783  -1.18806
 Alpha  occ. eigenvalues --   -1.17922  -1.09447  -1.09299  -1.09018  -1.06078
 Alpha  occ. eigenvalues --   -1.05353  -1.02852  -1.02484  -0.93076  -0.92267
 Alpha  occ. eigenvalues --   -0.91662  -0.91050  -0.90152  -0.89839  -0.89224
 Alpha  occ. eigenvalues --   -0.88649  -0.88296  -0.87863  -0.86941  -0.86578
 Alpha  occ. eigenvalues --   -0.85437  -0.84581  -0.83631  -0.83405  -0.83009
 Alpha  occ. eigenvalues --   -0.82122  -0.80757  -0.80418  -0.80167  -0.78942
 Alpha  occ. eigenvalues --   -0.77852  -0.77406  -0.76326  -0.75711  -0.75566
 Alpha  occ. eigenvalues --   -0.75308  -0.75005  -0.74750  -0.73473  -0.72701
 Alpha  occ. eigenvalues --   -0.71496  -0.70544  -0.69321  -0.69163  -0.68019
 Alpha  occ. eigenvalues --   -0.67774  -0.67325  -0.65759  -0.65531  -0.64875
 Alpha  occ. eigenvalues --   -0.64263  -0.63541  -0.63420  -0.62979  -0.62528
 Alpha  occ. eigenvalues --   -0.61625  -0.60468  -0.60042  -0.59764  -0.59258
 Alpha  occ. eigenvalues --   -0.58543  -0.58182  -0.57701  -0.57364  -0.56998
 Alpha  occ. eigenvalues --   -0.56043  -0.55793  -0.55671  -0.55381  -0.54767
 Alpha  occ. eigenvalues --   -0.54518  -0.54309  -0.53803  -0.53724  -0.53132
 Alpha  occ. eigenvalues --   -0.52937  -0.52673  -0.52609  -0.52388  -0.52229
 Alpha  occ. eigenvalues --   -0.51833  -0.51651  -0.51455  -0.51101  -0.50770
 Alpha  occ. eigenvalues --   -0.50647  -0.50492  -0.50173  -0.49882  -0.49818
 Alpha  occ. eigenvalues --   -0.49571  -0.49399  -0.49143  -0.48879  -0.48677
 Alpha  occ. eigenvalues --   -0.48394  -0.48250  -0.47812  -0.47704  -0.47228
 Alpha  occ. eigenvalues --   -0.47181  -0.47048  -0.46769  -0.46644  -0.46548
 Alpha  occ. eigenvalues --   -0.46202  -0.45902  -0.45674  -0.45372  -0.45199
 Alpha  occ. eigenvalues --   -0.44970  -0.44839  -0.44694  -0.44436  -0.44201
 Alpha  occ. eigenvalues --   -0.44019  -0.43751  -0.43445  -0.43380  -0.43214
 Alpha  occ. eigenvalues --   -0.42696  -0.42583  -0.42477  -0.42472  -0.42107
 Alpha  occ. eigenvalues --   -0.42039  -0.41934  -0.41751  -0.41240  -0.41022
 Alpha  occ. eigenvalues --   -0.40850  -0.40718  -0.40710  -0.40557  -0.40379
 Alpha  occ. eigenvalues --   -0.39859  -0.39754  -0.39363  -0.39190  -0.38898
 Alpha  occ. eigenvalues --   -0.38698  -0.38418  -0.38115  -0.38094  -0.37926
 Alpha  occ. eigenvalues --   -0.37743  -0.37604  -0.37216  -0.36997  -0.36639
 Alpha  occ. eigenvalues --   -0.36366  -0.36093  -0.36029  -0.35862  -0.35730
 Alpha  occ. eigenvalues --   -0.35587  -0.35285  -0.34335  -0.33802  -0.33415
 Alpha  occ. eigenvalues --   -0.33315  -0.32832  -0.32516  -0.30887  -0.30030
 Alpha  occ. eigenvalues --   -0.29768  -0.29326  -0.28432  -0.27939  -0.23302
 Alpha  occ. eigenvalues --   -0.21572
 Alpha virt. eigenvalues --   -0.06089  -0.03750   0.01098   0.03869   0.03975
 Alpha virt. eigenvalues --    0.05517   0.06598   0.06717   0.07384   0.08009
 Alpha virt. eigenvalues --    0.08229   0.10059   0.10788   0.11079   0.11522

 Mulliken charges:
               1
     1  Mg   0.818037
     2  C    0.064510
     3  C   -0.186930
     4  C   -0.198374
     5  C   -0.188659
     6  N   -0.663577
     7  C    0.278524
     8  C   -0.167742
     9  C   -0.154034
    10  C    0.370802
    11  C   -0.309929
    12  C   -0.149346
    13  C   -0.263730
    14  C    0.586303
    15  O   -0.474926
    16  O   -0.494847
    17  N   -0.717452
    18  C    0.274995
    19  C    0.055362
    20  C   -0.033733
    21  C    0.403226
    22  C   -0.368988
    23  C   -0.073302
    24  C   -0.254159
    25  N   -0.681145
    26  C    0.254514
    27  C   -0.022532
    28  C    0.033772
    29  C    0.290500
    30  C   -0.356096
    31  C   -0.230729
    32  C   -0.288721
    33  N   -0.726938
    34  C    0.284216
    35  C    0.017181
    36  C    0.019255
    37  C    0.312708
    38  C   -0.381013
    39  C    0.375937
    40  O   -0.486207
    41  C   -0.304735
    42  C    0.583942
    43  O   -0.430109
    44  O   -0.482000
    45  C   -0.081645
    46  C    0.014470
    47  C   -0.133274
    48  C    0.119384
    49  C   -0.347072
    50  C   -0.224609
    51  C   -0.174224
    52  C   -0.160854
    53  C   -0.086482
    54  C   -0.280311
    55  C   -0.156489
    56  C   -0.160588
    57  C   -0.170597
    58  C   -0.069552
    59  C   -0.312646
    60  C   -0.202854
    61  C   -0.190583
    62  C   -0.145266
    63  C   -0.052252
    64  C   -0.300110
    65  C   -0.290938
    66  H    0.074403
    67  H    0.096703
    68  H    0.093294
    69  H    0.140489
    70  H    0.111101
    71  H    0.123544
    72  H    0.092204
    73  H    0.096100
    74  H    0.136343
    75  H    0.132942
    76  H    0.114802
    77  H    0.128396
    78  H    0.132004
    79  H    0.129595
    80  H    0.106726
    81  H    0.075175
    82  H    0.109135
    83  H    0.118223
    84  H    0.127277
    85  H    0.104658
    86  H    0.129170
    87  H    0.105327
    88  H    0.092330
    89  H    0.104118
    90  H    0.104821
    91  H    0.082683
    92  H    0.122813
    93  H    0.152905
    94  H    0.125097
    95  H    0.161766
    96  H    0.130216
    97  H    0.121247
    98  H    0.129337
    99  H    0.144010
   100  H    0.127699
   101  H    0.099550
   102  H    0.118423
   103  H    0.046194
   104  H    0.131258
   105  H    0.107397
   106  H    0.102986
   107  H    0.115299
   108  H    0.083517
   109  H    0.096579
   110  H    0.070305
   111  H    0.081580
   112  H    0.105140
   113  H    0.084825
   114  H    0.066604
   115  H    0.102457
   116  H    0.096607
   117  H    0.064953
   118  H    0.089725
   119  H    0.086491
   120  H    0.094414
   121  H    0.090985
   122  H    0.083764
   123  H    0.088211
   124  H    0.103925
   125  H    0.088341
   126  H    0.093747
   127  H    0.110872
   128  H    0.093587
   129  H    0.044692
   130  H    0.104819
   131  H    0.088178
   132  H    0.115450
   133  H    0.092278
   134  H    0.076649
   135  H    0.097806
   136  H    0.061901
   137  H    0.116502
 Sum of Mulliken charges =   0.00000

 Dipole moment (field-independent basis, Debye):
    X=              2.2386    Y=              5.4404    Z=              0.2067  Tot=              5.8866
 Quadrupole moment (field-independent basis, Debye-Ang):
   XX=           -356.9568   YY=           -393.1922   ZZ=           -401.1009
   XY=            -21.2314   XZ=             13.9615   YZ=             -1.2795

 Normal termination of Gaussian 09 at Sun Jun 30 02:48:22 2019.
