 Gaussian 09, Revision D.01,
 Gaussian 09:  ES64L-G09RevD.01 24-Apr-2013

 -------------------------------------
 # td=(NStates=1) CAM-B3LYP/6-31G(d,p)
 -------------------------------------

 --
 TD
 --
 Symbolic Z-matrix:
 Charge =  0 Multiplicity = 1

                         Standard orientation:
 ---------------------------------------------------------------------
 Center     Atomic      Atomic             Coordinates (Angstroms)
 Number     Number       Type             X           Y           Z
 ---------------------------------------------------------------------
      1         12           0       -7.141005    0.538883    0.117656
      2          6           0       -4.797030   -1.965605    0.507624
      3          6           0       -4.795358    2.834491    1.172735
      4          6           0       -9.493204    3.145984   -0.412466
      5          6           0       -9.419857   -1.830383   -0.992588
      6          7           0       -5.158996    0.443423    0.910343
      7          6           0       -4.354423   -0.704638    0.836468
      8          6           0       -2.898720   -0.419951    1.216822
      9          6           0       -3.044031    1.141868    1.676881
     10          6           0       -4.416669    1.453769    1.181498
     11          6           0       -3.051988    1.327046    3.190557
     12          6           0       -1.966251   -0.606797    0.040331
     13          6           0       -0.481954   -0.434481    0.524148
     14          6           0        0.493748   -0.567202   -0.656302
     15          8           0        0.110908   -0.802855   -1.748124
     16          8           0        1.740285   -0.435813   -0.211679
     17          7           0       -7.158309    2.574201    0.371631
     18          6           0       -6.158629    3.302113    0.888065
     19          6           0       -6.482539    4.770923    0.848350
     20          6           0       -7.779101    4.763535    0.442053
     21          6           0       -8.220023    3.448450    0.015234
     22          6           0       -5.578532    5.752882    1.356290
     23          6           0       -8.663114    5.905490    0.416347
     24          6           0       -8.303561    7.184223    0.219777
     25          7           0       -9.086506    0.705609   -0.623478
     26          6           0       -9.884997    1.787100   -0.548730
     27          6           0      -11.286365    1.427194   -0.946319
     28          6           0      -11.130643    0.084441   -1.370322
     29          6           0       -9.856526   -0.386765   -0.992394
     30          6           0      -12.251001    2.568803   -1.427387
     31          6           0      -12.335272   -0.803299   -1.885603
     32          6           0      -12.222187   -1.098965   -3.332950
     33          7           0       -7.187815   -1.434165   -0.187341
     34          6           0       -8.218048   -2.287050   -0.576478
     35          6           0       -7.759339   -3.688272   -0.567961
     36          6           0       -6.484848   -3.524229   -0.061547
     37          6           0       -6.217126   -2.183225    0.214687
     38          6           0       -8.599940   -4.885161   -0.912408
     39          6           0       -5.243762   -4.342335    0.262593
     40          8           0       -5.066981   -5.541913    0.209947
     41          6           0       -4.093446   -3.327760    0.511123
     42          6           0       -3.428957   -3.594784    1.866204
     43          8           0       -3.707201   -3.100769    3.021406
     44          8           0       -2.584362   -4.674282    1.781090
     45          6           0       -1.916268   -5.082382    2.950096
     46          6           0        2.782356   -0.700679   -1.248385
     47          6           0        4.034389   -0.512842   -0.550177
     48          6           0        5.075891    0.337940   -0.857482
     49          6           0        5.020642    1.267215   -2.030842
     50          6           0        6.294065    0.410998   -0.134701
     51          6           0        7.580705   -0.093758   -0.764157
     52          6           0        8.854902   -0.156832    0.040115
     53          6           0       10.097220   -0.736474   -0.823167
     54          6           0       10.023690   -2.236498   -1.081793
     55          6           0       11.412580   -0.465823    0.036553
     56          6           0       12.785850   -0.636749   -0.715842
     57          6           0       14.021897   -0.082947    0.192380
     58          6           0       15.328278   -0.197261   -0.498573
     59          6           0       15.719119   -1.627457   -0.855004
     60          6           0       16.410985    0.494076    0.417326
     61          6           0       17.823568    0.530640   -0.247288
     62          6           0       18.803061    1.358222    0.655357
     63          6           0       20.237641    1.425822    0.136738
     64          6           0       20.334258    2.162069   -1.228751
     65          6           0       21.252983    2.126866    1.078733
     66          1           0       -3.936719    3.458787    1.522899
     67          1           0      -10.228969    3.897775   -0.603757
     68          1           0      -10.303298   -2.528218   -1.167617
     69          1           0       -2.536764   -1.073946    2.084801
     70          1           0       -2.336950    1.969219    1.227470
     71          1           0       -2.175688    0.922116    3.425109
     72          1           0       -3.142450    2.306906    3.436888
     73          1           0       -3.814012    0.568845    3.605042
     74          1           0       -2.198426   -1.621541   -0.497876
     75          1           0       -2.129090    0.262973   -0.757534
     76          1           0       -0.214998    0.646018    0.791148
     77          1           0       -0.180023   -1.071974    1.127296
     78          1           0       -4.904535    6.181120    0.477090
     79          1           0       -6.012607    6.610778    1.732323
     80          1           0       -5.006654    5.442287    2.054032
     81          1           0       -9.679506    5.585481    0.430907
     82          1           0       -9.075177    7.880206    0.026916
     83          1           0       -7.290676    7.358353    0.043173
     84          1           0      -11.886675    3.199691   -2.118792
     85          1           0      -13.261612    2.211880   -2.041791
     86          1           0      -12.679455    3.178484   -0.462818
     87          1           0      -12.002173   -1.697715   -1.375109
     88          1           0      -13.106623   -0.227639   -1.649236
     89          1           0      -13.250102   -1.620940   -3.629855
     90          1           0      -12.156426   -0.060708   -3.940209
     91          1           0      -11.374652   -1.634501   -3.533893
     92          1           0       -9.261399   -4.542139   -1.804902
     93          1           0       -7.831883   -5.738523   -1.340847
     94          1           0       -9.331725   -5.179982   -0.213178
     95          1           0       -3.498504   -3.257385   -0.259473
     96          1           0       -1.543839   -4.183653    3.380364
     97          1           0       -2.704728   -5.567271    3.482079
     98          1           0       -1.270858   -5.597711    2.559444
     99          1           0        2.741066   -1.745591   -1.457738
    100          1           0        2.492512   -0.192238   -2.181867
    101          1           0        4.216018   -0.981430    0.389072
    102          1           0        4.048756    1.747054   -2.340445
    103          1           0        5.432713    2.289508   -1.779597
    104          1           0        5.629572    0.766215   -2.717904
    105          1           0        6.347033    1.626965    0.135953
    106          1           0        6.137788   -0.013213    1.124387
    107          1           0        7.457682   -1.184894   -1.070251
    108          1           0        7.703842    0.533071   -1.826614
    109          1           0        9.081338    0.859884    0.104304
    110          1           0        8.408824   -0.815122    0.875108
    111          1           0       10.005737   -0.121082   -1.807020
    112          1           0        9.159105   -2.523985   -1.579948
    113          1           0       10.865954   -2.250816   -1.549033
    114          1           0       10.034309   -2.797729   -0.020381
    115          1           0       11.406354    0.528959    0.540579
    116          1           0       11.306946   -1.176862    0.965692
    117          1           0       12.727448   -1.682049   -0.966694
    118          1           0       12.858054   -0.145941   -1.665514
    119          1           0       13.777977    1.046829    0.340974
    120          1           0       13.939841   -0.538137    1.133521
    121          1           0       15.136016    0.272885   -1.497265
    122          1           0       15.621656   -2.434672   -0.089774
    123          1           0       15.049708   -2.143644   -1.812022
    124          1           0       16.760895   -1.807887   -1.219024
    125          1           0       15.960020    1.451495    0.388350
    126          1           0       16.373042   -0.052307    1.427898
    127          1           0       18.183114   -0.429873   -0.423907
    128          1           0       17.919846    1.008053   -1.219074
    129          1           0       18.589563    2.360660    0.721370
    130          1           0       18.890436    0.778768    1.702470
    131          1           0       20.756929    0.425815    0.059266
    132          1           0       20.185882    3.244794   -1.221249
    133          1           0       21.401474    2.218102   -1.289580
    134          1           0       19.813478    1.809428   -2.193847
    135          1           0       21.204256    1.750097    2.108516
    136          1           0       22.224803    2.116583    0.609823
    137          1           0       21.044765    3.090918    1.107493
 ---------------------------------------------------------------------

 SCF Done:  E(RCAM-B3LYP) =  -2932.59169513     A.U. after   17 cycles

 Excitation energies and oscillator strengths:

 Excited State   1:      Singlet-A      2.1009 eV  590.15 nm  f=0.2083  <S**2>=0.000
     240 -> 243        0.24546
     241 -> 242        0.64650
 This state for optimization and/or second-order correction.
 Total Energy, E(TD-HF/TD-KS) =  -2932.51448843
 Copying the excited state density for this state as the 1-particle RhoCI density.

 The electronic state is 1-A.
 Alpha  occ. eigenvalues --  -46.84338 -19.26240 -19.25866 -19.21271 -19.21180
 Alpha  occ. eigenvalues --  -19.20533 -14.41311 -14.40045 -14.39286 -14.38778
 Alpha  occ. eigenvalues --  -10.40453 -10.38121 -10.36047 -10.31959 -10.30812
 Alpha  occ. eigenvalues --  -10.30737 -10.30167 -10.29344 -10.29336 -10.29173
 Alpha  occ. eigenvalues --  -10.29162 -10.29066 -10.29034 -10.28773 -10.28608
 Alpha  occ. eigenvalues --  -10.28371 -10.28291 -10.28264 -10.28137 -10.28133
 Alpha  occ. eigenvalues --  -10.28019 -10.27748 -10.27661 -10.27602 -10.27526
 Alpha  occ. eigenvalues --  -10.27155 -10.26684 -10.26475 -10.26175 -10.26152
 Alpha  occ. eigenvalues --  -10.26136 -10.26099 -10.26031 -10.26014 -10.25918
 Alpha  occ. eigenvalues --  -10.25909 -10.25798 -10.25780 -10.25724 -10.25618
 Alpha  occ. eigenvalues --  -10.25569 -10.25566 -10.25550 -10.25426 -10.25398
 Alpha  occ. eigenvalues --  -10.25350 -10.25012 -10.24911 -10.24726 -10.24603
 Alpha  occ. eigenvalues --  -10.24489 -10.24416 -10.24230 -10.23987 -10.23232
 Alpha  occ. eigenvalues --   -3.13359  -1.88076  -1.87576  -1.87550  -1.18563
 Alpha  occ. eigenvalues --   -1.17165  -1.11831  -1.10373  -1.06477  -1.05968
 Alpha  occ. eigenvalues --   -1.04820  -1.02729  -1.01501  -0.93031  -0.92270
 Alpha  occ. eigenvalues --   -0.90399  -0.89705  -0.89516  -0.89330  -0.88721
 Alpha  occ. eigenvalues --   -0.88585  -0.87823  -0.87441  -0.86965  -0.86319
 Alpha  occ. eigenvalues --   -0.85578  -0.84425  -0.84097  -0.83361  -0.82508
 Alpha  occ. eigenvalues --   -0.81976  -0.81838  -0.80259  -0.80085  -0.78713
 Alpha  occ. eigenvalues --   -0.78349  -0.77723  -0.76877  -0.76489  -0.75768
 Alpha  occ. eigenvalues --   -0.74931  -0.74639  -0.74439  -0.73286  -0.72261
 Alpha  occ. eigenvalues --   -0.71401  -0.70214  -0.69511  -0.68530  -0.68162
 Alpha  occ. eigenvalues --   -0.67090  -0.66927  -0.64874  -0.64545  -0.64505
 Alpha  occ. eigenvalues --   -0.63853  -0.63282  -0.63084  -0.62686  -0.62575
 Alpha  occ. eigenvalues --   -0.61705  -0.60116  -0.60017  -0.59644  -0.59493
 Alpha  occ. eigenvalues --   -0.59130  -0.58745  -0.58054  -0.57795  -0.57375
 Alpha  occ. eigenvalues --   -0.56537  -0.55928  -0.55187  -0.54965  -0.54770
 Alpha  occ. eigenvalues --   -0.54297  -0.54155  -0.54093  -0.53944  -0.53770
 Alpha  occ. eigenvalues --   -0.53382  -0.53091  -0.52804  -0.52680  -0.52009
 Alpha  occ. eigenvalues --   -0.51819  -0.51576  -0.51349  -0.51149  -0.50857
 Alpha  occ. eigenvalues --   -0.50457  -0.50423  -0.50165  -0.50059  -0.49878
 Alpha  occ. eigenvalues --   -0.49837  -0.49636  -0.49612  -0.48959  -0.48823
 Alpha  occ. eigenvalues --   -0.48534  -0.48333  -0.47846  -0.47604  -0.47516
 Alpha  occ. eigenvalues --   -0.47134  -0.46815  -0.46669  -0.46505  -0.46253
 Alpha  occ. eigenvalues --   -0.46085  -0.45948  -0.45735  -0.45223  -0.44904
 Alpha  occ. eigenvalues --   -0.44773  -0.44443  -0.44376  -0.44121  -0.44078
 Alpha  occ. eigenvalues --   -0.43965  -0.43829  -0.43428  -0.43256  -0.43182
 Alpha  occ. eigenvalues --   -0.43143  -0.43076  -0.42891  -0.42672  -0.42545
 Alpha  occ. eigenvalues --   -0.42419  -0.42189  -0.41370  -0.41321  -0.41211
 Alpha  occ. eigenvalues --   -0.41101  -0.40948  -0.40856  -0.40808  -0.40461
 Alpha  occ. eigenvalues --   -0.40302  -0.40048  -0.39773  -0.39546  -0.39530
 Alpha  occ. eigenvalues --   -0.39194  -0.39105  -0.38143  -0.38051  -0.37967
 Alpha  occ. eigenvalues --   -0.37502  -0.37336  -0.37036  -0.36699  -0.36492
 Alpha  occ. eigenvalues --   -0.36247  -0.35782  -0.35432  -0.35326  -0.35292
 Alpha  occ. eigenvalues --   -0.35122  -0.34994  -0.34811  -0.33634  -0.33257
 Alpha  occ. eigenvalues --   -0.32992  -0.32606  -0.32163  -0.30740  -0.30555
 Alpha  occ. eigenvalues --   -0.29974  -0.29171  -0.27355  -0.26809  -0.23283
 Alpha  occ. eigenvalues --   -0.20918
 Alpha virt. eigenvalues --   -0.05767  -0.03155   0.01587   0.04076   0.04793
 Alpha virt. eigenvalues --    0.04913   0.06247   0.06764   0.06971   0.08350
 Alpha virt. eigenvalues --    0.09030   0.10908   0.11018   0.11229   0.11897

 Mulliken charges:
               1
     1  Mg   0.815347
     2  C   -0.031869
     3  C   -0.218892
     4  C   -0.163606
     5  C   -0.181462
     6  N   -0.635046
     7  C    0.295375
     8  C   -0.167299
     9  C   -0.183773
    10  C    0.389599
    11  C   -0.281173
    12  C   -0.160764
    13  C   -0.234800
    14  C    0.581184
    15  O   -0.460781
    16  O   -0.484119
    17  N   -0.704794
    18  C    0.304991
    19  C    0.040846
    20  C   -0.020984
    21  C    0.321630
    22  C   -0.368964
    23  C   -0.066283
    24  C   -0.242075
    25  N   -0.662663
    26  C    0.276807
    27  C   -0.034220
    28  C   -0.031557
    29  C    0.267664
    30  C   -0.357451
    31  C   -0.190111
    32  C   -0.281786
    33  N   -0.697406
    34  C    0.257196
    35  C    0.061660
    36  C   -0.071775
    37  C    0.353381
    38  C   -0.369377
    39  C    0.389539
    40  O   -0.446642
    41  C   -0.237731
    42  C    0.600032
    43  O   -0.507543
    44  O   -0.460400
    45  C   -0.046332
    46  C    0.003858
    47  C   -0.131676
    48  C    0.129790
    49  C   -0.362718
    50  C   -0.201283
    51  C   -0.178793
    52  C   -0.155931
    53  C   -0.085936
    54  C   -0.278835
    55  C   -0.184894
    56  C   -0.194020
    57  C   -0.172650
    58  C   -0.061017
    59  C   -0.305750
    60  C   -0.162939
    61  C   -0.187203
    62  C   -0.144097
    63  C   -0.073146
    64  C   -0.325473
    65  C   -0.324800
    66  H    0.075370
    67  H    0.107743
    68  H    0.100940
    69  H    0.122453
    70  H    0.092484
    71  H    0.118920
    72  H    0.114916
    73  H    0.120727
    74  H    0.105143
    75  H    0.106421
    76  H    0.126733
    77  H    0.128306
    78  H    0.103293
    79  H    0.125776
    80  H    0.124901
    81  H    0.082169
    82  H    0.104128
    83  H    0.101394
    84  H    0.142255
    85  H    0.079697
    86  H    0.093677
    87  H    0.099558
    88  H    0.112016
    89  H    0.083439
    90  H    0.083852
    91  H    0.115189
    92  H    0.108219
    93  H    0.133121
    94  H    0.150468
    95  H    0.169093
    96  H    0.123127
    97  H    0.137834
    98  H    0.123108
    99  H    0.134366
   100  H    0.143275
   101  H    0.092162
   102  H    0.115320
   103  H    0.103161
   104  H    0.138420
   105  H    0.075632
   106  H    0.045941
   107  H    0.089157
   108  H    0.061554
   109  H    0.106027
   110  H    0.093332
   111  H    0.077293
   112  H    0.108410
   113  H    0.116536
   114  H    0.081909
   115  H    0.084454
   116  H    0.080499
   117  H    0.106664
   118  H    0.094842
   119  H    0.079865
   120  H    0.101491
   121  H    0.088316
   122  H    0.098884
   123  H    0.056779
   124  H    0.102068
   125  H    0.103099
   126  H    0.093327
   127  H    0.105114
   128  H    0.095214
   129  H    0.098456
   130  H    0.061024
   131  H    0.082646
   132  H    0.098392
   133  H    0.100385
   134  H    0.097968
   135  H    0.100515
   136  H    0.102678
   137  H    0.112296
 Sum of Mulliken charges =   0.00000

 Dipole moment (field-independent basis, Debye):
    X=              4.9571    Y=              3.3503    Z=             -0.1728  Tot=              5.9856
 Quadrupole moment (field-independent basis, Debye-Ang):
   XX=           -356.9318   YY=           -389.8690   ZZ=           -402.6303
   XY=             -7.0163   XZ=              6.7142   YZ=             -2.0683

 Normal termination of Gaussian 09 at Fri Jun 28 18:25:12 2019.
