 Gaussian 09, Revision D.01,
 Gaussian 09:  ES64L-G09RevD.01 24-Apr-2013

 -------------------------------------
 # td=(NStates=1) CAM-B3LYP/6-31G(d,p)
 -------------------------------------

 --
 TD
 --
 Symbolic Z-matrix:
 Charge =  0 Multiplicity = 1

                         Standard orientation:
 ---------------------------------------------------------------------
 Center     Atomic      Atomic             Coordinates (Angstroms)
 Number     Number       Type             X           Y           Z
 ---------------------------------------------------------------------
      1         12           0       -7.171935    0.596743    0.109582
      2          6           0       -4.902586   -1.901914    0.596604
      3          6           0       -4.879538    2.869820    1.160352
      4          6           0       -9.469960    3.107360   -0.339076
      5          6           0       -9.538255   -1.751142   -0.847276
      6          7           0       -5.078929    0.472699    0.776331
      7          6           0       -4.306335   -0.641119    0.718722
      8          6           0       -2.956518   -0.319632    1.258204
      9          6           0       -3.024330    1.098949    1.725966
     10          6           0       -4.398506    1.586394    1.196192
     11          6           0       -2.903339    1.276016    3.189186
     12          6           0       -2.005730   -0.502672   -0.080529
     13          6           0       -0.551246   -0.215040    0.369015
     14          6           0        0.469981   -0.564235   -0.707683
     15          8           0        0.275672   -0.982252   -1.824559
     16          8           0        1.739988   -0.472940   -0.188983
     17          7           0       -7.087849    2.539816    0.210254
     18          6           0       -6.092116    3.368115    0.788437
     19          6           0       -6.544409    4.763884    0.863942
     20          6           0       -7.793033    4.805944    0.455747
     21          6           0       -8.106477    3.445926    0.048560
     22          6           0       -5.585803    5.809283    1.420620
     23          6           0       -8.671872    5.978284    0.352910
     24          6           0       -8.249597    7.298291    0.263626
     25          7           0       -9.075729    0.658180   -0.651155
     26          6           0       -9.917891    1.768198   -0.691006
     27          6           0      -11.214699    1.412120   -1.167166
     28          6           0      -11.179268    0.100307   -1.320757
     29          6           0       -9.883371   -0.316625   -0.916961
     30          6           0      -12.308450    2.345467   -1.477446
     31          6           0      -12.341830   -0.829162   -1.795983
     32          6           0      -12.218310   -1.235014   -3.289007
     33          7           0       -7.226325   -1.400171   -0.137096
     34          6           0       -8.264948   -2.246470   -0.424940
     35          6           0       -7.861319   -3.610276   -0.416151
     36          6           0       -6.479827   -3.542926    0.008221
     37          6           0       -6.238133   -2.190529    0.128752
     38          6           0       -8.581462   -4.887697   -0.771153
     39          6           0       -5.307572   -4.297814    0.249731
     40          8           0       -5.072626   -5.469323    0.172322
     41          6           0       -4.139099   -3.265851    0.561244
     42          6           0       -3.455086   -3.719142    1.868739
     43          8           0       -3.818405   -3.130606    2.928493
     44          8           0       -2.637669   -4.710816    1.738825
     45          6           0       -2.196567   -5.354109    2.968782
     46          6           0        2.792468   -0.708141   -1.103478
     47          6           0        4.116202   -0.324985   -0.486329
     48          6           0        5.151160    0.410829   -0.967564
     49          6           0        5.085152    1.121513   -2.247793
     50          6           0        6.415871    0.440239   -0.147916
     51          6           0        7.630809   -0.165451   -0.951485
     52          6           0        8.822806   -0.278782   -0.048563
     53          6           0       10.139587   -0.582573   -0.830096
     54          6           0       10.044828   -1.968038   -1.391518
     55          6           0       11.348855   -0.316897    0.038208
     56          6           0       12.793736   -0.510024   -0.722875
     57          6           0       13.933370    0.090621    0.125658
     58          6           0       15.328223   -0.157193   -0.510802
     59          6           0       15.652000   -1.624343   -0.946740
     60          6           0       16.465098    0.381352    0.430158
     61          6           0       17.850656    0.472727   -0.220273
     62          6           0       18.875674    1.078423    0.679261
     63          6           0       20.424461    1.355524    0.212704
     64          6           0       20.480714    2.249157   -0.998532
     65          6           0       21.235656    1.827477    1.353585
     66          1           0       -4.235047    3.590812    1.690138
     67          1           0      -10.035209    3.892564   -0.432314
     68          1           0      -10.395000   -2.443560   -1.232936
     69          1           0       -2.623246   -0.983606    1.903387
     70          1           0       -2.400362    1.862497    1.273970
     71          1           0       -1.910895    1.032972    3.617349
     72          1           0       -2.993630    2.239659    3.625879
     73          1           0       -3.622950    0.465618    3.677505
     74          1           0       -2.326854   -1.541258   -0.389871
     75          1           0       -2.262627    0.084214   -0.908420
     76          1           0       -0.334835    0.823524    0.696446
     77          1           0       -0.378863   -0.717202    1.453176
     78          1           0       -5.089823    6.335802    0.633060
     79          1           0       -6.179034    6.649514    2.017299
     80          1           0       -4.842870    5.407203    2.129861
     81          1           0       -9.730566    5.929065    0.748740
     82          1           0       -8.989744    8.080899    0.096622
     83          1           0       -7.236567    7.540327    0.148382
     84          1           0      -12.023795    3.123064   -2.090954
     85          1           0      -13.107398    1.799430   -2.031476
     86          1           0      -12.730429    2.832684   -0.400210
     87          1           0      -12.330687   -1.648494   -1.042988
     88          1           0      -13.150845   -0.318531   -1.540358
     89          1           0      -12.976473   -1.872515   -3.537939
     90          1           0      -12.455257   -0.251639   -3.863203
     91          1           0      -11.258799   -1.681527   -3.587823
     92          1           0       -8.961066   -4.949863   -1.808720
     93          1           0       -7.717809   -5.692649   -0.566502
     94          1           0       -9.527975   -5.178465   -0.020892
     95          1           0       -3.348528   -3.383100   -0.226285
     96          1           0       -1.771185   -4.655651    3.595851
     97          1           0       -2.847382   -5.839850    3.558514
     98          1           0       -1.539058   -6.111570    2.770411
     99          1           0        2.703294   -1.898797   -1.334899
    100          1           0        2.449661   -0.268131   -2.095720
    101          1           0        4.135721   -0.760076    0.506452
    102          1           0        4.073159    0.830050   -2.787710
    103          1           0        5.049067    2.276118   -1.970602
    104          1           0        5.984791    0.823977   -2.939590
    105          1           0        6.638001    1.422902    0.067494
    106          1           0        6.363210   -0.234416    0.791563
    107          1           0        7.425032   -1.143766   -1.429938
    108          1           0        7.931459    0.433032   -1.738427
    109          1           0        8.654201    0.541465    0.621961
    110          1           0        8.732737   -1.018604    0.748481
    111          1           0       10.377706    0.180183   -1.643854
    112          1           0        9.059890   -2.149079   -1.921515
    113          1           0       10.923733   -2.071989   -2.221224
    114          1           0       10.181631   -2.534659   -0.458797
    115          1           0       11.304858    0.739956    0.377105
    116          1           0       11.314486   -0.736628    0.980862
    117          1           0       13.002295   -1.518016   -1.206934
    118          1           0       12.722043    0.120307   -1.494305
    119          1           0       13.869463    1.083706    0.368984
    120          1           0       13.951608   -0.467968    1.068402
    121          1           0       15.400918    0.504182   -1.445970
    122          1           0       15.427088   -2.356226   -0.087878
    123          1           0       14.854803   -2.114174   -1.699457
    124          1           0       16.618684   -1.784637   -1.317443
    125          1           0       16.104031    1.359343    0.727692
    126          1           0       16.475369   -0.327926    1.159477
    127          1           0       18.318866   -0.471787   -0.443633
    128          1           0       17.834016    0.906097   -1.305938
    129          1           0       18.543396    2.073426    0.760548
    130          1           0       18.882151    0.610787    1.656886
    131          1           0       20.971557    0.467970    0.061739
    132          1           0       19.923660    3.221147   -0.825704
    133          1           0       21.427697    2.621057   -1.471331
    134          1           0       19.845721    1.800806   -1.854337
    135          1           0       21.068710    1.160411    2.124039
    136          1           0       22.312751    1.912021    1.251919
    137          1           0       20.987777    2.813946    1.869600
 ---------------------------------------------------------------------

 SCF Done:  E(RCAM-B3LYP) =  -2932.77131825     A.U. after   17 cycles

 Excitation energies and oscillator strengths:

 Excited State   1:      Singlet-A      2.0129 eV  615.94 nm  f=0.2247  <S**2>=0.000
     240 -> 243        0.25742
     241 -> 242        0.65062
 This state for optimization and/or second-order correction.
 Total Energy, E(TD-HF/TD-KS) =  -2932.69734512
 Copying the excited state density for this state as the 1-particle RhoCI density.

 The electronic state is 1-A.
 Alpha  occ. eigenvalues --  -46.83987 -19.28100 -19.25214 -19.21312 -19.19482
 Alpha  occ. eigenvalues --  -19.19126 -14.40905 -14.39824 -14.39029 -14.39002
 Alpha  occ. eigenvalues --  -10.39282 -10.38875 -10.33991 -10.32089 -10.30576
 Alpha  occ. eigenvalues --  -10.30060 -10.29806 -10.29795 -10.29733 -10.29101
 Alpha  occ. eigenvalues --  -10.28961 -10.28869 -10.28737 -10.28575 -10.28319
 Alpha  occ. eigenvalues --  -10.28098 -10.28069 -10.27935 -10.27930 -10.27822
 Alpha  occ. eigenvalues --  -10.27237 -10.27180 -10.27161 -10.27152 -10.27025
 Alpha  occ. eigenvalues --  -10.26995 -10.26868 -10.26719 -10.26705 -10.26374
 Alpha  occ. eigenvalues --  -10.26222 -10.26153 -10.26126 -10.26055 -10.25876
 Alpha  occ. eigenvalues --  -10.25866 -10.25861 -10.25799 -10.25586 -10.25518
 Alpha  occ. eigenvalues --  -10.25472 -10.25451 -10.25113 -10.25109 -10.24950
 Alpha  occ. eigenvalues --  -10.24894 -10.24810 -10.24670 -10.24614 -10.24515
 Alpha  occ. eigenvalues --  -10.24496 -10.24468 -10.24352 -10.24344 -10.23344
 Alpha  occ. eigenvalues --   -3.13166  -1.87858  -1.87406  -1.87362  -1.19317
 Alpha  occ. eigenvalues --   -1.17796  -1.11442  -1.09231  -1.06391  -1.05725
 Alpha  occ. eigenvalues --   -1.04715  -1.03726  -1.02731  -0.91430  -0.91407
 Alpha  occ. eigenvalues --   -0.90202  -0.89908  -0.89614  -0.89440  -0.89138
 Alpha  occ. eigenvalues --   -0.88542  -0.88230  -0.86851  -0.86565  -0.85736
 Alpha  occ. eigenvalues --   -0.85053  -0.84365  -0.83989  -0.83396  -0.82624
 Alpha  occ. eigenvalues --   -0.81543  -0.81390  -0.80290  -0.79663  -0.78287
 Alpha  occ. eigenvalues --   -0.77688  -0.77539  -0.76576  -0.76007  -0.75541
 Alpha  occ. eigenvalues --   -0.75237  -0.74917  -0.74723  -0.72850  -0.71975
 Alpha  occ. eigenvalues --   -0.71834  -0.70677  -0.70199  -0.69130  -0.68522
 Alpha  occ. eigenvalues --   -0.67384  -0.67045  -0.66027  -0.65948  -0.65602
 Alpha  occ. eigenvalues --   -0.64230  -0.63497  -0.63338  -0.62697  -0.62361
 Alpha  occ. eigenvalues --   -0.61948  -0.60452  -0.60424  -0.59621  -0.59083
 Alpha  occ. eigenvalues --   -0.58767  -0.58039  -0.57764  -0.56794  -0.56522
 Alpha  occ. eigenvalues --   -0.55904  -0.55348  -0.55120  -0.55005  -0.54671
 Alpha  occ. eigenvalues --   -0.54172  -0.54106  -0.53781  -0.53527  -0.52951
 Alpha  occ. eigenvalues --   -0.52813  -0.52599  -0.52337  -0.52119  -0.52006
 Alpha  occ. eigenvalues --   -0.51448  -0.51361  -0.50933  -0.50876  -0.50576
 Alpha  occ. eigenvalues --   -0.50050  -0.49992  -0.49761  -0.49539  -0.49369
 Alpha  occ. eigenvalues --   -0.48927  -0.48786  -0.48683  -0.48490  -0.48175
 Alpha  occ. eigenvalues --   -0.48104  -0.47945  -0.47834  -0.47647  -0.47104
 Alpha  occ. eigenvalues --   -0.47045  -0.46793  -0.46723  -0.46147  -0.45899
 Alpha  occ. eigenvalues --   -0.45623  -0.45279  -0.45121  -0.44973  -0.44662
 Alpha  occ. eigenvalues --   -0.44606  -0.44511  -0.44367  -0.44268  -0.43915
 Alpha  occ. eigenvalues --   -0.43819  -0.43653  -0.43504  -0.43379  -0.43231
 Alpha  occ. eigenvalues --   -0.42925  -0.42905  -0.42778  -0.42637  -0.42385
 Alpha  occ. eigenvalues --   -0.42349  -0.42198  -0.41827  -0.41751  -0.41514
 Alpha  occ. eigenvalues --   -0.41415  -0.41324  -0.41016  -0.40570  -0.40551
 Alpha  occ. eigenvalues --   -0.40407  -0.40172  -0.40114  -0.39681  -0.39086
 Alpha  occ. eigenvalues --   -0.39028  -0.38713  -0.38615  -0.38412  -0.37989
 Alpha  occ. eigenvalues --   -0.37981  -0.37841  -0.37399  -0.36922  -0.36627
 Alpha  occ. eigenvalues --   -0.36311  -0.36069  -0.35742  -0.35586  -0.35194
 Alpha  occ. eigenvalues --   -0.35058  -0.34991  -0.34882  -0.34010  -0.33527
 Alpha  occ. eigenvalues --   -0.33218  -0.32162  -0.31735  -0.30265  -0.29544
 Alpha  occ. eigenvalues --   -0.29272  -0.28982  -0.28857  -0.28694  -0.22530
 Alpha  occ. eigenvalues --   -0.20752
 Alpha virt. eigenvalues --   -0.06235  -0.02937   0.01986   0.03597   0.05540
 Alpha virt. eigenvalues --    0.05683   0.06435   0.06535   0.07285   0.07618
 Alpha virt. eigenvalues --    0.08572   0.10924   0.11748   0.12033   0.12163

 Mulliken charges:
               1
     1  Mg   0.828610
     2  C    0.097078
     3  C   -0.209690
     4  C   -0.152554
     5  C   -0.180410
     6  N   -0.617822
     7  C    0.264708
     8  C   -0.145807
     9  C   -0.114853
    10  C    0.314416
    11  C   -0.313030
    12  C   -0.182095
    13  C   -0.275225
    14  C    0.612916
    15  O   -0.465140
    16  O   -0.479766
    17  N   -0.713013
    18  C    0.299342
    19  C    0.050093
    20  C    0.036434
    21  C    0.283325
    22  C   -0.381002
    23  C   -0.106453
    24  C   -0.238359
    25  N   -0.668761
    26  C    0.240562
    27  C    0.056145
    28  C   -0.002618
    29  C    0.303592
    30  C   -0.362239
    31  C   -0.224602
    32  C   -0.305733
    33  N   -0.711795
    34  C    0.246824
    35  C    0.046889
    36  C    0.031938
    37  C    0.293879
    38  C   -0.379905
    39  C    0.341645
    40  O   -0.462419
    41  C   -0.334403
    42  C    0.620862
    43  O   -0.517821
    44  O   -0.420253
    45  C   -0.092881
    46  C    0.013357
    47  C   -0.134768
    48  C    0.140733
    49  C   -0.356746
    50  C   -0.235531
    51  C   -0.181340
    52  C   -0.186372
    53  C   -0.065231
    54  C   -0.282769
    55  C   -0.193466
    56  C   -0.188468
    57  C   -0.176025
    58  C   -0.071867
    59  C   -0.313557
    60  C   -0.161800
    61  C   -0.193119
    62  C   -0.178766
    63  C   -0.053112
    64  C   -0.311465
    65  C   -0.314625
    66  H    0.067024
    67  H    0.060467
    68  H    0.102755
    69  H    0.118166
    70  H    0.105731
    71  H    0.102101
    72  H    0.112060
    73  H    0.115289
    74  H    0.117497
    75  H    0.130091
    76  H    0.142347
    77  H    0.124272
    78  H    0.136156
    79  H    0.107896
    80  H    0.120440
    81  H    0.107258
    82  H    0.109756
    83  H    0.106772
    84  H    0.134715
    85  H    0.108040
    86  H    0.089805
    87  H    0.100935
    88  H    0.110184
    89  H    0.118440
    90  H    0.096891
    91  H    0.119223
    92  H    0.129263
    93  H    0.141398
    94  H    0.100791
    95  H    0.148280
    96  H    0.137930
    97  H    0.145356
    98  H    0.129550
    99  H    0.095547
   100  H    0.117158
   101  H    0.091281
   102  H    0.106924
   103  H    0.108568
   104  H    0.113425
   105  H    0.110919
   106  H    0.099524
   107  H    0.095948
   108  H    0.106405
   109  H    0.090592
   110  H    0.085375
   111  H    0.073084
   112  H    0.102145
   113  H    0.084288
   114  H    0.108002
   115  H    0.086407
   116  H    0.089981
   117  H    0.094999
   118  H    0.108597
   119  H    0.100409
   120  H    0.087102
   121  H    0.069507
   122  H    0.088757
   123  H    0.077613
   124  H    0.118665
   125  H    0.091232
   126  H    0.104961
   127  H    0.096206
   128  H    0.078812
   129  H    0.099973
   130  H    0.090928
   131  H    0.095600
   132  H    0.092475
   133  H    0.101564
   134  H    0.087341
   135  H    0.105078
   136  H    0.101933
   137  H    0.080120
 Sum of Mulliken charges =   0.00000

 Dipole moment (field-independent basis, Debye):
    X=              0.8349    Y=              4.8351    Z=              1.4376  Tot=              5.1129
 Quadrupole moment (field-independent basis, Debye-Ang):
   XX=           -341.4148   YY=           -384.5565   ZZ=           -396.2048
   XY=            -24.2798   XZ=             13.9465   YZ=             -3.1599

 Normal termination of Gaussian 09 at Fri Jun 28 09:18:31 2019.
