 Gaussian 09, Revision D.01,
 Gaussian 09:  ES64L-G09RevD.01 24-Apr-2013

 -------------------------------------
 # td=(NStates=1) CAM-B3LYP/6-31G(d,p)
 -------------------------------------

 --
 TD
 --
 Symbolic Z-matrix:
 Charge =  0 Multiplicity = 1

                         Standard orientation:
 ---------------------------------------------------------------------
 Center     Atomic      Atomic             Coordinates (Angstroms)
 Number     Number       Type             X           Y           Z
 ---------------------------------------------------------------------
      1         12           0       -7.109523    0.612362    0.058459
      2          6           0       -4.829978   -1.888836    0.525902
      3          6           0       -4.860001    2.803236    1.333411
      4          6           0       -9.492464    3.086209   -0.251513
      5          6           0       -9.478844   -1.772060   -1.015586
      6          7           0       -5.147142    0.457002    0.846160
      7          6           0       -4.373633   -0.703825    0.782636
      8          6           0       -2.971250   -0.339214    1.305134
      9          6           0       -3.070145    0.989785    1.761687
     10          6           0       -4.453573    1.476310    1.327902
     11          6           0       -2.984745    1.162565    3.278044
     12          6           0       -1.896065   -0.572098    0.184077
     13          6           0       -0.442133   -0.521547    0.619504
     14          6           0        0.512507   -0.651549   -0.502166
     15          8           0        0.166630   -0.957186   -1.667632
     16          8           0        1.756937   -0.344432   -0.150885
     17          7           0       -7.088193    2.560118    0.377969
     18          6           0       -6.061601    3.272119    0.984636
     19          6           0       -6.441496    4.734676    1.022326
     20          6           0       -7.733024    4.772708    0.625936
     21          6           0       -8.216457    3.399754    0.130724
     22          6           0       -5.520243    5.856889    1.380439
     23          6           0       -8.682535    5.921260    0.426917
     24          6           0       -8.251277    7.152481    0.168829
     25          7           0       -9.197977    0.642676   -0.508234
     26          6           0       -9.846259    1.835851   -0.686030
     27          6           0      -11.105259    1.458127   -1.273062
     28          6           0      -11.169165    0.052102   -1.457295
     29          6           0       -9.952312   -0.385445   -0.909536
     30          6           0      -12.236664    2.429853   -1.537238
     31          6           0      -12.227798   -0.869968   -1.972635
     32          6           0      -12.180360   -1.032441   -3.489306
     33          7           0       -7.204620   -1.380258   -0.141229
     34          6           0       -8.178014   -2.272416   -0.582518
     35          6           0       -7.754346   -3.583759   -0.544937
     36          6           0       -6.468395   -3.552714    0.004458
     37          6           0       -6.167876   -2.201584    0.068986
     38          6           0       -8.502058   -4.956196   -0.878039
     39          6           0       -5.303710   -4.472809    0.195955
     40          8           0       -5.243481   -5.627650    0.314737
     41          6           0       -4.106868   -3.360450    0.555981
     42          6           0       -3.559564   -3.719506    2.016958
     43          8           0       -3.808652   -3.219443    3.052317
     44          8           0       -2.657344   -4.659697    1.740734
     45          6           0       -2.222563   -5.169753    2.993606
     46          6           0        2.672221   -0.555703   -1.187464
     47          6           0        4.119601   -0.295303   -0.517526
     48          6           0        5.146218    0.537809   -1.008976
     49          6           0        4.951337    1.435143   -2.243773
     50          6           0        6.396987    0.632470   -0.216352
     51          6           0        7.509076   -0.065041   -1.136847
     52          6           0        8.899190    0.062907   -0.336933
     53          6           0       10.166286   -0.418755   -1.094195
     54          6           0       10.125911   -1.866567   -1.422646
     55          6           0       11.446681   -0.175465   -0.263397
     56          6           0       12.673890   -0.440188   -0.892077
     57          6           0       13.906770    0.075850   -0.053989
     58          6           0       15.367358   -0.175640   -0.639263
     59          6           0       15.597871   -1.574948   -1.032433
     60          6           0       16.412392    0.312642    0.360447
     61          6           0       17.881343    0.437745   -0.142374
     62          6           0       18.810924    0.978768    0.901386
     63          6           0       20.279274    1.133161    0.363402
     64          6           0       20.416293    2.075522   -0.800769
     65          6           0       21.170600    1.639938    1.505285
     66          1           0       -3.956118    3.329741    1.539775
     67          1           0       -9.993404    3.947811   -0.526552
     68          1           0      -10.155337   -2.657728   -1.112803
     69          1           0       -2.869591   -1.033469    2.119334
     70          1           0       -2.297784    1.686495    1.427705
     71          1           0       -1.906216    0.861216    3.607063
     72          1           0       -2.967021    2.391813    3.624225
     73          1           0       -3.668997    0.605843    3.742307
     74          1           0       -2.331649   -1.599728   -0.305192
     75          1           0       -1.937367    0.292713   -0.526679
     76          1           0       -0.295532    0.418902    1.261474
     77          1           0       -0.215200   -1.333456    1.337520
     78          1           0       -5.045181    6.296240    0.554941
     79          1           0       -5.907108    6.552547    2.034684
     80          1           0       -4.820624    5.471426    2.138209
     81          1           0       -9.755826    5.711212    0.275617
     82          1           0       -8.861577    7.969116   -0.099071
     83          1           0       -7.080066    7.275929    0.340197
     84          1           0      -11.774593    3.146910   -2.302060
     85          1           0      -13.098619    1.823390   -1.827925
     86          1           0      -12.517345    2.945767   -0.639285
     87          1           0      -12.183339   -1.715022   -1.400453
     88          1           0      -13.280077   -0.276921   -1.814294
     89          1           0      -12.848353   -1.699013   -3.810761
     90          1           0      -12.260800    0.169485   -3.810309
     91          1           0      -11.217514   -1.384700   -3.839509
     92          1           0       -9.125373   -4.773622   -2.003492
     93          1           0       -7.785323   -5.659379   -1.102993
     94          1           0       -9.099939   -4.970811    0.033112
     95          1           0       -3.289280   -3.335985   -0.180952
     96          1           0       -1.978984   -4.462660    3.669969
     97          1           0       -3.125183   -5.444441    3.589337
     98          1           0       -1.426700   -6.000331    2.850866
     99          1           0        2.890423   -1.667590   -1.248943
    100          1           0        2.391697   -0.027924   -2.081297
    101          1           0        4.152809   -0.925297    0.268067
    102          1           0        3.944826    1.501498   -2.738472
    103          1           0        5.216123    2.462259   -2.028621
    104          1           0        5.564914    1.023462   -3.187973
    105          1           0        6.792620    1.734320   -0.035574
    106          1           0        6.240005    0.161248    0.837338
    107          1           0        7.145740   -1.139779   -1.304999
    108          1           0        7.668307    0.691567   -2.020621
    109          1           0        9.088049    1.159876   -0.195433
    110          1           0        8.966010   -0.369465    0.736742
    111          1           0       10.218766    0.244443   -2.060156
    112          1           0        9.175158   -2.073181   -1.862940
    113          1           0       10.899235   -2.237021   -2.200464
    114          1           0       10.104365   -2.501336   -0.385632
    115          1           0       11.235712    0.722035    0.172439
    116          1           0       11.195935   -0.923027    0.373282
    117          1           0       12.938719   -1.424280   -1.251665
    118          1           0       12.891475    0.212476   -1.898915
    119          1           0       13.759256    1.076837    0.247778
    120          1           0       13.863065   -0.440576    0.878922
    121          1           0       15.476179    0.440022   -1.398265
    122          1           0       15.644073   -2.188018   -0.120144
    123          1           0       15.032166   -2.134746   -1.712053
    124          1           0       16.715001   -1.585209   -1.573500
    125          1           0       16.075609    1.403441    0.542715
    126          1           0       16.367129   -0.538749    1.238242
    127          1           0       18.061624   -0.504114   -0.315695
    128          1           0       17.808973    1.047965   -1.004793
    129          1           0       18.700653    2.171988    1.052653
    130          1           0       18.694906    0.459058    1.824067
    131          1           0       20.428396    0.032510    0.204597
    132          1           0       19.943729    2.945706   -0.616915
    133          1           0       21.329609    2.263569   -1.076702
    134          1           0       19.936862    1.718912   -1.680902
    135          1           0       21.186718    0.938053    2.247984
    136          1           0       22.179865    1.570882    1.134571
    137          1           0       20.886086    2.518436    1.944782
 ---------------------------------------------------------------------

 SCF Done:  E(RCAM-B3LYP) =  -2932.62938614     A.U. after   17 cycles

 Excitation energies and oscillator strengths:

 Excited State   1:      Singlet-A      2.1880 eV  566.67 nm  f=0.2282  <S**2>=0.000
     240 -> 243       -0.24041
     241 -> 242        0.65853
 This state for optimization and/or second-order correction.
 Total Energy, E(TD-HF/TD-KS) =  -2932.54898016
 Copying the excited state density for this state as the 1-particle RhoCI density.

 The electronic state is 1-A.
 Alpha  occ. eigenvalues --  -46.83539 -19.27494 -19.27348 -19.22561 -19.21807
 Alpha  occ. eigenvalues --  -19.20667 -14.41099 -14.39401 -14.38933 -14.38117
 Alpha  occ. eigenvalues --  -10.39726 -10.39544 -10.35973 -10.32222 -10.30965
 Alpha  occ. eigenvalues --  -10.30917 -10.30684 -10.30269 -10.29363 -10.29170
 Alpha  occ. eigenvalues --  -10.28982 -10.28522 -10.28381 -10.28349 -10.28214
 Alpha  occ. eigenvalues --  -10.28183 -10.28176 -10.28050 -10.28013 -10.27914
 Alpha  occ. eigenvalues --  -10.27717 -10.27674 -10.27444 -10.27330 -10.27311
 Alpha  occ. eigenvalues --  -10.27304 -10.27289 -10.26871 -10.26660 -10.26558
 Alpha  occ. eigenvalues --  -10.26427 -10.26299 -10.26270 -10.26258 -10.26061
 Alpha  occ. eigenvalues --  -10.25827 -10.25773 -10.25599 -10.25494 -10.25311
 Alpha  occ. eigenvalues --  -10.25249 -10.25203 -10.25024 -10.25015 -10.24990
 Alpha  occ. eigenvalues --  -10.24934 -10.24890 -10.24835 -10.24243 -10.24234
 Alpha  occ. eigenvalues --  -10.23835 -10.23046 -10.22442 -10.22181 -10.21731
 Alpha  occ. eigenvalues --   -3.12637  -1.87344  -1.86888  -1.86805  -1.20869
 Alpha  occ. eigenvalues --   -1.19997  -1.14916  -1.12222  -1.08106  -1.04925
 Alpha  occ. eigenvalues --   -1.03863  -1.02810  -1.01093  -0.91622  -0.91308
 Alpha  occ. eigenvalues --   -0.90940  -0.90496  -0.89653  -0.89070  -0.88859
 Alpha  occ. eigenvalues --   -0.88635  -0.87799  -0.87451  -0.86835  -0.86355
 Alpha  occ. eigenvalues --   -0.84765  -0.84382  -0.83244  -0.83109  -0.82603
 Alpha  occ. eigenvalues --   -0.82064  -0.81524  -0.80482  -0.79737  -0.78105
 Alpha  occ. eigenvalues --   -0.77972  -0.77780  -0.76887  -0.75770  -0.75464
 Alpha  occ. eigenvalues --   -0.75369  -0.74562  -0.74509  -0.73201  -0.72718
 Alpha  occ. eigenvalues --   -0.71455  -0.70372  -0.69446  -0.69091  -0.67655
 Alpha  occ. eigenvalues --   -0.66753  -0.66526  -0.65674  -0.65564  -0.64566
 Alpha  occ. eigenvalues --   -0.64521  -0.63489  -0.62822  -0.62544  -0.62511
 Alpha  occ. eigenvalues --   -0.61554  -0.60997  -0.60358  -0.59816  -0.58862
 Alpha  occ. eigenvalues --   -0.58544  -0.58189  -0.57718  -0.57385  -0.57135
 Alpha  occ. eigenvalues --   -0.56681  -0.56328  -0.55940  -0.55757  -0.55540
 Alpha  occ. eigenvalues --   -0.55171  -0.55032  -0.54518  -0.54025  -0.53670
 Alpha  occ. eigenvalues --   -0.53538  -0.53156  -0.52729  -0.52445  -0.52123
 Alpha  occ. eigenvalues --   -0.51891  -0.51584  -0.51547  -0.51332  -0.50912
 Alpha  occ. eigenvalues --   -0.50634  -0.50262  -0.50228  -0.50087  -0.49842
 Alpha  occ. eigenvalues --   -0.49510  -0.49153  -0.48985  -0.48802  -0.48712
 Alpha  occ. eigenvalues --   -0.48322  -0.48216  -0.47696  -0.47430  -0.47256
 Alpha  occ. eigenvalues --   -0.47067  -0.46942  -0.46750  -0.46398  -0.46188
 Alpha  occ. eigenvalues --   -0.46074  -0.45997  -0.45826  -0.45492  -0.45372
 Alpha  occ. eigenvalues --   -0.45154  -0.44972  -0.44506  -0.44483  -0.44404
 Alpha  occ. eigenvalues --   -0.44020  -0.43742  -0.43531  -0.43331  -0.43093
 Alpha  occ. eigenvalues --   -0.42957  -0.42723  -0.42590  -0.42515  -0.42316
 Alpha  occ. eigenvalues --   -0.42106  -0.41876  -0.41674  -0.41460  -0.41423
 Alpha  occ. eigenvalues --   -0.40964  -0.40787  -0.40429  -0.40329  -0.40036
 Alpha  occ. eigenvalues --   -0.39981  -0.39275  -0.39256  -0.39068  -0.38930
 Alpha  occ. eigenvalues --   -0.38865  -0.38682  -0.38536  -0.38062  -0.38014
 Alpha  occ. eigenvalues --   -0.37857  -0.37710  -0.37433  -0.37339  -0.36724
 Alpha  occ. eigenvalues --   -0.36533  -0.36387  -0.36140  -0.35853  -0.35779
 Alpha  occ. eigenvalues --   -0.35095  -0.35062  -0.34659  -0.33670  -0.33481
 Alpha  occ. eigenvalues --   -0.32467  -0.32111  -0.32076  -0.31113  -0.30214
 Alpha  occ. eigenvalues --   -0.29311  -0.28326  -0.28085  -0.26556  -0.23881
 Alpha  occ. eigenvalues --   -0.21372
 Alpha virt. eigenvalues --   -0.05892  -0.02838   0.02287   0.04593   0.05208
 Alpha virt. eigenvalues --    0.05414   0.05830   0.06826   0.07439   0.07881
 Alpha virt. eigenvalues --    0.09298   0.10513   0.11303   0.11503   0.11593

 Mulliken charges:
               1
     1  Mg   0.815533
     2  C    0.071500
     3  C   -0.184809
     4  C   -0.130814
     5  C   -0.151166
     6  N   -0.648818
     7  C    0.229224
     8  C   -0.139226
     9  C   -0.156784
    10  C    0.347814
    11  C   -0.288582
    12  C   -0.149931
    13  C   -0.279115
    14  C    0.623224
    15  O   -0.497999
    16  O   -0.440329
    17  N   -0.743554
    18  C    0.344490
    19  C    0.019229
    20  C   -0.011757
    21  C    0.289041
    22  C   -0.387067
    23  C   -0.070704
    24  C   -0.237102
    25  N   -0.684732
    26  C    0.321056
    27  C   -0.063746
    28  C    0.053869
    29  C    0.268496
    30  C   -0.359087
    31  C   -0.233386
    32  C   -0.281227
    33  N   -0.691688
    34  C    0.249882
    35  C   -0.046168
    36  C   -0.021531
    37  C    0.283134
    38  C   -0.326403
    39  C    0.388164
    40  O   -0.407677
    41  C   -0.342416
    42  C    0.629468
    43  O   -0.451602
    44  O   -0.418422
    45  C   -0.109831
    46  C    0.009453
    47  C   -0.153483
    48  C    0.125945
    49  C   -0.365297
    50  C   -0.226708
    51  C   -0.180198
    52  C   -0.181053
    53  C   -0.078259
    54  C   -0.297087
    55  C   -0.130571
    56  C   -0.173562
    57  C   -0.185174
    58  C   -0.051246
    59  C   -0.303213
    60  C   -0.181461
    61  C   -0.158478
    62  C   -0.162241
    63  C   -0.077332
    64  C   -0.302709
    65  C   -0.308844
    66  H    0.082562
    67  H    0.090019
    68  H    0.103076
    69  H    0.128442
    70  H    0.103709
    71  H    0.093548
    72  H    0.073892
    73  H    0.139825
    74  H    0.099621
    75  H    0.111840
    76  H    0.128798
    77  H    0.138807
    78  H    0.142085
    79  H    0.138544
    80  H    0.110494
    81  H    0.094372
    82  H    0.109697
    83  H    0.087910
    84  H    0.111141
    85  H    0.105775
    86  H    0.121736
    87  H    0.107712
    88  H    0.078314
    89  H    0.113988
    90  H    0.085091
    91  H    0.110601
    92  H    0.076847
    93  H    0.153954
    94  H    0.148345
    95  H    0.154499
    96  H    0.140911
    97  H    0.122640
    98  H    0.119891
    99  H    0.118854
   100  H    0.132814
   101  H    0.095097
   102  H    0.114206
   103  H    0.122820
   104  H    0.104355
   105  H    0.089531
   106  H    0.102303
   107  H    0.111979
   108  H    0.107383
   109  H    0.088577
   110  H    0.078043
   111  H    0.061143
   112  H    0.102641
   113  H    0.101067
   114  H    0.073309
   115  H    0.089295
   116  H    0.098326
   117  H    0.103445
   118  H    0.052559
   119  H    0.089385
   120  H    0.084352
   121  H    0.091727
   122  H    0.097088
   123  H    0.111838
   124  H    0.066126
   125  H    0.081012
   126  H    0.057532
   127  H    0.105664
   128  H    0.095542
   129  H    0.052565
   130  H    0.094421
   131  H    0.076148
   132  H    0.106895
   133  H    0.110816
   134  H    0.098709
   135  H    0.101972
   136  H    0.097266
   137  H    0.107577
 Sum of Mulliken charges =   0.00000

 Dipole moment (field-independent basis, Debye):
    X=              2.9191    Y=              3.9945    Z=              0.6772  Tot=              4.9935
 Quadrupole moment (field-independent basis, Debye-Ang):
   XX=           -382.1893   YY=           -385.6397   ZZ=           -398.2472
   XY=            -17.1121   XZ=              3.6974   YZ=             -3.0288

 Normal termination of Gaussian 09 at Mon Jul  1 01:11:55 2019.
