 Gaussian 09, Revision D.01,
 Gaussian 09:  ES64L-G09RevD.01 24-Apr-2013

 -------------------------------------
 # td=(NStates=1) CAM-B3LYP/6-31G(d,p)
 -------------------------------------

 --
 TD
 --
 Symbolic Z-matrix:
 Charge =  0 Multiplicity = 1

                         Standard orientation:
 ---------------------------------------------------------------------
 Center     Atomic      Atomic             Coordinates (Angstroms)
 Number     Number       Type             X           Y           Z
 ---------------------------------------------------------------------
      1         12           0       -7.249344    0.559367    0.207448
      2          6           0       -4.883362   -1.986321    0.517007
      3          6           0       -4.761409    2.797746    1.200685
      4          6           0       -9.446184    3.051138   -0.335450
      5          6           0       -9.587708   -1.852478   -0.826555
      6          7           0       -5.071909    0.370352    0.671476
      7          6           0       -4.274471   -0.711927    0.798665
      8          6           0       -2.940820   -0.421350    1.122816
      9          6           0       -2.966195    1.065761    1.636209
     10          6           0       -4.303155    1.491006    1.101125
     11          6           0       -2.951123    1.159077    3.100986
     12          6           0       -1.776807   -0.725775    0.005913
     13          6           0       -0.448141   -0.450945    0.445813
     14          6           0        0.555476   -0.589009   -0.582948
     15          8           0        0.254943   -1.163130   -1.670603
     16          8           0        1.858885   -0.234949   -0.266685
     17          7           0       -7.095407    2.596993    0.306778
     18          6           0       -6.069631    3.327364    0.837757
     19          6           0       -6.453568    4.710732    0.904738
     20          6           0       -7.745629    4.862160    0.453855
     21          6           0       -8.221746    3.447794    0.120677
     22          6           0       -5.655983    5.862330    1.415916
     23          6           0       -8.645143    5.977022    0.234737
     24          6           0       -8.307318    7.286139    0.163529
     25          7           0       -9.155977    0.605128   -0.454928
     26          6           0       -9.896285    1.710642   -0.592018
     27          6           0      -11.256297    1.478218   -1.163566
     28          6           0      -11.267859    0.101004   -1.228105
     29          6           0       -9.923319   -0.420869   -0.836352
     30          6           0      -12.400352    2.439085   -1.248881
     31          6           0      -12.388697   -0.784058   -1.651035
     32          6           0      -12.332724   -1.193940   -3.167100
     33          7           0       -7.247174   -1.442038   -0.073711
     34          6           0       -8.240209   -2.273974   -0.480067
     35          6           0       -7.794800   -3.577717   -0.600666
     36          6           0       -6.523936   -3.535547   -0.115561
     37          6           0       -6.186729   -2.171676    0.125727
     38          6           0       -8.431761   -4.891604   -0.916746
     39          6           0       -5.326551   -4.402924    0.148784
     40          8           0       -5.244025   -5.568348    0.148066
     41          6           0       -4.199025   -3.340231    0.595293
     42          6           0       -3.565312   -3.669294    1.828695
     43          8           0       -3.720510   -3.080173    2.963023
     44          8           0       -2.748735   -4.697030    1.730498
     45          6           0       -1.995176   -5.105426    2.857388
     46          6           0        2.860339   -0.502287   -1.213311
     47          6           0        4.220276   -0.247853   -0.557925
     48          6           0        5.088517    0.604359   -0.950704
     49          6           0        5.104067    1.361959   -2.222968
     50          6           0        6.451617    0.677051   -0.201367
     51          6           0        7.638765    0.025023   -1.035201
     52          6           0        8.969055   -0.118776   -0.241248
     53          6           0       10.195175   -0.422476   -0.947154
     54          6           0       10.129470   -1.927895   -1.276713
     55          6           0       11.360317   -0.253345   -0.025738
     56          6           0       12.689394   -0.431575   -0.683104
     57          6           0       13.900023   -0.167235    0.352670
     58          6           0       15.267575   -0.238284   -0.459627
     59          6           0       15.668782   -1.701859   -0.815463
     60          6           0       16.394358    0.280659    0.592997
     61          6           0       17.821741    0.539169   -0.183640
     62          6           0       18.844152    1.118383    0.845352
     63          6           0       20.205063    1.278485    0.193654
     64          6           0       20.163385    2.170682   -1.074923
     65          6           0       21.289308    1.713380    1.154660
     66          1           0       -4.016135    3.611149    1.597403
     67          1           0      -10.211615    3.730892   -0.489922
     68          1           0      -10.267361   -2.523733   -1.161280
     69          1           0       -2.639745   -1.142522    2.031455
     70          1           0       -2.150027    1.738056    1.125584
     71          1           0       -2.016878    1.032348    3.722718
     72          1           0       -3.173732    2.208624    3.430856
     73          1           0       -3.470391    0.609000    3.762929
     74          1           0       -2.017021   -1.792555   -0.259594
     75          1           0       -1.847600   -0.208309   -0.960071
     76          1           0       -0.159619    0.440176    0.823740
     77          1           0       -0.157453   -1.178163    1.409440
     78          1           0       -5.120929    6.426954    0.523145
     79          1           0       -6.178892    6.565862    1.932703
     80          1           0       -4.817422    5.283741    2.052713
     81          1           0       -9.867672    5.880893    0.220198
     82          1           0       -9.163307    8.068676    0.002277
     83          1           0       -7.226642    7.553762   -0.096664
     84          1           0      -12.005877    3.168032   -1.929348
     85          1           0      -13.380052    2.096626   -1.632608
     86          1           0      -12.616439    3.022239   -0.420200
     87          1           0      -12.523700   -1.723313   -1.269243
     88          1           0      -13.232802   -0.041437   -1.672098
     89          1           0      -13.251312   -1.626919   -3.408528
     90          1           0      -12.183355   -0.332968   -3.830516
     91          1           0      -11.438309   -1.812551   -3.313381
     92          1           0       -8.972813   -4.872343   -1.950416
     93          1           0       -7.718803   -5.853085   -0.768472
     94          1           0       -9.369418   -5.056939   -0.442701
     95          1           0       -3.634728   -3.474119   -0.345881
     96          1           0       -1.117739   -4.366427    2.973293
     97          1           0       -2.645798   -5.264204    3.702860
     98          1           0       -1.495812   -6.047067    2.280559
     99          1           0        2.433577   -1.440333   -1.676065
    100          1           0        2.555575    0.137401   -1.963104
    101          1           0        4.341305   -0.830556    0.225668
    102          1           0        3.996713    1.328722   -2.860754
    103          1           0        5.332038    2.401818   -2.025180
    104          1           0        5.847862    0.896075   -2.821072
    105          1           0        6.626019    1.845299   -0.192708
    106          1           0        6.347594    0.291275    0.915614
    107          1           0        7.468044   -0.986486   -1.433762
    108          1           0        7.704744    0.514237   -2.143116
    109          1           0        9.194813    0.940108    0.247900
    110          1           0        8.685965   -0.875256    0.461686
    111          1           0       10.553798    0.296891   -1.836781
    112          1           0        9.695700   -2.109586   -2.233392
    113          1           0       11.265333   -2.589594   -1.444686
    114          1           0        9.492025   -2.430369   -0.434123
    115          1           0       11.028463    0.732456    0.155908
    116          1           0       11.081595   -0.792772    0.941759
    117          1           0       12.841976   -1.345434   -1.288536
    118          1           0       12.796508    0.473904   -1.533680
    119          1           0       13.597374    0.820360    0.595367
    120          1           0       14.061897   -0.762672    1.179287
    121          1           0       15.477344    0.504886   -1.248365
    122          1           0       15.555285   -2.508904    0.027961
    123          1           0       14.937297   -2.320915   -1.541712
    124          1           0       16.473812   -1.577056   -1.435337
    125          1           0       16.183974    1.093097    1.001150
    126          1           0       16.589079   -0.547603    1.456603
    127          1           0       18.260634   -0.296876   -0.427203
    128          1           0       17.578988    1.345428   -0.906361
    129          1           0       18.522697    2.091673    1.099745
    130          1           0       18.854848    0.497372    1.818315
    131          1           0       20.573366    0.218027   -0.124151
    132          1           0       20.379075    3.290493   -0.900549
    133          1           0       21.228034    2.055076   -1.522761
    134          1           0       19.434992    1.811684   -1.743408
    135          1           0       21.498528    1.206068    2.147436
    136          1           0       22.340953    1.659058    0.628380
    137          1           0       21.135912    2.647881    1.592927
 ---------------------------------------------------------------------

 SCF Done:  E(RCAM-B3LYP) =  -2932.58196023     A.U. after   16 cycles

 Excitation energies and oscillator strengths:

 Excited State   1:      Singlet-A      1.9760 eV  627.44 nm  f=0.2842  <S**2>=0.000
     240 -> 242       -0.10739
     240 -> 243        0.24089
     241 -> 242        0.64817
 This state for optimization and/or second-order correction.
 Total Energy, E(TD-HF/TD-KS) =  -2932.50934279
 Copying the excited state density for this state as the 1-particle RhoCI density.

 The electronic state is 1-A.
 Alpha  occ. eigenvalues --  -46.84727 -19.26403 -19.25804 -19.21681 -19.20773
 Alpha  occ. eigenvalues --  -19.19465 -14.41699 -14.39985 -14.39779 -14.38759
 Alpha  occ. eigenvalues --  -10.39482 -10.38961 -10.35805 -10.32803 -10.30766
 Alpha  occ. eigenvalues --  -10.30583 -10.30556 -10.30348 -10.29465 -10.29188
 Alpha  occ. eigenvalues --  -10.29116 -10.28892 -10.28855 -10.28694 -10.28622
 Alpha  occ. eigenvalues --  -10.28124 -10.28085 -10.27835 -10.27780 -10.27772
 Alpha  occ. eigenvalues --  -10.27732 -10.27428 -10.27348 -10.27343 -10.27170
 Alpha  occ. eigenvalues --  -10.27132 -10.27041 -10.26988 -10.26957 -10.26854
 Alpha  occ. eigenvalues --  -10.26827 -10.26759 -10.26743 -10.26606 -10.26587
 Alpha  occ. eigenvalues --  -10.26531 -10.26428 -10.26397 -10.26316 -10.26237
 Alpha  occ. eigenvalues --  -10.25914 -10.25809 -10.25718 -10.25421 -10.25318
 Alpha  occ. eigenvalues --  -10.24756 -10.24705 -10.24652 -10.24601 -10.24573
 Alpha  occ. eigenvalues --  -10.24452 -10.24277 -10.24265 -10.24250 -10.24230
 Alpha  occ. eigenvalues --   -3.13714  -1.88419  -1.87967  -1.87875  -1.18788
 Alpha  occ. eigenvalues --   -1.17092  -1.14660  -1.07685  -1.05947  -1.05399
 Alpha  occ. eigenvalues --   -1.04059  -1.03568  -1.01801  -0.92617  -0.92580
 Alpha  occ. eigenvalues --   -0.91495  -0.90745  -0.89462  -0.88795  -0.88755
 Alpha  occ. eigenvalues --   -0.88510  -0.87851  -0.87524  -0.87485  -0.86133
 Alpha  occ. eigenvalues --   -0.84886  -0.84508  -0.84059  -0.82780  -0.82597
 Alpha  occ. eigenvalues --   -0.81677  -0.81293  -0.80077  -0.79244  -0.78311
 Alpha  occ. eigenvalues --   -0.77826  -0.76914  -0.76477  -0.76403  -0.75538
 Alpha  occ. eigenvalues --   -0.75382  -0.75215  -0.74437  -0.74097  -0.72444
 Alpha  occ. eigenvalues --   -0.72225  -0.71145  -0.69605  -0.69386  -0.68170
 Alpha  occ. eigenvalues --   -0.67238  -0.66634  -0.65340  -0.64765  -0.64400
 Alpha  occ. eigenvalues --   -0.64202  -0.63400  -0.63216  -0.62412  -0.62195
 Alpha  occ. eigenvalues --   -0.61741  -0.60949  -0.60239  -0.59928  -0.59818
 Alpha  occ. eigenvalues --   -0.58875  -0.58469  -0.58082  -0.57584  -0.56968
 Alpha  occ. eigenvalues --   -0.56597  -0.56060  -0.55532  -0.55284  -0.55031
 Alpha  occ. eigenvalues --   -0.54758  -0.54116  -0.53804  -0.53519  -0.53413
 Alpha  occ. eigenvalues --   -0.53153  -0.52656  -0.52372  -0.51959  -0.51903
 Alpha  occ. eigenvalues --   -0.51575  -0.51394  -0.51149  -0.50952  -0.50690
 Alpha  occ. eigenvalues --   -0.50461  -0.50295  -0.50026  -0.49971  -0.49618
 Alpha  occ. eigenvalues --   -0.49375  -0.49359  -0.49124  -0.48874  -0.48682
 Alpha  occ. eigenvalues --   -0.48466  -0.48240  -0.47699  -0.47539  -0.47492
 Alpha  occ. eigenvalues --   -0.47011  -0.46845  -0.46475  -0.46433  -0.45934
 Alpha  occ. eigenvalues --   -0.45616  -0.45551  -0.45320  -0.45238  -0.45080
 Alpha  occ. eigenvalues --   -0.44843  -0.44602  -0.44282  -0.44172  -0.43897
 Alpha  occ. eigenvalues --   -0.43715  -0.43560  -0.43403  -0.43151  -0.43075
 Alpha  occ. eigenvalues --   -0.42834  -0.42616  -0.42531  -0.42326  -0.42242
 Alpha  occ. eigenvalues --   -0.41686  -0.41539  -0.41363  -0.41284  -0.41103
 Alpha  occ. eigenvalues --   -0.40837  -0.40631  -0.40286  -0.40250  -0.39939
 Alpha  occ. eigenvalues --   -0.39682  -0.39513  -0.39330  -0.39143  -0.39056
 Alpha  occ. eigenvalues --   -0.38608  -0.38422  -0.37878  -0.37774  -0.37632
 Alpha  occ. eigenvalues --   -0.37363  -0.37253  -0.36847  -0.36774  -0.36432
 Alpha  occ. eigenvalues --   -0.36265  -0.36225  -0.35867  -0.35538  -0.35481
 Alpha  occ. eigenvalues --   -0.34931  -0.34858  -0.34459  -0.33981  -0.33555
 Alpha  occ. eigenvalues --   -0.32624  -0.32084  -0.31628  -0.30917  -0.30535
 Alpha  occ. eigenvalues --   -0.29937  -0.29529  -0.28318  -0.27202  -0.23006
 Alpha  occ. eigenvalues --   -0.20394
 Alpha virt. eigenvalues --   -0.06140  -0.03077   0.01932   0.03875   0.04241
 Alpha virt. eigenvalues --    0.04924   0.05436   0.07013   0.07276   0.07578
 Alpha virt. eigenvalues --    0.08395   0.10792   0.10946   0.11351   0.11513

 Mulliken charges:
               1
     1  Mg   0.843393
     2  C    0.028564
     3  C   -0.209347
     4  C   -0.147297
     5  C   -0.137031
     6  N   -0.633139
     7  C    0.402737
     8  C   -0.210854
     9  C   -0.134723
    10  C    0.316439
    11  C   -0.314545
    12  C   -0.173743
    13  C   -0.226701
    14  C    0.601616
    15  O   -0.501874
    16  O   -0.495661
    17  N   -0.719719
    18  C    0.346056
    19  C   -0.020263
    20  C    0.067001
    21  C    0.269180
    22  C   -0.351769
    23  C   -0.085007
    24  C   -0.256193
    25  N   -0.690715
    26  C    0.267064
    27  C    0.028683
    28  C   -0.000886
    29  C    0.282152
    30  C   -0.379175
    31  C   -0.242379
    32  C   -0.320432
    33  N   -0.759539
    34  C    0.256888
    35  C    0.063730
    36  C   -0.050085
    37  C    0.347119
    38  C   -0.395408
    39  C    0.365720
    40  O   -0.409556
    41  C   -0.346482
    42  C    0.637467
    43  O   -0.540911
    44  O   -0.426834
    45  C   -0.074766
    46  C    0.002148
    47  C   -0.098002
    48  C    0.120068
    49  C   -0.348163
    50  C   -0.215521
    51  C   -0.182408
    52  C   -0.177539
    53  C   -0.053976
    54  C   -0.292784
    55  C   -0.136683
    56  C   -0.186162
    57  C   -0.158508
    58  C   -0.083207
    59  C   -0.295899
    60  C   -0.166150
    61  C   -0.199550
    62  C   -0.172158
    63  C   -0.041829
    64  C   -0.316896
    65  C   -0.318043
    66  H    0.086301
    67  H    0.073557
    68  H    0.081467
    69  H    0.130583
    70  H    0.105083
    71  H    0.095179
    72  H    0.097926
    73  H    0.145655
    74  H    0.122005
    75  H    0.126007
    76  H    0.142485
    77  H    0.118420
    78  H    0.106670
    79  H    0.140259
    80  H    0.086271
    81  H    0.090170
    82  H    0.098033
    83  H    0.102731
    84  H    0.126876
    85  H    0.119822
    86  H    0.136573
    87  H    0.114328
    88  H    0.092372
    89  H    0.110608
    90  H    0.104844
    91  H    0.103260
    92  H    0.100764
    93  H    0.147116
    94  H    0.131266
    95  H    0.176977
    96  H    0.116999
    97  H    0.152795
    98  H    0.117593
    99  H    0.127918
   100  H    0.113404
   101  H    0.082968
   102  H    0.083404
   103  H    0.120004
   104  H    0.138281
   105  H    0.089357
   106  H    0.095427
   107  H    0.104920
   108  H    0.073170
   109  H    0.070803
   110  H    0.111102
   111  H    0.075424
   112  H    0.111892
   113  H    0.053581
   114  H    0.089402
   115  H    0.088666
   116  H    0.079417
   117  H    0.103788
   118  H    0.058233
   119  H    0.101001
   120  H    0.102458
   121  H    0.086440
   122  H    0.102932
   123  H    0.065822
   124  H    0.121553
   125  H    0.097170
   126  H    0.058632
   127  H    0.111536
   128  H    0.097191
   129  H    0.091615
   130  H    0.081482
   131  H    0.073088
   132  H    0.102504
   133  H    0.087937
   134  H    0.119259
   135  H    0.091551
   136  H    0.081637
   137  H    0.106527
 Sum of Mulliken charges =   0.00000

 Dipole moment (field-independent basis, Debye):
    X=              1.7514    Y=              3.9281    Z=              0.2557  Tot=              4.3085
 Quadrupole moment (field-independent basis, Debye-Ang):
   XX=           -341.8681   YY=           -393.0600   ZZ=           -401.4414
   XY=            -15.0174   XZ=             10.2527   YZ=             -2.7307

 Normal termination of Gaussian 09 at Sun Jun 30 09:38:48 2019.
