 Gaussian 09, Revision D.01,
 Gaussian 09:  ES64L-G09RevD.01 24-Apr-2013

 -------------------------------------
 # td=(NStates=1) CAM-B3LYP/6-31G(d,p)
 -------------------------------------

 --
 TD
 --
 Symbolic Z-matrix:
 Charge =  0 Multiplicity = 1

                         Standard orientation:
 ---------------------------------------------------------------------
 Center     Atomic      Atomic             Coordinates (Angstroms)
 Number     Number       Type             X           Y           Z
 ---------------------------------------------------------------------
      1         12           0       -7.084530    0.632858    0.093449
      2          6           0       -4.783407   -1.874928    0.558196
      3          6           0       -4.799558    2.967523    1.153522
      4          6           0       -9.379979    2.948280   -0.309916
      5          6           0       -9.525945   -1.742063   -0.853279
      6          7           0       -5.070418    0.533569    0.677566
      7          6           0       -4.361220   -0.668418    0.807353
      8          6           0       -2.992307   -0.307059    1.193952
      9          6           0       -2.952027    1.118523    1.571725
     10          6           0       -4.414284    1.591049    1.093687
     11          6           0       -2.737303    1.296750    3.152080
     12          6           0       -2.042947   -0.542657    0.140716
     13          6           0       -0.457271   -0.377651    0.519682
     14          6           0        0.501938   -0.699354   -0.627735
     15          8           0        0.191218   -1.093098   -1.739356
     16          8           0        1.743282   -0.461280   -0.335468
     17          7           0       -7.128505    2.581314    0.397603
     18          6           0       -6.109187    3.389664    0.775981
     19          6           0       -6.636555    4.805607    0.988259
     20          6           0       -7.883997    4.789280    0.514346
     21          6           0       -8.232968    3.443447    0.082302
     22          6           0       -5.675530    5.882782    1.444370
     23          6           0       -8.757457    6.066889    0.310052
     24          6           0       -8.164653    7.231309    0.088636
     25          7           0       -9.133130    0.546435   -0.554317
     26          6           0       -9.853916    1.704803   -0.625869
     27          6           0      -11.093515    1.339983   -1.193175
     28          6           0      -11.160352    0.005527   -1.316543
     29          6           0       -9.783771   -0.440960   -0.937904
     30          6           0      -12.305288    2.344200   -1.492122
     31          6           0      -12.345075   -0.784485   -1.749970
     32          6           0      -12.249437   -1.054881   -3.282773
     33          7           0       -7.226929   -1.335468   -0.189198
     34          6           0       -8.235842   -2.252254   -0.522617
     35          6           0       -7.846115   -3.644470   -0.526150
     36          6           0       -6.485201   -3.528492   -0.066143
     37          6           0       -6.115657   -2.182174    0.046489
     38          6           0       -8.643113   -4.841367   -0.712997
     39          6           0       -5.237534   -4.321307    0.226825
     40          8           0       -5.053588   -5.569602    0.179144
     41          6           0       -4.147452   -3.238503    0.690644
     42          6           0       -3.467018   -3.519871    1.963892
     43          8           0       -3.682347   -2.959776    3.009522
     44          8           0       -2.732893   -4.645079    1.904503
     45          6           0       -2.082701   -5.206176    3.041468
     46          6           0        2.715708   -0.671122   -1.331562
     47          6           0        4.064878   -0.530506   -0.577552
     48          6           0        5.137538    0.210232   -1.039251
     49          6           0        5.135770    0.844914   -2.393649
     50          6           0        6.354499    0.348582   -0.277813
     51          6           0        7.660849   -0.296824   -0.859736
     52          6           0        8.941153   -0.087614   -0.048557
     53          6           0       10.221289   -0.567665   -0.825327
     54          6           0       10.177092   -1.980384   -1.091316
     55          6           0       11.524734   -0.051131   -0.027532
     56          6           0       12.753652   -0.432438   -0.717329
     57          6           0       13.945338   -0.091133    0.259768
     58          6           0       15.273287   -0.219600   -0.510807
     59          6           0       15.655804   -1.662364   -0.978997
     60          6           0       16.269658    0.406291    0.442459
     61          6           0       17.719856    0.641287   -0.141014
     62          6           0       18.862391    1.236743    0.721181
     63          6           0       20.178833    1.383101    0.316421
     64          6           0       20.273610    2.117749   -1.082851
     65          6           0       21.103132    2.006012    1.216260
     66          1           0       -4.097621    3.571384    1.774593
     67          1           0      -10.263598    3.779502   -0.450787
     68          1           0      -10.397606   -2.418878   -1.094292
     69          1           0       -2.777430   -1.076096    1.942605
     70          1           0       -2.310999    1.933583    1.018882
     71          1           0       -1.710372    0.927071    3.435011
     72          1           0       -2.856359    2.483188    3.296935
     73          1           0       -3.406965    0.640520    3.795104
     74          1           0       -2.234884   -1.641362   -0.229718
     75          1           0       -2.282356    0.199517   -0.716600
     76          1           0       -0.422256    0.803684    0.920480
     77          1           0       -0.181334   -1.084883    1.178959
     78          1           0       -5.075844    6.355467    0.732452
     79          1           0       -6.171597    6.553159    2.105101
     80          1           0       -4.933942    5.238819    2.110612
     81          1           0       -9.850896    5.729104    0.599263
     82          1           0       -8.925423    8.054993    0.151132
     83          1           0       -7.294436    7.306364   -0.397137
     84          1           0      -11.852453    2.996523   -2.509036
     85          1           0      -13.158905    1.791493   -2.032583
     86          1           0      -12.362877    3.138871   -0.617991
     87          1           0      -12.335277   -1.855741   -1.100926
     88          1           0      -13.471812   -0.558089   -1.448000
     89          1           0      -12.953051   -1.787119   -3.730097
     90          1           0      -12.115848   -0.229819   -3.818155
     91          1           0      -11.224616   -1.354331   -3.551072
     92          1           0       -9.109674   -4.938747   -1.703229
     93          1           0       -8.073128   -5.636221   -0.449409
     94          1           0       -9.543827   -4.699966    0.127220
     95          1           0       -3.427406   -3.461260   -0.228961
     96          1           0       -1.242357   -4.456328    3.665807
     97          1           0       -3.015468   -5.529826    3.630004
     98          1           0       -1.741229   -6.115310    2.516592
     99          1           0        2.521937   -1.519124   -1.716184
    100          1           0        2.829729    0.021454   -2.274494
    101          1           0        4.038577   -0.990879    0.397036
    102          1           0        4.084008    0.715114   -2.756769
    103          1           0        5.442947    1.822577   -2.219777
    104          1           0        5.901608    0.403194   -3.150526
    105          1           0        6.316967    1.416025   -0.033940
    106          1           0        6.328834   -0.154666    0.635168
    107          1           0        7.517480   -1.468756   -0.937028
    108          1           0        7.780066    0.140145   -1.849728
    109          1           0        9.184808    1.066879    0.265895
    110          1           0        8.839457   -0.637235    0.878056
    111          1           0       10.415869   -0.075590   -1.733037
    112          1           0        9.191515   -2.295305   -1.689196
    113          1           0       10.932961   -2.320358   -1.838835
    114          1           0       10.211637   -2.527237   -0.159093
    115          1           0       11.568015    0.854837    0.306376
    116          1           0       11.450317   -0.529822    0.800788
    117          1           0       12.967352   -1.510566   -1.091229
    118          1           0       13.026377    0.223534   -1.642737
    119          1           0       13.777109    0.853802    0.656719
    120          1           0       13.806191   -0.949794    1.101027
    121          1           0       15.360337    0.276313   -1.462875
    122          1           0       15.376609   -2.431581   -0.242447
    123          1           0       14.826373   -2.035664   -1.660829
    124          1           0       16.572264   -1.728778   -1.382209
    125          1           0       16.022333    1.423848    0.888287
    126          1           0       16.370320   -0.362627    1.294860
    127          1           0       17.948593   -0.363218   -0.545583
    128          1           0       17.442585    1.300328   -1.010144
    129          1           0       18.559272    2.228610    0.834156
    130          1           0       18.792053    0.832256    1.702045
    131          1           0       20.630836    0.426487    0.104746
    132          1           0       19.626177    3.124365   -1.145127
    133          1           0       21.290994    2.160217   -1.291159
    134          1           0       19.657492    1.429300   -1.992339
    135          1           0       20.966444    1.557881    2.188283
    136          1           0       22.292898    1.855005    0.760344
    137          1           0       21.079801    3.249158    1.300314
 ---------------------------------------------------------------------

 SCF Done:  E(RCAM-B3LYP) =  -2932.53645672     A.U. after   17 cycles

 Excitation energies and oscillator strengths:

 Excited State   1:      Singlet-A      2.1837 eV  567.76 nm  f=0.2871  <S**2>=0.000
     240 -> 243       -0.21674
     241 -> 242        0.66634
 This state for optimization and/or second-order correction.
 Total Energy, E(TD-HF/TD-KS) =  -2932.45620599
 Copying the excited state density for this state as the 1-particle RhoCI density.

 The electronic state is 1-A.
 Alpha  occ. eigenvalues --  -46.83878 -19.26496 -19.25421 -19.20615 -19.20137
 Alpha  occ. eigenvalues --  -19.19522 -14.41361 -14.39855 -14.39411 -14.38761
 Alpha  occ. eigenvalues --  -10.39017 -10.38604 -10.35953 -10.33370 -10.31734
 Alpha  occ. eigenvalues --  -10.31367 -10.30824 -10.29743 -10.29596 -10.29490
 Alpha  occ. eigenvalues --  -10.29455 -10.29241 -10.29145 -10.28983 -10.28939
 Alpha  occ. eigenvalues --  -10.28648 -10.28540 -10.28511 -10.28034 -10.27770
 Alpha  occ. eigenvalues --  -10.27654 -10.27591 -10.27513 -10.27380 -10.27310
 Alpha  occ. eigenvalues --  -10.27252 -10.27015 -10.26981 -10.26755 -10.26596
 Alpha  occ. eigenvalues --  -10.26592 -10.26498 -10.26390 -10.26335 -10.26311
 Alpha  occ. eigenvalues --  -10.26237 -10.25905 -10.25821 -10.25794 -10.25741
 Alpha  occ. eigenvalues --  -10.25642 -10.25620 -10.25511 -10.25478 -10.25469
 Alpha  occ. eigenvalues --  -10.25317 -10.25185 -10.25105 -10.24965 -10.24831
 Alpha  occ. eigenvalues --  -10.24552 -10.24548 -10.24424 -10.23289 -10.22187
 Alpha  occ. eigenvalues --   -3.13052  -1.87751  -1.87322  -1.87213  -1.20368
 Alpha  occ. eigenvalues --   -1.18255  -1.09292  -1.08244  -1.08053  -1.06541
 Alpha  occ. eigenvalues --   -1.04600  -1.02811  -1.01352  -0.92883  -0.91959
 Alpha  occ. eigenvalues --   -0.91641  -0.90902  -0.90607  -0.89757  -0.89358
 Alpha  occ. eigenvalues --   -0.89063  -0.88381  -0.87358  -0.86833  -0.86220
 Alpha  occ. eigenvalues --   -0.85028  -0.84798  -0.83978  -0.82812  -0.82504
 Alpha  occ. eigenvalues --   -0.81765  -0.81435  -0.81284  -0.80496  -0.78620
 Alpha  occ. eigenvalues --   -0.77945  -0.76792  -0.76607  -0.76438  -0.76003
 Alpha  occ. eigenvalues --   -0.75423  -0.74674  -0.74142  -0.73309  -0.72724
 Alpha  occ. eigenvalues --   -0.71164  -0.70277  -0.70004  -0.69286  -0.67684
 Alpha  occ. eigenvalues --   -0.67092  -0.66809  -0.65727  -0.65161  -0.64912
 Alpha  occ. eigenvalues --   -0.64306  -0.63615  -0.63393  -0.62690  -0.62113
 Alpha  occ. eigenvalues --   -0.61498  -0.60667  -0.59697  -0.59478  -0.59305
 Alpha  occ. eigenvalues --   -0.58804  -0.58211  -0.57849  -0.57008  -0.56564
 Alpha  occ. eigenvalues --   -0.56214  -0.55806  -0.55651  -0.54993  -0.54756
 Alpha  occ. eigenvalues --   -0.54689  -0.54004  -0.53628  -0.53186  -0.53176
 Alpha  occ. eigenvalues --   -0.53101  -0.52968  -0.52608  -0.51897  -0.51805
 Alpha  occ. eigenvalues --   -0.51616  -0.51261  -0.51165  -0.50940  -0.50766
 Alpha  occ. eigenvalues --   -0.50567  -0.50426  -0.50215  -0.49975  -0.49899
 Alpha  occ. eigenvalues --   -0.49729  -0.49411  -0.48856  -0.48664  -0.48487
 Alpha  occ. eigenvalues --   -0.48479  -0.48189  -0.47670  -0.47483  -0.47285
 Alpha  occ. eigenvalues --   -0.47225  -0.47096  -0.46648  -0.46595  -0.45993
 Alpha  occ. eigenvalues --   -0.45859  -0.45787  -0.45320  -0.45204  -0.44884
 Alpha  occ. eigenvalues --   -0.44801  -0.44682  -0.44552  -0.44360  -0.44066
 Alpha  occ. eigenvalues --   -0.43921  -0.43870  -0.43690  -0.43511  -0.43137
 Alpha  occ. eigenvalues --   -0.43007  -0.42903  -0.42562  -0.42312  -0.42235
 Alpha  occ. eigenvalues --   -0.42043  -0.41903  -0.41644  -0.41357  -0.41091
 Alpha  occ. eigenvalues --   -0.40924  -0.40310  -0.40252  -0.39882  -0.39773
 Alpha  occ. eigenvalues --   -0.39571  -0.39323  -0.39285  -0.39163  -0.38961
 Alpha  occ. eigenvalues --   -0.38365  -0.38292  -0.37891  -0.37800  -0.37583
 Alpha  occ. eigenvalues --   -0.37462  -0.37353  -0.37008  -0.36871  -0.36718
 Alpha  occ. eigenvalues --   -0.36587  -0.35496  -0.35413  -0.35242  -0.35070
 Alpha  occ. eigenvalues --   -0.34929  -0.34762  -0.34085  -0.33583  -0.32877
 Alpha  occ. eigenvalues --   -0.32756  -0.32347  -0.31758  -0.31194  -0.29761
 Alpha  occ. eigenvalues --   -0.29559  -0.28757  -0.28641  -0.28269  -0.23912
 Alpha  occ. eigenvalues --   -0.21641
 Alpha virt. eigenvalues --   -0.06451  -0.02043   0.01559   0.03909   0.05342
 Alpha virt. eigenvalues --    0.06060   0.06264   0.06383   0.06952   0.07287
 Alpha virt. eigenvalues --    0.08557   0.10046   0.10627   0.10906   0.11713

 Mulliken charges:
               1
     1  Mg   0.812222
     2  C    0.129010
     3  C   -0.226809
     4  C   -0.221313
     5  C   -0.149822
     6  N   -0.667296
     7  C    0.303950
     8  C   -0.148875
     9  C   -0.165233
    10  C    0.347266
    11  C   -0.297600
    12  C   -0.157351
    13  C   -0.249938
    14  C    0.580789
    15  O   -0.488029
    16  O   -0.434652
    17  N   -0.710240
    18  C    0.330457
    19  C   -0.004560
    20  C   -0.008874
    21  C    0.337512
    22  C   -0.355065
    23  C   -0.049984
    24  C   -0.240446
    25  N   -0.673884
    26  C    0.304497
    27  C    0.019971
    28  C    0.006615
    29  C    0.340202
    30  C   -0.349006
    31  C   -0.244473
    32  C   -0.314393
    33  N   -0.703141
    34  C    0.237568
    35  C    0.053702
    36  C   -0.023317
    37  C    0.240503
    38  C   -0.366574
    39  C    0.365353
    40  O   -0.486417
    41  C   -0.333315
    42  C    0.624966
    43  O   -0.473308
    44  O   -0.451386
    45  C   -0.073178
    46  C    0.034778
    47  C   -0.144985
    48  C    0.103146
    49  C   -0.342084
    50  C   -0.222222
    51  C   -0.181421
    52  C   -0.169786
    53  C   -0.060609
    54  C   -0.305828
    55  C   -0.158599
    56  C   -0.188438
    57  C   -0.173554
    58  C   -0.055558
    59  C   -0.325264
    60  C   -0.173232
    61  C   -0.195573
    62  C   -0.151687
    63  C   -0.038278
    64  C   -0.286978
    65  C   -0.278294
    66  H    0.088239
    67  H    0.071121
    68  H    0.105673
    69  H    0.126352
    70  H    0.107667
    71  H    0.111143
    72  H    0.083148
    73  H    0.131660
    74  H    0.090207
    75  H    0.099857
    76  H    0.115013
    77  H    0.139065
    78  H    0.138869
    79  H    0.132864
    80  H    0.093577
    81  H    0.100640
    82  H    0.103174
    83  H    0.123267
    84  H    0.075762
    85  H    0.127829
    86  H    0.118314
    87  H    0.067509
    88  H    0.105023
    89  H    0.105635
    90  H    0.124118
    91  H    0.103821
    92  H    0.130295
    93  H    0.156686
    94  H    0.101387
    95  H    0.169544
    96  H    0.107236
    97  H    0.131916
    98  H    0.143933
    99  H    0.133150
   100  H    0.095043
   101  H    0.089319
   102  H    0.096258
   103  H    0.120425
   104  H    0.115608
   105  H    0.102322
   106  H    0.101861
   107  H    0.094845
   108  H    0.095576
   109  H    0.066412
   110  H    0.094118
   111  H    0.092847
   112  H    0.086844
   113  H    0.102189
   114  H    0.100954
   115  H    0.094710
   116  H    0.098111
   117  H    0.086825
   118  H    0.073082
   119  H    0.102716
   120  H    0.076617
   121  H    0.092153
   122  H    0.100761
   123  H    0.091937
   124  H    0.120416
   125  H    0.080891
   126  H    0.077020
   127  H    0.081073
   128  H    0.083718
   129  H    0.092552
   130  H    0.084098
   131  H    0.095049
   132  H    0.086703
   133  H    0.107629
   134  H    0.058194
   135  H    0.105124
   136  H    0.066127
   137  H    0.074543
 Sum of Mulliken charges =   0.00000

 Dipole moment (field-independent basis, Debye):
    X=              0.9999    Y=              4.7867    Z=              0.7312  Tot=              4.9444
 Quadrupole moment (field-independent basis, Debye-Ang):
   XX=           -349.6320   YY=           -390.9974   ZZ=           -400.3336
   XY=            -27.8604   XZ=             12.7808   YZ=             -2.1582

 Normal termination of Gaussian 09 at Sat Jun 29 23:54:05 2019.
