 Gaussian 09, Revision D.01,
 Gaussian 09:  ES64L-G09RevD.01 24-Apr-2013

 -------------------------------------
 # td=(NStates=1) CAM-B3LYP/6-31G(d,p)
 -------------------------------------

 --
 TD
 --
 Symbolic Z-matrix:
 Charge =  0 Multiplicity = 1

                         Standard orientation:
 ---------------------------------------------------------------------
 Center     Atomic      Atomic             Coordinates (Angstroms)
 Number     Number       Type             X           Y           Z
 ---------------------------------------------------------------------
      1         12           0       -7.165950    0.579159    0.153685
      2          6           0       -4.834418   -2.003118    0.508892
      3          6           0       -4.813406    2.706730    1.291412
      4          6           0       -9.412880    3.219339   -0.405053
      5          6           0       -9.436971   -1.688896   -0.904421
      6          7           0       -5.119054    0.334417    0.934599
      7          6           0       -4.331607   -0.789772    1.006165
      8          6           0       -2.797384   -0.463689    1.294875
      9          6           0       -3.032872    0.976237    1.790715
     10          6           0       -4.362471    1.354906    1.283325
     11          6           0       -2.883585    1.129232    3.306069
     12          6           0       -2.041929   -0.656571    0.126129
     13          6           0       -0.441755   -0.507580    0.520436
     14          6           0        0.517418   -0.674001   -0.609971
     15          8           0        0.214077   -0.774274   -1.792288
     16          8           0        1.801918   -0.519225   -0.240177
     17          7           0       -7.052220    2.630287    0.301583
     18          6           0       -5.972738    3.403513    0.790758
     19          6           0       -6.391980    4.747275    0.906319
     20          6           0       -7.711722    4.849044    0.496898
     21          6           0       -8.105855    3.526373    0.041544
     22          6           0       -5.564301    5.848542    1.422781
     23          6           0       -8.556072    6.015539    0.333789
     24          6           0       -8.132516    7.309477    0.256619
     25          7           0       -9.039736    0.601548   -0.523429
     26          6           0       -9.749066    1.850112   -0.675253
     27          6           0      -11.146084    1.511232   -1.045379
     28          6           0      -11.192999    0.133017   -1.220128
     29          6           0       -9.898213   -0.364980   -0.894033
     30          6           0      -12.216587    2.514976   -1.406299
     31          6           0      -12.320559   -0.614802   -1.810433
     32          6           0      -12.050514   -0.919447   -3.375534
     33          7           0       -7.190581   -1.425699   -0.154023
     34          6           0       -8.276117   -2.277744   -0.495053
     35          6           0       -7.848769   -3.620197   -0.485242
     36          6           0       -6.516910   -3.600034   -0.070827
     37          6           0       -6.131494   -2.259643    0.135053
     38          6           0       -8.679643   -4.842196   -1.015466
     39          6           0       -5.387835   -4.393301    0.171172
     40          8           0       -5.164378   -5.589996    0.148364
     41          6           0       -4.189497   -3.371032    0.536291
     42          6           0       -3.616783   -3.695895    1.855681
     43          8           0       -3.782598   -3.347409    2.948982
     44          8           0       -2.674051   -4.669367    1.684139
     45          6           0       -2.238176   -5.320211    2.872167
     46          6           0        2.809315   -0.796715   -1.149893
     47          6           0        4.099478   -0.445220   -0.567242
     48          6           0        5.039612    0.344824   -1.082393
     49          6           0        4.877778    1.343440   -2.278290
     50          6           0        6.370009    0.465737   -0.282558
     51          6           0        7.622757   -0.029272   -1.049702
     52          6           0        8.920092    0.017446   -0.203744
     53          6           0       10.205720   -0.337881   -1.045460
     54          6           0       10.106443   -1.824659   -1.522805
     55          6           0       11.363437   -0.223737   -0.083402
     56          6           0       12.651722   -0.419564   -0.749821
     57          6           0       13.857843   -0.073898    0.159322
     58          6           0       15.307813   -0.139029   -0.456784
     59          6           0       15.532163   -1.565046   -0.917508
     60          6           0       16.396573    0.343107    0.480968
     61          6           0       17.774656    0.604232   -0.112258
     62          6           0       18.801313    1.203046    0.755672
     63          6           0       20.181939    1.219675    0.344090
     64          6           0       20.336541    1.999198   -1.011258
     65          6           0       21.133047    1.712192    1.363437
     66          1           0       -4.026052    3.498292    1.547937
     67          1           0      -10.096540    3.938453   -0.502583
     68          1           0      -10.246295   -2.341266   -1.026470
     69          1           0       -2.608891   -1.054157    2.170115
     70          1           0       -2.250657    1.573499    1.425512
     71          1           0       -1.901513    1.036723    3.562003
     72          1           0       -3.285452    2.160724    3.827022
     73          1           0       -3.420104    0.386538    3.942005
     74          1           0       -2.118824   -1.636731   -0.276410
     75          1           0       -2.132123   -0.146682   -0.747408
     76          1           0       -0.364260    0.616593    1.044793
     77          1           0       -0.141958   -1.153873    1.339087
     78          1           0       -4.847449    6.363949    0.755805
     79          1           0       -6.214406    6.455954    1.978717
     80          1           0       -4.939892    5.324624    2.089494
     81          1           0       -9.661193    5.725423    0.343825
     82          1           0       -9.046088    7.957563    0.294043
     83          1           0       -7.171885    7.696848    0.362204
     84          1           0      -11.902382    3.010247   -2.329392
     85          1           0      -13.085002    2.129451   -1.909869
     86          1           0      -12.333379    3.262000   -0.568739
     87          1           0      -12.536430   -1.673732   -1.344196
     88          1           0      -13.199383    0.011687   -1.785442
     89          1           0      -13.072249   -1.383763   -3.552462
     90          1           0      -12.000548   -0.146283   -4.098274
     91          1           0      -10.957604   -1.291601   -3.549096
     92          1           0       -8.907424   -4.639559   -2.202952
     93          1           0       -8.141753   -5.970753   -0.982441
     94          1           0       -9.486038   -4.949562   -0.421991
     95          1           0       -3.280901   -3.517835   -0.198988
     96          1           0       -1.925604   -4.608381    3.344066
     97          1           0       -3.016650   -5.550148    3.637931
     98          1           0       -1.522823   -6.156489    2.466642
     99          1           0        2.874797   -1.868208   -1.467922
    100          1           0        2.282361   -0.284427   -2.159661
    101          1           0        4.384868   -1.063029    0.164168
    102          1           0        3.884259    1.073987   -2.628992
    103          1           0        5.012738    2.381684   -1.919800
    104          1           0        5.768201    1.268282   -2.991892
    105          1           0        6.693742    1.565601    0.106577
    106          1           0        6.287782    0.053920    0.690816
    107          1           0        7.568613   -1.053944   -1.448630
    108          1           0        7.713343    0.611596   -2.031796
    109          1           0        9.070837    1.078996    0.222679
    110          1           0        8.650746   -0.618241    0.769205
    111          1           0       10.272806    0.387938   -1.853456
    112          1           0        9.110363   -1.996612   -2.023377
    113          1           0       10.984553   -2.071407   -2.119125
    114          1           0       10.193263   -2.644715   -0.542059
    115          1           0       11.301105    0.814937    0.270385
    116          1           0       11.186953   -0.901261    0.591242
    117          1           0       12.584007   -1.427199   -1.184295
    118          1           0       12.596942    0.128142   -1.577382
    119          1           0       13.586033    0.983450    0.423202
    120          1           0       13.887513   -0.561847    1.081353
    121          1           0       15.241490    0.596087   -1.201132
    122          1           0       15.343393   -2.283617   -0.190861
    123          1           0       14.867976   -1.777718   -1.805315
    124          1           0       16.683010   -1.800344   -0.962781
    125          1           0       16.110782    1.258663    1.184447
    126          1           0       16.585707   -0.368941    1.272829
    127          1           0       18.064481   -0.431948   -0.541269
    128          1           0       17.684710    1.096626   -1.106211
    129          1           0       18.483006    2.306458    0.903623
    130          1           0       18.600244    0.923926    1.832321
    131          1           0       20.536067    0.258418   -0.005800
    132          1           0       20.071724    3.285034   -0.925650
    133          1           0       21.416747    2.015670   -1.217426
    134          1           0       19.806135    1.480409   -1.777229
    135          1           0       21.292313    1.079700    2.212162
    136          1           0       22.124155    1.552493    0.977333
    137          1           0       20.945009    2.710234    1.851534
 ---------------------------------------------------------------------

 SCF Done:  E(RCAM-B3LYP) =  -2932.67119259     A.U. after   18 cycles

 Excitation energies and oscillator strengths:

 Excited State   1:      Singlet-A      1.9907 eV  622.80 nm  f=0.2161  <S**2>=0.000
     240 -> 243        0.27040
     241 -> 242        0.64770
 This state for optimization and/or second-order correction.
 Total Energy, E(TD-HF/TD-KS) =  -2932.59803404
 Copying the excited state density for this state as the 1-particle RhoCI density.

 The electronic state is 1-A.
 Alpha  occ. eigenvalues --  -46.84265 -19.26210 -19.23226 -19.21296 -19.20529
 Alpha  occ. eigenvalues --  -19.19901 -14.42429 -14.39602 -14.39450 -14.38929
 Alpha  occ. eigenvalues --  -10.39802 -10.37640 -10.34718 -10.32297 -10.31335
 Alpha  occ. eigenvalues --  -10.31268 -10.30461 -10.30086 -10.29631 -10.29590
 Alpha  occ. eigenvalues --  -10.29082 -10.28951 -10.28776 -10.28597 -10.28572
 Alpha  occ. eigenvalues --  -10.28327 -10.28290 -10.28265 -10.27953 -10.27893
 Alpha  occ. eigenvalues --  -10.27612 -10.27495 -10.27345 -10.27116 -10.26749
 Alpha  occ. eigenvalues --  -10.26747 -10.26716 -10.26712 -10.26711 -10.26703
 Alpha  occ. eigenvalues --  -10.26660 -10.26630 -10.26614 -10.26577 -10.26559
 Alpha  occ. eigenvalues --  -10.26460 -10.26373 -10.26332 -10.26274 -10.26236
 Alpha  occ. eigenvalues --  -10.26027 -10.25889 -10.25357 -10.25257 -10.25219
 Alpha  occ. eigenvalues --  -10.25181 -10.25052 -10.25008 -10.24781 -10.24755
 Alpha  occ. eigenvalues --  -10.24719 -10.24571 -10.23872 -10.23329 -10.22608
 Alpha  occ. eigenvalues --   -3.13287  -1.87989  -1.87555  -1.87437  -1.19401
 Alpha  occ. eigenvalues --   -1.19159  -1.10548  -1.09459  -1.08877  -1.05748
 Alpha  occ. eigenvalues --   -1.03136  -1.02205  -1.01446  -0.93149  -0.91962
 Alpha  occ. eigenvalues --   -0.91655  -0.90969  -0.90299  -0.89130  -0.88781
 Alpha  occ. eigenvalues --   -0.88709  -0.88444  -0.87704  -0.86608  -0.86292
 Alpha  occ. eigenvalues --   -0.85521  -0.84368  -0.84087  -0.83237  -0.82537
 Alpha  occ. eigenvalues --   -0.81973  -0.81390  -0.80483  -0.79921  -0.78588
 Alpha  occ. eigenvalues --   -0.78074  -0.77494  -0.76061  -0.75963  -0.75683
 Alpha  occ. eigenvalues --   -0.75358  -0.74836  -0.74662  -0.73966  -0.72842
 Alpha  occ. eigenvalues --   -0.72364  -0.71516  -0.69949  -0.69759  -0.69177
 Alpha  occ. eigenvalues --   -0.67226  -0.66915  -0.66516  -0.65564  -0.65263
 Alpha  occ. eigenvalues --   -0.64072  -0.63933  -0.63214  -0.62977  -0.62521
 Alpha  occ. eigenvalues --   -0.62169  -0.61623  -0.60672  -0.60509  -0.59735
 Alpha  occ. eigenvalues --   -0.58458  -0.58405  -0.57895  -0.57345  -0.56920
 Alpha  occ. eigenvalues --   -0.56381  -0.55937  -0.55374  -0.55294  -0.54860
 Alpha  occ. eigenvalues --   -0.54389  -0.54289  -0.54028  -0.53484  -0.53335
 Alpha  occ. eigenvalues --   -0.53037  -0.52805  -0.52624  -0.52588  -0.52010
 Alpha  occ. eigenvalues --   -0.51519  -0.51394  -0.51311  -0.50644  -0.50617
 Alpha  occ. eigenvalues --   -0.50278  -0.50145  -0.49941  -0.49751  -0.49697
 Alpha  occ. eigenvalues --   -0.49618  -0.49499  -0.49276  -0.48783  -0.48533
 Alpha  occ. eigenvalues --   -0.47962  -0.47763  -0.47614  -0.47428  -0.47280
 Alpha  occ. eigenvalues --   -0.47218  -0.47128  -0.46762  -0.46191  -0.46080
 Alpha  occ. eigenvalues --   -0.45750  -0.45668  -0.45558  -0.45301  -0.45141
 Alpha  occ. eigenvalues --   -0.44929  -0.44653  -0.44565  -0.44449  -0.44056
 Alpha  occ. eigenvalues --   -0.43950  -0.43614  -0.43501  -0.43214  -0.43125
 Alpha  occ. eigenvalues --   -0.42844  -0.42810  -0.42785  -0.42623  -0.42047
 Alpha  occ. eigenvalues --   -0.41953  -0.41871  -0.41527  -0.41392  -0.41333
 Alpha  occ. eigenvalues --   -0.41166  -0.41051  -0.40999  -0.40766  -0.40365
 Alpha  occ. eigenvalues --   -0.40295  -0.40221  -0.40029  -0.39721  -0.39381
 Alpha  occ. eigenvalues --   -0.39030  -0.38636  -0.38513  -0.38321  -0.37962
 Alpha  occ. eigenvalues --   -0.37535  -0.37505  -0.37458  -0.36986  -0.36567
 Alpha  occ. eigenvalues --   -0.36229  -0.36130  -0.35763  -0.35685  -0.35598
 Alpha  occ. eigenvalues --   -0.35458  -0.34297  -0.34191  -0.33889  -0.33374
 Alpha  occ. eigenvalues --   -0.33335  -0.33230  -0.32409  -0.31066  -0.30317
 Alpha  occ. eigenvalues --   -0.29866  -0.29420  -0.28097  -0.27254  -0.23107
 Alpha  occ. eigenvalues --   -0.21596
 Alpha virt. eigenvalues --   -0.07130  -0.03737   0.00835   0.03877   0.04547
 Alpha virt. eigenvalues --    0.06052   0.06183   0.06641   0.06844   0.07424
 Alpha virt. eigenvalues --    0.08417   0.10378   0.11508   0.11751   0.12002

 Mulliken charges:
               1
     1  Mg   0.827876
     2  C    0.052807
     3  C   -0.221592
     4  C   -0.135511
     5  C   -0.175445
     6  N   -0.588414
     7  C    0.241283
     8  C   -0.140279
     9  C   -0.142150
    10  C    0.375405
    11  C   -0.318325
    12  C   -0.162176
    13  C   -0.283689
    14  C    0.612079
    15  O   -0.481556
    16  O   -0.448800
    17  N   -0.712191
    18  C    0.309523
    19  C   -0.010497
    20  C    0.032557
    21  C    0.290893
    22  C   -0.373741
    23  C   -0.090896
    24  C   -0.235652
    25  N   -0.709005
    26  C    0.269700
    27  C    0.000713
    28  C    0.049446
    29  C    0.302869
    30  C   -0.378129
    31  C   -0.252517
    32  C   -0.317869
    33  N   -0.730276
    34  C    0.274325
    35  C    0.030584
    36  C    0.049357
    37  C    0.292532
    38  C   -0.349495
    39  C    0.332901
    40  O   -0.459586
    41  C   -0.349129
    42  C    0.620925
    43  O   -0.461222
    44  O   -0.478903
    45  C   -0.056003
    46  C   -0.012108
    47  C   -0.121469
    48  C    0.116182
    49  C   -0.348057
    50  C   -0.227995
    51  C   -0.170228
    52  C   -0.169558
    53  C   -0.075490
    54  C   -0.301544
    55  C   -0.139771
    56  C   -0.186608
    57  C   -0.181682
    58  C   -0.044846
    59  C   -0.310822
    60  C   -0.190983
    61  C   -0.171643
    62  C   -0.145278
    63  C   -0.054255
    64  C   -0.288665
    65  C   -0.316268
    66  H    0.068603
    67  H    0.081517
    68  H    0.080593
    69  H    0.139336
    70  H    0.108839
    71  H    0.120301
    72  H    0.094728
    73  H    0.124393
    74  H    0.129706
    75  H    0.145189
    76  H    0.114170
    77  H    0.141426
    78  H    0.123906
    79  H    0.127781
    80  H    0.115192
    81  H    0.091834
    82  H    0.097842
    83  H    0.117491
    84  H    0.129195
    85  H    0.118146
    86  H    0.119283
    87  H    0.101428
    88  H    0.108296
    89  H    0.106119
    90  H    0.114232
    91  H    0.111002
    92  H    0.113424
    93  H    0.124341
    94  H    0.141491
    95  H    0.158586
    96  H    0.121204
    97  H    0.112262
    98  H    0.117022
    99  H    0.115368
   100  H    0.114894
   101  H    0.095960
   102  H    0.117637
   103  H    0.123383
   104  H    0.111386
   105  H    0.075536
   106  H    0.102485
   107  H    0.099372
   108  H    0.072311
   109  H    0.076652
   110  H    0.078005
   111  H    0.092958
   112  H    0.101797
   113  H    0.111253
   114  H    0.066597
   115  H    0.078416
   116  H    0.100312
   117  H    0.082029
   118  H    0.096573
   119  H    0.078228
   120  H    0.094702
   121  H    0.092727
   122  H    0.114431
   123  H    0.105321
   124  H    0.082016
   125  H    0.065622
   126  H    0.091569
   127  H    0.069765
   128  H    0.091959
   129  H    0.079776
   130  H    0.081181
   131  H    0.091889
   132  H    0.052570
   133  H    0.098958
   134  H    0.113960
   135  H    0.102483
   136  H    0.098495
   137  H    0.100909
 Sum of Mulliken charges =   0.00000

 Dipole moment (field-independent basis, Debye):
    X=              0.1377    Y=              4.5246    Z=              0.7262  Tot=              4.5846
 Quadrupole moment (field-independent basis, Debye-Ang):
   XX=           -328.4208   YY=           -399.8280   ZZ=           -397.9583
   XY=            -33.4592   XZ=             16.1254   YZ=              1.9353

 Normal termination of Gaussian 09 at Sun Jun 30 18:56:47 2019.
