 Gaussian 09, Revision D.01,
 Gaussian 09:  ES64L-G09RevD.01 24-Apr-2013

 -------------------------------------
 # td=(NStates=1) CAM-B3LYP/6-31G(d,p)
 -------------------------------------

 --
 TD
 --
 Symbolic Z-matrix:
 Charge =  0 Multiplicity = 1

                         Standard orientation:
 ---------------------------------------------------------------------
 Center     Atomic      Atomic             Coordinates (Angstroms)
 Number     Number       Type             X           Y           Z
 ---------------------------------------------------------------------
      1         12           0       -7.119676    0.573836    0.173969
      2          6           0       -4.878180   -1.899803    0.462136
      3          6           0       -4.863473    2.854858    1.199357
      4          6           0       -9.419124    3.065231   -0.272235
      5          6           0       -9.589261   -1.802653   -0.962771
      6          7           0       -5.153251    0.445664    0.682990
      7          6           0       -4.348814   -0.673326    0.729599
      8          6           0       -2.972285   -0.368662    1.238883
      9          6           0       -3.099763    1.057178    1.605567
     10          6           0       -4.406566    1.548888    1.206541
     11          6           0       -3.026220    1.245489    3.087716
     12          6           0       -1.937390   -0.594279    0.055459
     13          6           0       -0.459079   -0.425536    0.628285
     14          6           0        0.447848   -0.703794   -0.500618
     15          8           0        0.182820   -1.088441   -1.635949
     16          8           0        1.758412   -0.398299   -0.162727
     17          7           0       -7.159194    2.632360    0.427962
     18          6           0       -6.071699    3.355791    0.846036
     19          6           0       -6.473973    4.772591    0.871359
     20          6           0       -7.734809    4.834968    0.380839
     21          6           0       -8.193238    3.444786    0.109225
     22          6           0       -5.504188    5.853311    1.194490
     23          6           0       -8.651620    6.035987    0.269641
     24          6           0       -8.159551    7.225052   -0.001141
     25          7           0       -9.132402    0.688818   -0.395728
     26          6           0       -9.861829    1.743340   -0.584440
     27          6           0      -11.196458    1.406801   -1.016833
     28          6           0      -11.272786    0.140063   -1.182344
     29          6           0       -9.906870   -0.414637   -0.825798
     30          6           0      -12.190484    2.523955   -1.198357
     31          6           0      -12.394677   -0.735339   -1.551747
     32          6           0      -12.536346   -1.010146   -3.146219
     33          7           0       -7.278325   -1.410903   -0.242084
     34          6           0       -8.356067   -2.306157   -0.648899
     35          6           0       -7.877270   -3.609830   -0.595184
     36          6           0       -6.543797   -3.637017   -0.091618
     37          6           0       -6.286815   -2.197637    0.017977
     38          6           0       -8.581832   -4.832692   -1.121518
     39          6           0       -5.293208   -4.451393    0.025065
     40          8           0       -5.015098   -5.564152   -0.028203
     41          6           0       -4.153166   -3.279600    0.502175
     42          6           0       -3.613123   -3.649597    1.873602
     43          8           0       -3.865113   -3.009202    2.834861
     44          8           0       -2.789562   -4.694847    1.851677
     45          6           0       -2.255005   -5.162999    2.963281
     46          6           0        2.767899   -0.561284   -1.207092
     47          6           0        4.002709   -0.368458   -0.551434
     48          6           0        5.149204    0.288633   -1.087865
     49          6           0        5.165999    0.970478   -2.305824
     50          6           0        6.436272    0.295665   -0.144057
     51          6           0        7.623312   -0.085231   -0.949551
     52          6           0        8.848122   -0.206002    0.002011
     53          6           0       10.189121   -0.434183   -0.742057
     54          6           0       10.217870   -1.878405   -1.206049
     55          6           0       11.531566   -0.260681    0.146319
     56          6           0       12.892049   -0.503289   -0.565083
     57          6           0       13.999865   -0.103468    0.266758
     58          6           0       15.428361   -0.180878   -0.425832
     59          6           0       15.674340   -1.572500   -0.870451
     60          6           0       16.597173    0.254401    0.578571
     61          6           0       17.895114    0.437520   -0.178442
     62          6           0       18.994560    1.218880    0.683744
     63          6           0       20.323579    1.349967    0.046358
     64          6           0       20.334280    2.293482   -1.181190
     65          6           0       21.343014    1.871666    1.027953
     66          1           0       -3.998634    3.540673    1.585727
     67          1           0      -10.024771    4.015426   -0.635164
     68          1           0      -10.325060   -2.527909   -1.224452
     69          1           0       -2.823837   -1.095848    2.160517
     70          1           0       -2.379403    1.666603    1.133691
     71          1           0       -2.009628    1.171580    3.228617
     72          1           0       -3.240714    2.152028    3.593208
     73          1           0       -3.844286    0.609071    3.583856
     74          1           0       -2.054695   -1.721313   -0.030264
     75          1           0       -2.221851   -0.077245   -0.771899
     76          1           0       -0.399368    0.538215    1.260372
     77          1           0       -0.254345   -1.024528    1.403107
     78          1           0       -5.195501    6.261298    0.358631
     79          1           0       -6.096510    6.611598    1.655314
     80          1           0       -4.799003    5.566356    2.022180
     81          1           0       -9.803337    5.996788    0.448366
     82          1           0       -8.830109    8.173660   -0.483914
     83          1           0       -7.093872    7.487900   -0.044685
     84          1           0      -11.968438    3.126108   -1.870750
     85          1           0      -13.392318    2.043321   -1.261916
     86          1           0      -12.394869    2.863727   -0.222630
     87          1           0      -12.450281   -1.597078   -0.932930
     88          1           0      -13.309710   -0.163722   -1.357329
     89          1           0      -13.398396   -1.633710   -3.478137
     90          1           0      -12.889531   -0.139048   -3.963920
     91          1           0      -11.658744   -1.470891   -3.517397
     92          1           0       -8.722168   -4.800147   -2.245678
     93          1           0       -8.047863   -5.631882   -0.782279
     94          1           0       -9.621077   -4.889392   -0.718606
     95          1           0       -3.280554   -3.451571   -0.246668
     96          1           0       -1.665922   -4.467377    3.693850
     97          1           0       -3.003972   -5.808856    3.498251
     98          1           0       -1.629383   -5.973856    2.614132
     99          1           0        2.681264   -1.539607   -1.589609
    100          1           0        2.537909   -0.012457   -2.157584
    101          1           0        4.162766   -0.733057    0.266433
    102          1           0        4.029818    1.097081   -2.596939
    103          1           0        5.855370    1.993134   -2.252086
    104          1           0        5.676096    0.505846   -3.121390
    105          1           0        6.724146    1.241098    0.157397
    106          1           0        6.366532   -0.362643    0.706275
    107          1           0        7.616835   -1.070904   -1.407841
    108          1           0        7.840062    0.693478   -1.770743
    109          1           0        8.915617    0.754569    0.487796
    110          1           0        8.670050   -1.053261    0.939292
    111          1           0       10.299798    0.426610   -1.490909
    112          1           0        9.462224   -2.109041   -1.942065
    113          1           0       11.266863   -1.945727   -1.767319
    114          1           0       10.530768   -2.679648   -0.453844
    115          1           0       11.489997    0.826779    0.702536
    116          1           0       11.291936   -0.959615    1.116543
    117          1           0       12.790434   -1.570028   -0.845679
    118          1           0       12.961229   -0.131495   -1.529238
    119          1           0       14.060107    0.925504    0.477508
    120          1           0       13.893311   -0.846656    1.287248
    121          1           0       15.334839    0.582272   -1.237150
    122          1           0       15.754687   -2.263723   -0.032377
    123          1           0       14.876409   -1.981866   -1.454759
    124          1           0       16.569611   -1.794479   -1.491988
    125          1           0       16.175956    1.287154    1.146782
    126          1           0       16.857809   -0.563627    1.278745
    127          1           0       18.396716   -0.592203   -0.325535
    128          1           0       17.718655    0.927795   -1.138344
    129          1           0       18.575339    2.082580    0.987788
    130          1           0       18.972494    0.659125    1.705781
    131          1           0       20.839809    0.420858   -0.272816
    132          1           0       20.083782    3.310975   -0.782695
    133          1           0       21.250121    2.309272   -1.727580
    134          1           0       19.478192    2.036843   -1.842831
    135          1           0       21.244856    1.525461    2.011214
    136          1           0       22.244122    1.815514    0.561264
    137          1           0       21.138504    3.022998    1.244844
 ---------------------------------------------------------------------

 SCF Done:  E(RCAM-B3LYP) =  -2932.62455247     A.U. after   17 cycles

 Excitation energies and oscillator strengths:

 Excited State   1:      Singlet-A      2.1575 eV  574.66 nm  f=0.2320  <S**2>=0.000
     240 -> 242        0.16465
     240 -> 243       -0.21150
     241 -> 242        0.63710
     241 -> 243        0.11408
 This state for optimization and/or second-order correction.
 Total Energy, E(TD-HF/TD-KS) =  -2932.54526515
 Copying the excited state density for this state as the 1-particle RhoCI density.

 The electronic state is 1-A.
 Alpha  occ. eigenvalues --  -46.83920 -19.26025 -19.25188 -19.21300 -19.21142
 Alpha  occ. eigenvalues --  -19.20124 -14.41032 -14.39806 -14.39040 -14.38968
 Alpha  occ. eigenvalues --  -10.39526 -10.38222 -10.35547 -10.31363 -10.30900
 Alpha  occ. eigenvalues --  -10.30706 -10.30425 -10.29343 -10.29114 -10.29023
 Alpha  occ. eigenvalues --  -10.28757 -10.28722 -10.28655 -10.28053 -10.27887
 Alpha  occ. eigenvalues --  -10.27881 -10.27769 -10.27764 -10.27578 -10.27550
 Alpha  occ. eigenvalues --  -10.27525 -10.27484 -10.27306 -10.27066 -10.27062
 Alpha  occ. eigenvalues --  -10.26981 -10.26961 -10.26894 -10.26640 -10.26578
 Alpha  occ. eigenvalues --  -10.26487 -10.26481 -10.26391 -10.26387 -10.26308
 Alpha  occ. eigenvalues --  -10.26217 -10.25669 -10.25652 -10.25625 -10.25417
 Alpha  occ. eigenvalues --  -10.25387 -10.25295 -10.25233 -10.25231 -10.25218
 Alpha  occ. eigenvalues --  -10.25165 -10.25056 -10.24987 -10.24738 -10.24519
 Alpha  occ. eigenvalues --  -10.24392 -10.24372 -10.23761 -10.23600 -10.23282
 Alpha  occ. eigenvalues --   -3.12984  -1.87699  -1.87210  -1.87171  -1.20754
 Alpha  occ. eigenvalues --   -1.16528  -1.15160  -1.11239  -1.08078  -1.04481
 Alpha  occ. eigenvalues --   -1.03491  -1.03250  -1.02320  -0.91485  -0.90872
 Alpha  occ. eigenvalues --   -0.90616  -0.90341  -0.89604  -0.89593  -0.89040
 Alpha  occ. eigenvalues --   -0.88574  -0.88165  -0.87881  -0.87361  -0.86464
 Alpha  occ. eigenvalues --   -0.85685  -0.84653  -0.83876  -0.83669  -0.82774
 Alpha  occ. eigenvalues --   -0.82014  -0.81742  -0.80746  -0.80324  -0.78642
 Alpha  occ. eigenvalues --   -0.78238  -0.77444  -0.75890  -0.75601  -0.75552
 Alpha  occ. eigenvalues --   -0.74873  -0.74855  -0.73724  -0.73393  -0.72397
 Alpha  occ. eigenvalues --   -0.71951  -0.71167  -0.70338  -0.69234  -0.67209
 Alpha  occ. eigenvalues --   -0.65913  -0.65788  -0.65651  -0.64426  -0.64305
 Alpha  occ. eigenvalues --   -0.64231  -0.63723  -0.63252  -0.62538  -0.61857
 Alpha  occ. eigenvalues --   -0.61753  -0.61212  -0.60488  -0.59981  -0.59319
 Alpha  occ. eigenvalues --   -0.58827  -0.58274  -0.57457  -0.57353  -0.56693
 Alpha  occ. eigenvalues --   -0.56032  -0.55864  -0.55540  -0.55184  -0.54877
 Alpha  occ. eigenvalues --   -0.54685  -0.54313  -0.54103  -0.53857  -0.53691
 Alpha  occ. eigenvalues --   -0.53621  -0.52844  -0.52772  -0.52612  -0.52546
 Alpha  occ. eigenvalues --   -0.52046  -0.51711  -0.51181  -0.50903  -0.50664
 Alpha  occ. eigenvalues --   -0.50368  -0.50343  -0.50214  -0.49850  -0.49551
 Alpha  occ. eigenvalues --   -0.49425  -0.49319  -0.49118  -0.48881  -0.48834
 Alpha  occ. eigenvalues --   -0.48475  -0.48361  -0.48020  -0.47812  -0.47617
 Alpha  occ. eigenvalues --   -0.47305  -0.47187  -0.46786  -0.46700  -0.46560
 Alpha  occ. eigenvalues --   -0.46163  -0.45883  -0.45767  -0.45550  -0.45108
 Alpha  occ. eigenvalues --   -0.45069  -0.44884  -0.44514  -0.44371  -0.44209
 Alpha  occ. eigenvalues --   -0.43859  -0.43834  -0.43474  -0.43329  -0.42871
 Alpha  occ. eigenvalues --   -0.42776  -0.42512  -0.42368  -0.42148  -0.41922
 Alpha  occ. eigenvalues --   -0.41753  -0.41559  -0.41510  -0.41331  -0.41319
 Alpha  occ. eigenvalues --   -0.40832  -0.40752  -0.40359  -0.40315  -0.39871
 Alpha  occ. eigenvalues --   -0.39824  -0.39732  -0.39402  -0.39267  -0.38900
 Alpha  occ. eigenvalues --   -0.38679  -0.38544  -0.38153  -0.38106  -0.37981
 Alpha  occ. eigenvalues --   -0.37677  -0.37525  -0.37111  -0.36540  -0.36227
 Alpha  occ. eigenvalues --   -0.36119  -0.35820  -0.35789  -0.35573  -0.35534
 Alpha  occ. eigenvalues --   -0.35191  -0.34574  -0.34188  -0.34030  -0.33248
 Alpha  occ. eigenvalues --   -0.33136  -0.32933  -0.32801  -0.30315  -0.29687
 Alpha  occ. eigenvalues --   -0.29186  -0.28599  -0.28194  -0.27674  -0.23193
 Alpha  occ. eigenvalues --   -0.21083
 Alpha virt. eigenvalues --   -0.05841  -0.02204   0.02850   0.04423   0.04994
 Alpha virt. eigenvalues --    0.05302   0.06042   0.06893   0.07145   0.07733
 Alpha virt. eigenvalues --    0.08936   0.10939   0.11492   0.11586   0.12042

 Mulliken charges:
               1
     1  Mg   0.804833
     2  C    0.065158
     3  C   -0.228651
     4  C   -0.186684
     5  C   -0.163640
     6  N   -0.667765
     7  C    0.306540
     8  C   -0.180100
     9  C   -0.158371
    10  C    0.345557
    11  C   -0.307341
    12  C   -0.162416
    13  C   -0.279678
    14  C    0.634736
    15  O   -0.479296
    16  O   -0.509916
    17  N   -0.740381
    18  C    0.361339
    19  C    0.010089
    20  C   -0.019052
    21  C    0.346682
    22  C   -0.370886
    23  C   -0.076043
    24  C   -0.237323
    25  N   -0.659066
    26  C    0.317454
    27  C    0.018146
    28  C    0.053519
    29  C    0.219331
    30  C   -0.335400
    31  C   -0.253166
    32  C   -0.318850
    33  N   -0.720479
    34  C    0.278498
    35  C   -0.019227
    36  C   -0.025345
    37  C    0.308567
    38  C   -0.363404
    39  C    0.367171
    40  O   -0.393355
    41  C   -0.374689
    42  C    0.615970
    43  O   -0.454081
    44  O   -0.396029
    45  C   -0.095573
    46  C    0.013410
    47  C   -0.074490
    48  C    0.123825
    49  C   -0.377637
    50  C   -0.212262
    51  C   -0.183454
    52  C   -0.164046
    53  C   -0.051658
    54  C   -0.310321
    55  C   -0.176973
    56  C   -0.171251
    57  C   -0.145459
    58  C   -0.073621
    59  C   -0.313655
    60  C   -0.161091
    61  C   -0.182888
    62  C   -0.167595
    63  C   -0.060077
    64  C   -0.307526
    65  C   -0.291249
    66  H    0.081356
    67  H    0.087713
    68  H    0.102812
    69  H    0.142346
    70  H    0.114224
    71  H    0.107833
    72  H    0.112864
    73  H    0.128361
    74  H    0.119814
    75  H    0.132921
    76  H    0.129262
    77  H    0.155811
    78  H    0.145676
    79  H    0.126400
    80  H    0.114166
    81  H    0.113062
    82  H    0.084703
    83  H    0.102550
    84  H    0.128543
    85  H    0.060705
    86  H    0.136413
    87  H    0.117450
    88  H    0.107870
    89  H    0.101896
    90  H    0.082114
    91  H    0.120353
    92  H    0.124643
    93  H    0.143625
    94  H    0.108275
    95  H    0.141658
    96  H    0.107229
    97  H    0.106909
    98  H    0.118837
    99  H    0.136744
   100  H    0.117141
   101  H    0.057941
   102  H    0.101128
   103  H    0.087946
   104  H    0.137275
   105  H    0.112919
   106  H    0.104713
   107  H    0.101965
   108  H    0.083383
   109  H    0.086602
   110  H    0.055470
   111  H    0.084813
   112  H    0.110450
   113  H    0.072732
   114  H    0.113710
   115  H    0.057373
   116  H    0.068778
   117  H    0.102644
   118  H    0.100832
   119  H    0.098456
   120  H    0.058030
   121  H    0.082419
   122  H    0.103399
   123  H    0.099557
   124  H    0.095700
   125  H    0.055455
   126  H    0.098752
   127  H    0.090620
   128  H    0.092715
   129  H    0.102863
   130  H    0.070815
   131  H    0.085444
   132  H    0.095902
   133  H    0.106820
   134  H    0.096333
   135  H    0.106080
   136  H    0.104621
   137  H    0.063698
 Sum of Mulliken charges =   0.00000

 Dipole moment (field-independent basis, Debye):
    X=              1.5053    Y=              4.7885    Z=              0.2337  Tot=              5.0250
 Quadrupole moment (field-independent basis, Debye-Ang):
   XX=           -347.2810   YY=           -389.3665   ZZ=           -396.7505
   XY=            -25.7251   XZ=              0.5765   YZ=             -2.4176

 Normal termination of Gaussian 09 at Fri Jun 28 09:05:14 2019.
