 Gaussian 09, Revision D.01,
 Gaussian 09:  ES64L-G09RevD.01 24-Apr-2013

 -------------------------------------
 # td=(NStates=1) CAM-B3LYP/6-31G(d,p)
 -------------------------------------

 --
 TD
 --
 Symbolic Z-matrix:
 Charge =  0 Multiplicity = 1

                         Standard orientation:
 ---------------------------------------------------------------------
 Center     Atomic      Atomic             Coordinates (Angstroms)
 Number     Number       Type             X           Y           Z
 ---------------------------------------------------------------------
      1         12           0       -7.158492    0.532055    0.103758
      2          6           0       -4.914238   -1.963627    0.503658
      3          6           0       -4.861619    2.765725    1.220171
      4          6           0       -9.405747    3.088550   -0.249922
      5          6           0       -9.644331   -1.709438   -0.748345
      6          7           0       -5.101086    0.358818    0.693483
      7          6           0       -4.380858   -0.763546    0.852407
      8          6           0       -2.905505   -0.439761    1.239845
      9          6           0       -2.991486    1.128089    1.578783
     10          6           0       -4.431212    1.450120    1.103629
     11          6           0       -2.750277    1.388505    3.084633
     12          6           0       -1.959431   -0.714994    0.097560
     13          6           0       -0.530253   -0.520087    0.482042
     14          6           0        0.432966   -0.642828   -0.690634
     15          8           0        0.108994   -0.936966   -1.884523
     16          8           0        1.751345   -0.630915   -0.250200
     17          7           0       -7.120474    2.592940    0.322117
     18          6           0       -6.185548    3.286060    0.848099
     19          6           0       -6.444102    4.733640    0.915619
     20          6           0       -7.737167    4.879438    0.519289
     21          6           0       -8.135209    3.432109    0.138835
     22          6           0       -5.488772    5.912296    1.203788
     23          6           0       -8.580436    6.034809    0.321877
     24          6           0       -8.140127    7.186277   -0.019241
     25          7           0       -9.167360    0.682058   -0.562654
     26          6           0       -9.887080    1.829775   -0.538066
     27          6           0      -11.297960    1.485032   -1.044840
     28          6           0      -11.319228    0.165842   -1.181535
     29          6           0      -10.027451   -0.437791   -0.791433
     30          6           0      -12.342481    2.524462   -1.307304
     31          6           0      -12.419800   -0.720667   -1.568738
     32          6           0      -12.323391   -0.924179   -3.174299
     33          7           0       -7.276436   -1.378544   -0.170246
     34          6           0       -8.364901   -2.213159   -0.436824
     35          6           0       -7.897136   -3.562608   -0.493358
     36          6           0       -6.530482   -3.569164   -0.117165
     37          6           0       -6.188532   -2.169323    0.070849
     38          6           0       -8.795098   -4.784887   -0.617028
     39          6           0       -5.382742   -4.380891    0.215474
     40          8           0       -5.214156   -5.574612    0.247396
     41          6           0       -4.202027   -3.322120    0.567797
     42          6           0       -3.478906   -3.564658    1.888945
     43          8           0       -3.626378   -3.005844    2.922091
     44          8           0       -2.592089   -4.598655    1.653795
     45          6           0       -1.966292   -5.262168    2.720689
     46          6           0        2.847979   -0.653086   -1.284866
     47          6           0        4.112001   -0.409515   -0.544847
     48          6           0        5.114223    0.283746   -0.993887
     49          6           0        5.155795    1.035688   -2.247906
     50          6           0        6.477829    0.374634   -0.203477
     51          6           0        7.553635   -0.187498   -1.115338
     52          6           0        8.909210   -0.177088   -0.178864
     53          6           0       10.192916   -0.671130   -0.950811
     54          6           0       10.120364   -2.188248   -1.240304
     55          6           0       11.453092   -0.198759   -0.086598
     56          6           0       12.761847   -0.429966   -0.768854
     57          6           0       14.001177    0.004692    0.048609
     58          6           0       15.421312   -0.151219   -0.567992
     59          6           0       15.757535   -1.668287   -0.984832
     60          6           0       16.492122    0.333395    0.375458
     61          6           0       17.895505    0.708282   -0.166416
     62          6           0       18.783821    1.262044    0.828462
     63          6           0       20.295767    1.397606    0.368501
     64          6           0       20.434222    2.246582   -0.816269
     65          6           0       21.148794    1.881855    1.492712
     66          1           0       -4.138070    3.482211    1.733065
     67          1           0      -10.243585    3.849609   -0.231280
     68          1           0      -10.435446   -2.703258   -0.988314
     69          1           0       -2.414031   -1.152162    1.999816
     70          1           0       -2.080697    1.545760    1.094494
     71          1           0       -1.564363    0.907476    3.356424
     72          1           0       -3.051842    2.405262    3.413241
     73          1           0       -3.575426    0.641821    3.499007
     74          1           0       -1.979734   -1.772724   -0.438698
     75          1           0       -2.185106   -0.098449   -0.783202
     76          1           0       -0.156828    0.517207    0.926667
     77          1           0       -0.261499   -1.225557    1.147120
     78          1           0       -5.160319    6.307123    0.239853
     79          1           0       -6.010546    6.571657    1.934889
     80          1           0       -4.619280    5.519554    1.887400
     81          1           0       -9.687546    5.926742    0.394384
     82          1           0       -8.881212    8.252924   -0.327068
     83          1           0       -7.006652    7.597853   -0.158722
     84          1           0      -12.179110    3.048307   -2.253097
     85          1           0      -13.329086    2.021359   -1.311931
     86          1           0      -12.224376    3.407132   -0.363688
     87          1           0      -12.643119   -1.754668   -1.195829
     88          1           0      -13.225540   -0.203596   -1.326775
     89          1           0      -13.248636   -1.477732   -3.507714
     90          1           0      -12.238981    0.068753   -3.753368
     91          1           0      -11.396609   -1.828308   -3.553194
     92          1           0       -9.144074   -4.961722   -1.641989
     93          1           0       -8.181372   -5.720187   -0.575480
     94          1           0       -9.598748   -4.925535    0.107223
     95          1           0       -3.400838   -3.478042   -0.156278
     96          1           0       -1.337738   -4.314498    2.987427
     97          1           0       -2.705073   -5.606856    3.454885
     98          1           0       -1.397566   -6.079200    2.498392
     99          1           0        2.751568   -1.756770   -1.602154
    100          1           0        2.431213    0.093437   -2.006116
    101          1           0        4.236824   -0.931851    0.377058
    102          1           0        4.083408    1.256715   -2.370415
    103          1           0        5.816755    2.227234   -2.120283
    104          1           0        5.678590    0.672800   -3.072322
    105          1           0        6.599580    1.414352    0.098576
    106          1           0        6.575471   -0.002472    0.914134
    107          1           0        7.356961   -1.290839   -1.367026
    108          1           0        7.703558    0.275718   -1.966037
    109          1           0        9.220971    0.894926    0.052903
    110          1           0        8.749270   -0.925807    0.604723
    111          1           0       10.221136   -0.116186   -1.805223
    112          1           0        9.304645   -2.250649   -1.979737
    113          1           0       11.024904   -2.589269   -1.761905
    114          1           0        9.886897   -2.929886   -0.426400
    115          1           0       11.218771    0.843965    0.118507
    116          1           0       11.363941   -0.666414    1.092659
    117          1           0       12.863736   -1.520733   -0.938636
    118          1           0       12.528592    0.305608   -1.815075
    119          1           0       13.989283    1.049827    0.179100
    120          1           0       13.800420   -0.541055    1.161666
    121          1           0       15.224830    0.430525   -1.309296
    122          1           0       15.843695   -2.310895   -0.092164
    123          1           0       14.938950   -2.172856   -1.675187
    124          1           0       16.516952   -1.778817   -1.722849
    125          1           0       15.940390    1.309337    0.752431
    126          1           0       16.603601   -0.237526    1.191628
    127          1           0       18.445560   -0.366910   -0.488048
    128          1           0       18.016715    1.236158   -1.039399
    129          1           0       18.378311    2.118944    1.181320
    130          1           0       18.938842    0.765660    1.767537
    131          1           0       20.441319    0.467206    0.054830
    132          1           0       19.960499    3.361267   -0.694665
    133          1           0       21.394771    2.224470   -1.152421
    134          1           0       19.754133    1.974680   -1.622452
    135          1           0       21.043300    1.114875    2.379554
    136          1           0       22.254512    1.965885    1.162151
    137          1           0       21.024113    2.910060    1.752476
 ---------------------------------------------------------------------

 SCF Done:  E(RCAM-B3LYP) =  -2932.57882725     A.U. after   17 cycles

 Excitation energies and oscillator strengths:

 Excited State   1:      Singlet-A      2.1000 eV  590.40 nm  f=0.3332  <S**2>=0.000
     240 -> 242       -0.11653
     240 -> 243       -0.20521
     241 -> 242        0.66010
 This state for optimization and/or second-order correction.
 Total Energy, E(TD-HF/TD-KS) =  -2932.50165327
 Copying the excited state density for this state as the 1-particle RhoCI density.

 The electronic state is 1-A.
 Alpha  occ. eigenvalues --  -46.84700 -19.25146 -19.24403 -19.21132 -19.20601
 Alpha  occ. eigenvalues --  -19.19517 -14.41771 -14.40854 -14.39718 -14.38923
 Alpha  occ. eigenvalues --  -10.39478 -10.38772 -10.34491 -10.32944 -10.31217
 Alpha  occ. eigenvalues --  -10.31040 -10.30565 -10.30474 -10.29958 -10.29821
 Alpha  occ. eigenvalues --  -10.29489 -10.28648 -10.28535 -10.28526 -10.28518
 Alpha  occ. eigenvalues --  -10.28420 -10.28407 -10.28165 -10.28060 -10.27988
 Alpha  occ. eigenvalues --  -10.27971 -10.27866 -10.27763 -10.27747 -10.27716
 Alpha  occ. eigenvalues --  -10.27641 -10.27570 -10.27414 -10.27294 -10.27200
 Alpha  occ. eigenvalues --  -10.26995 -10.26746 -10.26657 -10.26614 -10.26542
 Alpha  occ. eigenvalues --  -10.26255 -10.26175 -10.26154 -10.26144 -10.26031
 Alpha  occ. eigenvalues --  -10.25679 -10.25679 -10.25605 -10.25565 -10.25358
 Alpha  occ. eigenvalues --  -10.25354 -10.25255 -10.25175 -10.25114 -10.25058
 Alpha  occ. eigenvalues --  -10.24976 -10.24759 -10.24095 -10.23939 -10.22746
 Alpha  occ. eigenvalues --   -3.13791  -1.88490  -1.88019  -1.87982  -1.17511
 Alpha  occ. eigenvalues --   -1.14493  -1.10600  -1.10052  -1.07632  -1.05981
 Alpha  occ. eigenvalues --   -1.04526  -1.02561  -1.01507  -0.92039  -0.91787
 Alpha  occ. eigenvalues --   -0.91266  -0.90902  -0.90279  -0.89761  -0.89606
 Alpha  occ. eigenvalues --   -0.88458  -0.88228  -0.87324  -0.86154  -0.85556
 Alpha  occ. eigenvalues --   -0.84973  -0.84417  -0.83752  -0.83281  -0.82758
 Alpha  occ. eigenvalues --   -0.81521  -0.81217  -0.80306  -0.79828  -0.77874
 Alpha  occ. eigenvalues --   -0.77638  -0.76554  -0.75987  -0.75654  -0.75345
 Alpha  occ. eigenvalues --   -0.75079  -0.74995  -0.74637  -0.73173  -0.72627
 Alpha  occ. eigenvalues --   -0.70626  -0.69937  -0.69362  -0.68725  -0.67947
 Alpha  occ. eigenvalues --   -0.67496  -0.67273  -0.65745  -0.65171  -0.64421
 Alpha  occ. eigenvalues --   -0.64306  -0.63484  -0.63019  -0.62099  -0.61952
 Alpha  occ. eigenvalues --   -0.61457  -0.60604  -0.60124  -0.59721  -0.59269
 Alpha  occ. eigenvalues --   -0.58512  -0.58235  -0.57242  -0.56415  -0.56235
 Alpha  occ. eigenvalues --   -0.55914  -0.55330  -0.54990  -0.54811  -0.54463
 Alpha  occ. eigenvalues --   -0.54320  -0.53976  -0.53905  -0.53554  -0.53297
 Alpha  occ. eigenvalues --   -0.52577  -0.52376  -0.52331  -0.51930  -0.51414
 Alpha  occ. eigenvalues --   -0.51382  -0.51071  -0.50787  -0.50761  -0.50597
 Alpha  occ. eigenvalues --   -0.50379  -0.50175  -0.49985  -0.49838  -0.49463
 Alpha  occ. eigenvalues --   -0.49167  -0.49091  -0.48920  -0.48796  -0.48551
 Alpha  occ. eigenvalues --   -0.48447  -0.48263  -0.48234  -0.47822  -0.47779
 Alpha  occ. eigenvalues --   -0.46908  -0.46533  -0.46424  -0.46096  -0.45876
 Alpha  occ. eigenvalues --   -0.45726  -0.45381  -0.45163  -0.45009  -0.44929
 Alpha  occ. eigenvalues --   -0.44765  -0.44597  -0.44202  -0.44107  -0.44080
 Alpha  occ. eigenvalues --   -0.43784  -0.43721  -0.43135  -0.43107  -0.42568
 Alpha  occ. eigenvalues --   -0.42543  -0.42410  -0.42244  -0.42194  -0.42058
 Alpha  occ. eigenvalues --   -0.41750  -0.41544  -0.41437  -0.41399  -0.41214
 Alpha  occ. eigenvalues --   -0.40781  -0.40559  -0.40449  -0.40119  -0.39946
 Alpha  occ. eigenvalues --   -0.39656  -0.39208  -0.39110  -0.38708  -0.38650
 Alpha  occ. eigenvalues --   -0.38510  -0.38369  -0.38175  -0.38008  -0.37948
 Alpha  occ. eigenvalues --   -0.37513  -0.37367  -0.37215  -0.36814  -0.36593
 Alpha  occ. eigenvalues --   -0.36347  -0.36014  -0.35602  -0.35282  -0.34873
 Alpha  occ. eigenvalues --   -0.34802  -0.34478  -0.34108  -0.33762  -0.33443
 Alpha  occ. eigenvalues --   -0.33081  -0.32681  -0.32217  -0.31456  -0.30611
 Alpha  occ. eigenvalues --   -0.29484  -0.29266  -0.29109  -0.28399  -0.23500
 Alpha  occ. eigenvalues --   -0.20886
 Alpha virt. eigenvalues --   -0.06407  -0.02018   0.01955   0.04610   0.05276
 Alpha virt. eigenvalues --    0.05892   0.06169   0.06396   0.06712   0.07611
 Alpha virt. eigenvalues --    0.08511   0.09549   0.10275   0.10785   0.10945

 Mulliken charges:
               1
     1  Mg   0.825188
     2  C    0.058074
     3  C   -0.212711
     4  C   -0.187180
     5  C   -0.178346
     6  N   -0.654567
     7  C    0.323989
     8  C   -0.150835
     9  C   -0.150551
    10  C    0.355854
    11  C   -0.278580
    12  C   -0.187446
    13  C   -0.241388
    14  C    0.588834
    15  O   -0.499231
    16  O   -0.519158
    17  N   -0.657867
    18  C    0.315262
    19  C   -0.012633
    20  C    0.039309
    21  C    0.289402
    22  C   -0.360651
    23  C   -0.062482
    24  C   -0.230440
    25  N   -0.688656
    26  C    0.316344
    27  C    0.018378
    28  C    0.049494
    29  C    0.295712
    30  C   -0.359432
    31  C   -0.234779
    32  C   -0.294924
    33  N   -0.774571
    34  C    0.279140
    35  C   -0.007015
    36  C    0.027021
    37  C    0.294025
    38  C   -0.398620
    39  C    0.354364
    40  O   -0.454545
    41  C   -0.318370
    42  C    0.613311
    43  O   -0.444933
    44  O   -0.479765
    45  C   -0.062811
    46  C    0.005992
    47  C   -0.110797
    48  C    0.115835
    49  C   -0.339027
    50  C   -0.216719
    51  C   -0.180339
    52  C   -0.185535
    53  C   -0.061785
    54  C   -0.320165
    55  C   -0.158445
    56  C   -0.151985
    57  C   -0.177611
    58  C   -0.036437
    59  C   -0.324118
    60  C   -0.152675
    61  C   -0.169499
    62  C   -0.167762
    63  C   -0.042126
    64  C   -0.303565
    65  C   -0.306119
    66  H    0.083427
    67  H    0.080333
    68  H    0.097716
    69  H    0.115362
    70  H    0.110037
    71  H    0.079077
    72  H    0.111427
    73  H    0.113075
    74  H    0.114507
    75  H    0.121353
    76  H    0.117975
    77  H    0.149903
    78  H    0.142816
    79  H    0.134675
    80  H    0.098646
    81  H    0.109328
    82  H    0.068265
    83  H    0.102668
    84  H    0.138003
    85  H    0.117975
    86  H    0.079798
    87  H    0.113709
    88  H    0.107990
    89  H    0.100697
    90  H    0.110425
    91  H    0.068530
    92  H    0.119099
    93  H    0.137260
    94  H    0.130044
    95  H    0.161611
    96  H    0.103388
    97  H    0.124201
    98  H    0.133097
    99  H    0.136046
   100  H    0.139810
   101  H    0.106356
   102  H    0.112705
   103  H    0.051685
   104  H    0.143630
   105  H    0.108056
   106  H    0.083285
   107  H    0.096377
   108  H    0.108050
   109  H    0.086326
   110  H    0.105789
   111  H    0.092809
   112  H    0.099237
   113  H    0.099604
   114  H    0.102002
   115  H    0.087840
   116  H    0.043787
   117  H    0.109879
   118  H    0.045622
   119  H    0.097247
   120  H    0.054933
   121  H    0.095483
   122  H    0.105848
   123  H    0.072711
   124  H    0.112359
   125  H    0.059483
   126  H    0.107286
   127  H    0.046624
   128  H    0.103113
   129  H    0.094200
   130  H    0.079865
   131  H    0.099769
   132  H    0.068658
   133  H    0.107242
   134  H    0.096986
   135  H    0.087433
   136  H    0.082141
   137  H    0.114977
 Sum of Mulliken charges =   0.00000

 Dipole moment (field-independent basis, Debye):
    X=              0.8435    Y=              5.7345    Z=              0.0950  Tot=              5.7970
 Quadrupole moment (field-independent basis, Debye-Ang):
   XX=           -330.0292   YY=           -388.8979   ZZ=           -403.7778
   XY=            -28.5971   XZ=              0.4868   YZ=             -2.5164

 Normal termination of Gaussian 09 at Fri Jun 28 04:08:59 2019.
