 Gaussian 09, Revision D.01,
 Gaussian 09:  ES64L-G09RevD.01 24-Apr-2013

 -------------------------------------
 # td=(NStates=1) CAM-B3LYP/6-31G(d,p)
 -------------------------------------

 --
 TD
 --
 Symbolic Z-matrix:
 Charge =  0 Multiplicity = 1

                         Standard orientation:
 ---------------------------------------------------------------------
 Center     Atomic      Atomic             Coordinates (Angstroms)
 Number     Number       Type             X           Y           Z
 ---------------------------------------------------------------------
      1         12           0       -7.122773    0.565625    0.058520
      2          6           0       -4.766593   -2.041385    0.474640
      3          6           0       -4.754623    2.788666    1.106859
      4          6           0       -9.369355    3.122044   -0.202290
      5          6           0       -9.525182   -1.743150   -0.937886
      6          7           0       -5.077244    0.368430    0.746835
      7          6           0       -4.308156   -0.730057    0.800425
      8          6           0       -2.834834   -0.401519    1.094005
      9          6           0       -2.967530    1.170262    1.596621
     10          6           0       -4.355256    1.510222    1.071823
     11          6           0       -2.989842    1.091102    3.085949
     12          6           0       -2.006818   -0.520822   -0.069007
     13          6           0       -0.457532   -0.421317    0.431225
     14          6           0        0.542125   -0.722457   -0.640431
     15          8           0        0.200020   -1.162692   -1.823558
     16          8           0        1.795819   -0.403261   -0.228273
     17          7           0       -7.046804    2.605638    0.334570
     18          6           0       -6.008058    3.323509    0.825193
     19          6           0       -6.338637    4.767040    0.910533
     20          6           0       -7.750085    4.764952    0.522282
     21          6           0       -8.082654    3.424145    0.238245
     22          6           0       -5.599362    5.878257    1.427563
     23          6           0       -8.634243    5.944025    0.459471
     24          6           0       -8.343432    7.230794    0.120137
     25          7           0       -9.137702    0.632931   -0.559032
     26          6           0       -9.871338    1.819359   -0.597934
     27          6           0      -11.210111    1.460842   -1.075281
     28          6           0      -11.287136    0.175219   -1.193198
     29          6           0       -9.924372   -0.376610   -0.914960
     30          6           0      -12.252667    2.478149   -1.275527
     31          6           0      -12.402616   -0.558129   -1.751578
     32          6           0      -12.381212   -0.747586   -3.318616
     33          7           0       -7.264870   -1.437207   -0.118292
     34          6           0       -8.287570   -2.245062   -0.572121
     35          6           0       -7.764424   -3.635595   -0.546184
     36          6           0       -6.481308   -3.689898   -0.027240
     37          6           0       -6.169908   -2.245320    0.210350
     38          6           0       -8.643081   -4.894518   -0.770249
     39          6           0       -5.284854   -4.427410    0.300191
     40          8           0       -5.097438   -5.607294    0.247857
     41          6           0       -4.202564   -3.336947    0.578448
     42          6           0       -3.488624   -3.705114    1.906668
     43          8           0       -3.524163   -3.130764    2.953076
     44          8           0       -2.499495   -4.761111    1.686099
     45          6           0       -1.927371   -5.275817    2.827862
     46          6           0        2.794509   -0.566276   -1.216469
     47          6           0        4.077895   -0.423587   -0.520403
     48          6           0        5.101837    0.364534   -0.897204
     49          6           0        5.064435    1.294224   -2.148090
     50          6           0        6.379313    0.337561   -0.195701
     51          6           0        7.607325   -0.171940   -0.989338
     52          6           0        8.844402   -0.236115   -0.146893
     53          6           0       10.119890   -0.620832   -0.879124
     54          6           0       10.137662   -2.055034   -1.355550
     55          6           0       11.378542   -0.288850   -0.052381
     56          6           0       12.692298   -0.549745   -0.756154
     57          6           0       13.838294   -0.184883    0.247148
     58          6           0       15.315674   -0.232570   -0.533513
     59          6           0       15.769732   -1.729552   -0.889148
     60          6           0       16.331886    0.419908    0.449874
     61          6           0       17.725435    0.428234   -0.213914
     62          6           0       18.688700    1.344306    0.747827
     63          6           0       20.152581    1.443985    0.300974
     64          6           0       20.226831    2.215419   -1.050716
     65          6           0       21.066258    2.196316    1.274959
     66          1           0       -4.087899    3.547820    1.446278
     67          1           0       -9.839725    3.942038   -0.424815
     68          1           0      -10.276065   -2.616832   -1.146933
     69          1           0       -2.322070   -0.910642    1.768592
     70          1           0       -2.160477    1.763398    1.240978
     71          1           0       -2.019649    0.845786    3.615807
     72          1           0       -3.164482    2.085382    3.633839
     73          1           0       -3.594164    0.439176    3.647163
     74          1           0       -2.137920   -1.618725   -0.561832
     75          1           0       -1.860325    0.361314   -0.774422
     76          1           0       -0.236773    0.600380    0.599880
     77          1           0       -0.143476   -1.018853    1.367671
     78          1           0       -4.805716    6.213230    0.802120
     79          1           0       -6.281819    6.733623    1.690014
     80          1           0       -4.988914    5.785509    2.259200
     81          1           0       -9.801485    5.695798    0.809110
     82          1           0       -9.211148    8.050392    0.094839
     83          1           0       -7.361106    7.395550   -0.211368
     84          1           0      -11.787477    3.774105   -1.722412
     85          1           0      -13.111379    2.058294   -1.994683
     86          1           0      -12.704229    2.714376   -0.254403
     87          1           0      -12.530696   -1.784400   -1.434216
     88          1           0      -13.302997   -0.332609   -1.471746
     89          1           0      -13.151112   -1.591312   -3.616034
     90          1           0      -12.642074    0.229704   -3.830001
     91          1           0      -11.268608   -0.968737   -3.843354
     92          1           0       -9.343974   -4.768261   -1.673757
     93          1           0       -8.148106   -5.922744   -0.847426
     94          1           0       -9.482919   -4.861258   -0.018097
     95          1           0       -3.438854   -3.262846    0.035142
     96          1           0       -1.093684   -4.516481    3.287273
     97          1           0       -2.677730   -5.700637    3.522711
     98          1           0       -1.146715   -6.062950    2.436130
     99          1           0        2.748605   -1.591741   -1.671185
    100          1           0        2.777079    0.191057   -1.934517
    101          1           0        4.139614   -0.936960    0.262021
    102          1           0        4.073502    1.226168   -2.409930
    103          1           0        5.419647    2.294291   -2.086234
    104          1           0        5.535328    0.950400   -3.124558
    105          1           0        6.703025    1.395436    0.111125
    106          1           0        6.195768   -0.253928    0.774955
    107          1           0        7.321507   -1.249597   -1.324029
    108          1           0        7.509687    0.579374   -1.732445
    109          1           0        9.030187    0.784934    0.364747
    110          1           0        8.732035   -0.924687    0.710513
    111          1           0       10.366273    0.130981   -1.823226
    112          1           0        9.150686   -2.280938   -1.911311
    113          1           0       10.959809   -2.089880   -2.049101
    114          1           0       10.354871   -2.691527   -0.547860
    115          1           0       11.382028    0.763568    0.491040
    116          1           0       11.210149   -0.971875    0.683339
    117          1           0       12.924265   -1.564740   -1.031865
    118          1           0       12.599144    0.010411   -1.627034
    119          1           0       13.728258    0.922195    0.771370
    120          1           0       13.598322   -0.819011    1.190172
    121          1           0       15.115369    0.559721   -1.394542
    122          1           0       15.749834   -2.202209    0.241080
    123          1           0       14.923834   -2.049150   -1.530966
    124          1           0       16.671104   -1.771462   -1.359112
    125          1           0       15.886591    1.405811    0.522804
    126          1           0       16.317925    0.003719    1.476127
    127          1           0       18.365238   -0.414795   -0.570867
    128          1           0       18.015437    1.172893   -1.187043
    129          1           0       18.098695    2.470555    0.757228
    130          1           0       18.558578    0.880751    1.787481
    131          1           0       20.449070    0.530574    0.271435
    132          1           0       20.220892    3.400523   -0.836127
    133          1           0       21.209696    1.942971   -1.426814
    134          1           0       19.318990    1.912153   -1.740111
    135          1           0       20.950584    1.793198    2.248724
    136          1           0       22.127886    2.104427    1.026093
    137          1           0       20.740290    3.342879    1.351933
 ---------------------------------------------------------------------

 SCF Done:  E(RCAM-B3LYP) =  -2932.54646441     A.U. after   18 cycles

 Excitation energies and oscillator strengths:

 Excited State   1:      Singlet-A      1.9665 eV  630.47 nm  f=0.2574  <S**2>=0.000
     240 -> 243        0.24803
     241 -> 242        0.65520
 This state for optimization and/or second-order correction.
 Total Energy, E(TD-HF/TD-KS) =  -2932.47419537
 Copying the excited state density for this state as the 1-particle RhoCI density.

 The electronic state is 1-A.
 Alpha  occ. eigenvalues --  -46.85390 -19.27900 -19.24831 -19.22838 -19.21319
 Alpha  occ. eigenvalues --  -19.20851 -14.42435 -14.40220 -14.40062 -14.39569
 Alpha  occ. eigenvalues --  -10.40206 -10.40153 -10.36116 -10.32111 -10.31839
 Alpha  occ. eigenvalues --  -10.31297 -10.30485 -10.30439 -10.30245 -10.30191
 Alpha  occ. eigenvalues --  -10.30028 -10.29910 -10.29592 -10.29520 -10.28872
 Alpha  occ. eigenvalues --  -10.28567 -10.28505 -10.28354 -10.28302 -10.28047
 Alpha  occ. eigenvalues --  -10.27969 -10.27785 -10.27692 -10.27667 -10.27662
 Alpha  occ. eigenvalues --  -10.27346 -10.27328 -10.27316 -10.27060 -10.27011
 Alpha  occ. eigenvalues --  -10.26988 -10.26894 -10.26686 -10.26623 -10.26541
 Alpha  occ. eigenvalues --  -10.26390 -10.26321 -10.26084 -10.26071 -10.25866
 Alpha  occ. eigenvalues --  -10.25852 -10.25785 -10.25773 -10.25668 -10.25603
 Alpha  occ. eigenvalues --  -10.25556 -10.25531 -10.25336 -10.25069 -10.24748
 Alpha  occ. eigenvalues --  -10.24680 -10.24400 -10.24399 -10.24373 -10.24304
 Alpha  occ. eigenvalues --   -3.14265  -1.88986  -1.88498  -1.88432  -1.18401
 Alpha  occ. eigenvalues --   -1.17203  -1.13074  -1.09842  -1.05795  -1.04968
 Alpha  occ. eigenvalues --   -1.03957  -1.03837  -1.02292  -0.94588  -0.92145
 Alpha  occ. eigenvalues --   -0.91102  -0.90514  -0.89887  -0.89701  -0.89096
 Alpha  occ. eigenvalues --   -0.88643  -0.87792  -0.87570  -0.86698  -0.86443
 Alpha  occ. eigenvalues --   -0.85752  -0.84572  -0.83698  -0.83131  -0.82589
 Alpha  occ. eigenvalues --   -0.81657  -0.80525  -0.80427  -0.79411  -0.78881
 Alpha  occ. eigenvalues --   -0.78270  -0.77162  -0.76388  -0.75640  -0.74963
 Alpha  occ. eigenvalues --   -0.74748  -0.74614  -0.74036  -0.73167  -0.72563
 Alpha  occ. eigenvalues --   -0.71944  -0.70334  -0.69345  -0.69091  -0.68670
 Alpha  occ. eigenvalues --   -0.67063  -0.66492  -0.66062  -0.65447  -0.65014
 Alpha  occ. eigenvalues --   -0.64454  -0.64405  -0.62451  -0.62333  -0.62012
 Alpha  occ. eigenvalues --   -0.61493  -0.61129  -0.60761  -0.60547  -0.60177
 Alpha  occ. eigenvalues --   -0.59583  -0.58587  -0.58142  -0.57615  -0.57262
 Alpha  occ. eigenvalues --   -0.56518  -0.56237  -0.55838  -0.55178  -0.54771
 Alpha  occ. eigenvalues --   -0.54617  -0.54568  -0.53762  -0.53737  -0.53163
 Alpha  occ. eigenvalues --   -0.52701  -0.52640  -0.52454  -0.52092  -0.51783
 Alpha  occ. eigenvalues --   -0.51681  -0.51313  -0.51132  -0.51027  -0.50446
 Alpha  occ. eigenvalues --   -0.50257  -0.50218  -0.50055  -0.49879  -0.49554
 Alpha  occ. eigenvalues --   -0.49407  -0.49192  -0.48890  -0.48654  -0.48204
 Alpha  occ. eigenvalues --   -0.47926  -0.47761  -0.47680  -0.47550  -0.46959
 Alpha  occ. eigenvalues --   -0.46833  -0.46735  -0.46521  -0.46384  -0.46159
 Alpha  occ. eigenvalues --   -0.46010  -0.45854  -0.45651  -0.45565  -0.45303
 Alpha  occ. eigenvalues --   -0.45120  -0.45051  -0.44784  -0.44594  -0.44406
 Alpha  occ. eigenvalues --   -0.44292  -0.44096  -0.43939  -0.43300  -0.43289
 Alpha  occ. eigenvalues --   -0.43181  -0.43048  -0.42659  -0.42522  -0.42478
 Alpha  occ. eigenvalues --   -0.42191  -0.42113  -0.41884  -0.41562  -0.41212
 Alpha  occ. eigenvalues --   -0.41029  -0.40788  -0.40508  -0.40345  -0.40330
 Alpha  occ. eigenvalues --   -0.40027  -0.39840  -0.39772  -0.39460  -0.38860
 Alpha  occ. eigenvalues --   -0.38345  -0.38148  -0.37948  -0.37745  -0.37644
 Alpha  occ. eigenvalues --   -0.37469  -0.37089  -0.37018  -0.36764  -0.36687
 Alpha  occ. eigenvalues --   -0.36510  -0.36051  -0.35823  -0.35229  -0.35018
 Alpha  occ. eigenvalues --   -0.34856  -0.34802  -0.33802  -0.33790  -0.33525
 Alpha  occ. eigenvalues --   -0.33095  -0.32590  -0.31795  -0.31364  -0.30876
 Alpha  occ. eigenvalues --   -0.30059  -0.29666  -0.29364  -0.27005  -0.23355
 Alpha  occ. eigenvalues --   -0.21228
 Alpha virt. eigenvalues --   -0.06911  -0.03431   0.00834   0.03904   0.04437
 Alpha virt. eigenvalues --    0.04900   0.05579   0.05816   0.06409   0.06532
 Alpha virt. eigenvalues --    0.07748   0.08701   0.10637   0.10807   0.11170

 Mulliken charges:
               1
     1  Mg   0.831655
     2  C    0.024863
     3  C   -0.175465
     4  C   -0.121372
     5  C   -0.178508
     6  N   -0.639739
     7  C    0.343453
     8  C   -0.124855
     9  C   -0.149259
    10  C    0.347322
    11  C   -0.319608
    12  C   -0.162521
    13  C   -0.294994
    14  C    0.603007
    15  O   -0.513211
    16  O   -0.460720
    17  N   -0.719058
    18  C    0.280791
    19  C    0.044432
    20  C   -0.016485
    21  C    0.341633
    22  C   -0.410124
    23  C   -0.089073
    24  C   -0.253883
    25  N   -0.677834
    26  C    0.252986
    27  C    0.084649
    28  C    0.037866
    29  C    0.299693
    30  C   -0.355685
    31  C   -0.238672
    32  C   -0.292645
    33  N   -0.727825
    34  C    0.325043
    35  C   -0.022425
    36  C    0.050685
    37  C    0.237527
    38  C   -0.382063
    39  C    0.371179
    40  O   -0.429597
    41  C   -0.257968
    42  C    0.568588
    43  O   -0.422797
    44  O   -0.467699
    45  C   -0.058364
    46  C    0.020991
    47  C   -0.101506
    48  C    0.123365
    49  C   -0.374968
    50  C   -0.248499
    51  C   -0.152504
    52  C   -0.160808
    53  C   -0.066634
    54  C   -0.305902
    55  C   -0.170735
    56  C   -0.177107
    57  C   -0.188138
    58  C   -0.074900
    59  C   -0.293893
    60  C   -0.160755
    61  C   -0.186128
    62  C   -0.168503
    63  C   -0.043722
    64  C   -0.295871
    65  C   -0.304779
    66  H    0.078121
    67  H    0.073543
    68  H    0.099995
    69  H    0.118068
    70  H    0.103352
    71  H    0.096529
    72  H    0.090225
    73  H    0.143843
    74  H    0.119128
    75  H    0.116937
    76  H    0.144424
    77  H    0.132764
    78  H    0.121455
    79  H    0.124315
    80  H    0.126179
    81  H    0.078586
    82  H    0.106855
    83  H    0.112378
    84  H    0.056598
    85  H    0.105469
    86  H    0.130627
    87  H    0.059626
    88  H    0.118424
    89  H    0.094828
    90  H    0.103711
    91  H    0.091489
    92  H    0.108107
    93  H    0.145011
    94  H    0.131005
    95  H    0.157896
    96  H    0.080384
    97  H    0.125514
    98  H    0.108652
    99  H    0.136178
   100  H    0.118141
   101  H    0.073550
   102  H    0.107131
   103  H    0.125310
   104  H    0.115773
   105  H    0.087129
   106  H    0.077153
   107  H    0.087667
   108  H    0.108545
   109  H    0.077672
   110  H    0.092023
   111  H    0.043188
   112  H    0.098097
   113  H    0.111602
   114  H    0.106828
   115  H    0.077784
   116  H    0.091944
   117  H    0.105003
   118  H    0.098595
   119  H    0.057048
   120  H    0.084150
   121  H    0.083829
   122  H    0.088705
   123  H    0.101879
   124  H    0.122219
   125  H    0.107763
   126  H    0.100514
   127  H    0.102750
   128  H    0.060261
   129  H    0.050200
   130  H    0.072487
   131  H    0.099773
   132  H    0.091010
   133  H    0.106134
   134  H    0.088584
   135  H    0.102926
   136  H    0.100605
   137  H    0.083886
 Sum of Mulliken charges =   0.00000

 Dipole moment (field-independent basis, Debye):
    X=              1.3622    Y=              3.9479    Z=              0.8614  Tot=              4.2642
 Quadrupole moment (field-independent basis, Debye-Ang):
   XX=           -334.2222   YY=           -400.0548   ZZ=           -404.2350
   XY=            -20.6290   XZ=              6.3619   YZ=             -1.8324

 Normal termination of Gaussian 09 at Thu Jun 27 13:53:54 2019.
