 Gaussian 09, Revision D.01,
 Gaussian 09:  ES64L-G09RevD.01 24-Apr-2013

 -------------------------------------
 # td=(NStates=1) CAM-B3LYP/6-31G(d,p)
 -------------------------------------

 --
 TD
 --
 Symbolic Z-matrix:
 Charge =  0 Multiplicity = 1

                         Standard orientation:
 ---------------------------------------------------------------------
 Center     Atomic      Atomic             Coordinates (Angstroms)
 Number     Number       Type             X           Y           Z
 ---------------------------------------------------------------------
      1         12           0       -7.166129    0.551312    0.212809
      2          6           0       -4.846959   -1.973152    0.545529
      3          6           0       -4.873598    2.828965    1.243147
      4          6           0       -9.385987    3.086397   -0.373578
      5          6           0       -9.513686   -1.644207   -0.984564
      6          7           0       -5.185139    0.360479    0.839243
      7          6           0       -4.364379   -0.785882    0.948662
      8          6           0       -2.952255   -0.392963    1.238250
      9          6           0       -3.097467    1.101531    1.854447
     10          6           0       -4.483177    1.430879    1.285752
     11          6           0       -2.928501    1.122987    3.365596
     12          6           0       -1.861485   -0.460868   -0.002947
     13          6           0       -0.470837   -0.326669    0.574981
     14          6           0        0.546380   -0.501288   -0.546850
     15          8           0        0.329902   -0.897699   -1.689712
     16          8           0        1.826380   -0.270542   -0.207004
     17          7           0       -7.148287    2.623695    0.400322
     18          6           0       -6.090373    3.352937    0.773300
     19          6           0       -6.533325    4.815683    0.888294
     20          6           0       -7.802745    4.775839    0.463477
     21          6           0       -8.166194    3.455758    0.114940
     22          6           0       -5.562451    5.858213    1.348497
     23          6           0       -8.695735    6.013777    0.321045
     24          6           0       -8.207849    7.179602    0.046390
     25          7           0       -9.090071    0.630063   -0.534217
     26          6           0       -9.819056    1.706417   -0.629427
     27          6           0      -11.211322    1.399343   -1.070305
     28          6           0      -11.285927    0.034440   -1.273204
     29          6           0       -9.973357   -0.445337   -0.870163
     30          6           0      -12.263692    2.430922   -1.335451
     31          6           0      -12.353815   -0.768881   -1.741929
     32          6           0      -12.382265   -1.178016   -3.234829
     33          7           0       -7.257058   -1.400123   -0.165443
     34          6           0       -8.233325   -2.261231   -0.620591
     35          6           0       -7.814321   -3.590945   -0.583832
     36          6           0       -6.510093   -3.532712   -0.141508
     37          6           0       -6.233484   -2.224506    0.084130
     38          6           0       -8.538826   -4.926765   -0.967935
     39          6           0       -5.386685   -4.352025    0.096684
     40          8           0       -5.048522   -5.517754    0.091406
     41          6           0       -4.179762   -3.315607    0.562640
     42          6           0       -3.521782   -3.753210    1.930756
     43          8           0       -3.678782   -3.154480    2.981282
     44          8           0       -2.684851   -4.810192    1.732497
     45          6           0       -2.012940   -5.235455    3.002946
     46          6           0        2.804271   -0.417465   -1.163824
     47          6           0        4.101108   -0.117367   -0.581356
     48          6           0        5.121492    0.481852   -1.145139
     49          6           0        5.019019    1.052382   -2.520432
     50          6           0        6.456729    0.554575   -0.382486
     51          6           0        7.638488   -0.133458   -1.086009
     52          6           0        8.868889   -0.017129   -0.277998
     53          6           0       10.212831   -0.592974   -0.889507
     54          6           0       10.142228   -2.049707   -1.321780
     55          6           0       11.424135   -0.240262   -0.074272
     56          6           0       12.741773   -0.342604   -0.825694
     57          6           0       13.936809   -0.098777    0.128012
     58          6           0       15.314167   -0.182014   -0.423764
     59          6           0       15.550219   -1.704841   -0.811316
     60          6           0       16.387457    0.340635    0.539806
     61          6           0       17.882392    0.419679    0.063261
     62          6           0       18.813375    1.185503    0.727793
     63          6           0       20.241031    1.321760    0.281761
     64          6           0       20.439299    1.991781   -1.097835
     65          6           0       21.168616    1.890215    1.381713
     66          1           0       -4.020152    3.301343    1.539982
     67          1           0      -10.234175    3.842834   -0.601248
     68          1           0      -10.422896   -2.378897   -1.414696
     69          1           0       -2.730091   -1.114219    2.108349
     70          1           0       -2.425102    1.842802    1.358411
     71          1           0       -1.957341    0.764672    3.742338
     72          1           0       -3.236641    2.029387    3.719865
     73          1           0       -3.821622    0.363200    3.654347
     74          1           0       -1.769369   -1.451820   -0.416028
     75          1           0       -2.090824    0.365700   -0.699670
     76          1           0       -0.459536    0.667706    1.154247
     77          1           0       -0.023551   -1.164514    1.321879
     78          1           0       -4.986070    6.157735    0.380458
     79          1           0       -6.048871    6.785760    1.514996
     80          1           0       -4.832327    5.556315    2.115470
     81          1           0       -9.801443    5.729209    0.633436
     82          1           0       -8.841631    8.102445   -0.074551
     83          1           0       -7.204854    7.559577   -0.108714
     84          1           0      -11.821381    3.142114   -2.157370
     85          1           0      -13.275924    1.885501   -1.593185
     86          1           0      -12.214334    3.039505   -0.206253
     87          1           0      -12.292561   -1.607642   -0.991262
     88          1           0      -13.428306   -0.417604   -1.422463
     89          1           0      -13.315291   -1.940585   -3.178420
     90          1           0      -12.278742   -0.335376   -3.973075
     91          1           0      -11.559887   -1.892631   -3.362361
     92          1           0       -8.819936   -4.937685   -1.998477
     93          1           0       -7.830878   -5.606283   -0.851263
     94          1           0       -9.344817   -4.941802   -0.340626
     95          1           0       -3.378589   -3.339191   -0.245766
     96          1           0       -1.384504   -4.499359    3.398768
     97          1           0       -2.744298   -5.238319    3.818693
     98          1           0       -1.491376   -6.132569    2.718736
     99          1           0        2.861394   -1.516548   -1.403234
    100          1           0        2.508661    0.332832   -1.922910
    101          1           0        4.140560   -0.426514    0.586661
    102          1           0        4.120359    1.084781   -3.024927
    103          1           0        5.165968    2.171853   -2.266877
    104          1           0        5.799698    1.057570   -3.369270
    105          1           0        6.777839    1.620567   -0.214503
    106          1           0        6.074143    0.110925    0.515341
    107          1           0        7.263367   -1.208592   -1.593230
    108          1           0        7.956114    0.427767   -1.955520
    109          1           0        8.973531    1.117804   -0.112502
    110          1           0        8.597110   -0.495233    0.620118
    111          1           0       10.435444   -0.117619   -1.766153
    112          1           0        9.423226   -2.096291   -2.079293
    113          1           0       11.152231   -2.216487   -1.975521
    114          1           0       10.020841   -2.770813   -0.653679
    115          1           0       11.100518    0.738231    0.491555
    116          1           0       11.165340   -1.018728    0.765642
    117          1           0       12.878297   -1.289316   -1.195081
    118          1           0       12.712544    0.190722   -1.732110
    119          1           0       13.782690    1.057088    0.407738
    120          1           0       13.680105   -0.771890    0.925295
    121          1           0       15.201262    0.560228   -1.341379
    122          1           0       15.607638   -2.484995    0.131311
    123          1           0       14.846841   -1.999736   -1.642465
    124          1           0       16.634745   -1.944700   -1.293794
    125          1           0       16.043222    1.461480    0.917883
    126          1           0       16.358226   -0.223476    1.632496
    127          1           0       18.251539   -0.620217   -0.192290
    128          1           0       17.497567    0.822749   -1.064443
    129          1           0       18.582736    2.176808    0.927870
    130          1           0       18.935114    0.690950    1.692140
    131          1           0       20.929488    0.345585    0.125581
    132          1           0       20.075764    3.000121   -1.231676
    133          1           0       21.566443    2.017090   -1.395957
    134          1           0       20.115391    1.389164   -1.848780
    135          1           0       20.870814    1.308952    2.351095
    136          1           0       22.377134    1.898964    1.305632
    137          1           0       20.889535    2.977897    1.734203
 ---------------------------------------------------------------------

 SCF Done:  E(RCAM-B3LYP) =  -2932.64712529     A.U. after   16 cycles

 Excitation energies and oscillator strengths:

 Excited State   1:      Singlet-A      2.4769 eV  500.57 nm  f=0.1651  <S**2>=0.000
     240 -> 242       -0.44333
     240 -> 243        0.12343
     241 -> 242        0.46974
     241 -> 243        0.23451
 This state for optimization and/or second-order correction.
 Total Energy, E(TD-HF/TD-KS) =  -2932.55610175
 Copying the excited state density for this state as the 1-particle RhoCI density.

 The electronic state is 1-A.
 Alpha  occ. eigenvalues --  -46.84487 -19.25739 -19.25378 -19.20418 -19.20260
 Alpha  occ. eigenvalues --  -19.18635 -14.41664 -14.40198 -14.39699 -14.38463
 Alpha  occ. eigenvalues --  -10.39166 -10.38737 -10.33590 -10.31996 -10.31453
 Alpha  occ. eigenvalues --  -10.31123 -10.30726 -10.30254 -10.30112 -10.29662
 Alpha  occ. eigenvalues --  -10.29514 -10.28959 -10.28714 -10.28482 -10.28227
 Alpha  occ. eigenvalues --  -10.28179 -10.28050 -10.27949 -10.27907 -10.27750
 Alpha  occ. eigenvalues --  -10.27664 -10.27638 -10.27633 -10.27591 -10.27536
 Alpha  occ. eigenvalues --  -10.27431 -10.27403 -10.27319 -10.27166 -10.27165
 Alpha  occ. eigenvalues --  -10.26972 -10.26948 -10.26895 -10.26892 -10.26740
 Alpha  occ. eigenvalues --  -10.26650 -10.26522 -10.26475 -10.26180 -10.26059
 Alpha  occ. eigenvalues --  -10.25893 -10.25812 -10.25727 -10.25665 -10.25616
 Alpha  occ. eigenvalues --  -10.25598 -10.25368 -10.25217 -10.24694 -10.24324
 Alpha  occ. eigenvalues --  -10.24139 -10.23738 -10.23718 -10.23106 -10.22738
 Alpha  occ. eigenvalues --   -3.13559  -1.88264  -1.87798  -1.87743  -1.19181
 Alpha  occ. eigenvalues --   -1.16016  -1.09466  -1.08383  -1.07782  -1.05741
 Alpha  occ. eigenvalues --   -1.04338  -1.03601  -1.02490  -0.91728  -0.91211
 Alpha  occ. eigenvalues --   -0.91158  -0.90574  -0.90496  -0.90028  -0.89141
 Alpha  occ. eigenvalues --   -0.88709  -0.88351  -0.87710  -0.86465  -0.86190
 Alpha  occ. eigenvalues --   -0.85541  -0.84326  -0.83658  -0.83422  -0.82883
 Alpha  occ. eigenvalues --   -0.81957  -0.81111  -0.80566  -0.80216  -0.78954
 Alpha  occ. eigenvalues --   -0.77735  -0.77362  -0.76903  -0.75876  -0.75483
 Alpha  occ. eigenvalues --   -0.75011  -0.74815  -0.74008  -0.73496  -0.72531
 Alpha  occ. eigenvalues --   -0.71153  -0.70730  -0.70072  -0.68762  -0.68113
 Alpha  occ. eigenvalues --   -0.67350  -0.65839  -0.64957  -0.64706  -0.64384
 Alpha  occ. eigenvalues --   -0.63678  -0.63056  -0.62206  -0.61833  -0.61769
 Alpha  occ. eigenvalues --   -0.61141  -0.60892  -0.60326  -0.59866  -0.58992
 Alpha  occ. eigenvalues --   -0.58403  -0.57992  -0.57557  -0.56756  -0.56257
 Alpha  occ. eigenvalues --   -0.55785  -0.55251  -0.55010  -0.54925  -0.54383
 Alpha  occ. eigenvalues --   -0.54162  -0.53787  -0.53441  -0.53253  -0.52854
 Alpha  occ. eigenvalues --   -0.52692  -0.52557  -0.52204  -0.52032  -0.51624
 Alpha  occ. eigenvalues --   -0.51395  -0.51286  -0.50916  -0.50679  -0.50545
 Alpha  occ. eigenvalues --   -0.50369  -0.50158  -0.49976  -0.49730  -0.49596
 Alpha  occ. eigenvalues --   -0.49490  -0.49234  -0.49070  -0.48637  -0.48441
 Alpha  occ. eigenvalues --   -0.48344  -0.48232  -0.47931  -0.47445  -0.47179
 Alpha  occ. eigenvalues --   -0.46875  -0.46503  -0.46405  -0.46249  -0.46148
 Alpha  occ. eigenvalues --   -0.46015  -0.45942  -0.45676  -0.45578  -0.45232
 Alpha  occ. eigenvalues --   -0.44956  -0.44845  -0.44665  -0.44445  -0.43907
 Alpha  occ. eigenvalues --   -0.43829  -0.43631  -0.43509  -0.43395  -0.43227
 Alpha  occ. eigenvalues --   -0.42852  -0.42766  -0.42588  -0.42141  -0.41924
 Alpha  occ. eigenvalues --   -0.41768  -0.41485  -0.41337  -0.41158  -0.40905
 Alpha  occ. eigenvalues --   -0.40868  -0.40539  -0.40397  -0.40346  -0.39975
 Alpha  occ. eigenvalues --   -0.39633  -0.39607  -0.39154  -0.39139  -0.38608
 Alpha  occ. eigenvalues --   -0.38414  -0.38366  -0.38106  -0.37819  -0.37620
 Alpha  occ. eigenvalues --   -0.37603  -0.37078  -0.36975  -0.36703  -0.36393
 Alpha  occ. eigenvalues --   -0.36196  -0.35962  -0.35924  -0.35717  -0.35300
 Alpha  occ. eigenvalues --   -0.35248  -0.34964  -0.34596  -0.34033  -0.33378
 Alpha  occ. eigenvalues --   -0.33105  -0.33018  -0.32280  -0.30667  -0.29479
 Alpha  occ. eigenvalues --   -0.29268  -0.29121  -0.28293  -0.27949  -0.23356
 Alpha  occ. eigenvalues --   -0.21916
 Alpha virt. eigenvalues --   -0.05794  -0.01628   0.02631   0.04696   0.05527
 Alpha virt. eigenvalues --    0.06048   0.06621   0.06794   0.07196   0.07865
 Alpha virt. eigenvalues --    0.08418   0.09540   0.11056   0.11214   0.11790

 Mulliken charges:
               1
     1  Mg   0.818771
     2  C    0.075958
     3  C   -0.196474
     4  C   -0.228904
     5  C   -0.207013
     6  N   -0.631566
     7  C    0.275014
     8  C   -0.178202
     9  C   -0.165582
    10  C    0.328039
    11  C   -0.290710
    12  C   -0.155216
    13  C   -0.259093
    14  C    0.592005
    15  O   -0.483688
    16  O   -0.469655
    17  N   -0.713842
    18  C    0.318382
    19  C    0.035816
    20  C   -0.026777
    21  C    0.387513
    22  C   -0.374330
    23  C   -0.044500
    24  C   -0.253150
    25  N   -0.679582
    26  C    0.361168
    27  C   -0.023948
    28  C    0.128635
    29  C    0.289065
    30  C   -0.351855
    31  C   -0.295843
    32  C   -0.295887
    33  N   -0.723513
    34  C    0.206629
    35  C   -0.022586
    36  C    0.058973
    37  C    0.288047
    38  C   -0.334745
    39  C    0.322119
    40  O   -0.472541
    41  C   -0.339585
    42  C    0.626346
    43  O   -0.485318
    44  O   -0.457230
    45  C   -0.096895
    46  C    0.050084
    47  C   -0.172249
    48  C    0.147405
    49  C   -0.385087
    50  C   -0.214955
    51  C   -0.168708
    52  C   -0.175909
    53  C   -0.070739
    54  C   -0.302451
    55  C   -0.158533
    56  C   -0.200733
    57  C   -0.152869
    58  C   -0.044271
    59  C   -0.309199
    60  C   -0.151734
    61  C   -0.155644
    62  C   -0.140607
    63  C   -0.056129
    64  C   -0.309118
    65  C   -0.301577
    66  H    0.065060
    67  H    0.091019
    68  H    0.071623
    69  H    0.125485
    70  H    0.096051
    71  H    0.123632
    72  H    0.117982
    73  H    0.110735
    74  H    0.137332
    75  H    0.125146
    76  H    0.125195
    77  H    0.130239
    78  H    0.119496
    79  H    0.127662
    80  H    0.130273
    81  H    0.103188
    82  H    0.098536
    83  H    0.111920
    84  H    0.124797
    85  H    0.114149
    86  H    0.091010
    87  H    0.114976
    88  H    0.097273
    89  H    0.099479
    90  H    0.124912
    91  H    0.119779
    92  H    0.118177
    93  H    0.144982
    94  H    0.128097
    95  H    0.147062
    96  H    0.129477
    97  H    0.142360
    98  H    0.134334
    99  H    0.123595
   100  H    0.115342
   101  H    0.082620
   102  H    0.122881
   103  H    0.101177
   104  H    0.116602
   105  H    0.090978
   106  H    0.103074
   107  H    0.073586
   108  H    0.098754
   109  H    0.083378
   110  H    0.098081
   111  H    0.083227
   112  H    0.112211
   113  H    0.068488
   114  H    0.112495
   115  H    0.078049
   116  H    0.072578
   117  H    0.111194
   118  H    0.095275
   119  H    0.067648
   120  H    0.103299
   121  H    0.080883
   122  H    0.094840
   123  H    0.108117
   124  H    0.080920
   125  H    0.063626
   126  H    0.058058
   127  H    0.095256
   128  H    0.049719
   129  H    0.106866
   130  H    0.096747
   131  H    0.069075
   132  H    0.099921
   133  H    0.079536
   134  H    0.119164
   135  H    0.086646
   136  H    0.095938
   137  H    0.077489
 Sum of Mulliken charges =   0.00000

 Dipole moment (field-independent basis, Debye):
    X=             -0.4479    Y=              6.9412    Z=              0.5969  Tot=              6.9812
 Quadrupole moment (field-independent basis, Debye-Ang):
   XX=           -344.7801   YY=           -394.5705   ZZ=           -396.5705
   XY=            -38.0502   XZ=              5.6020   YZ=             -4.0081

 Normal termination of Gaussian 09 at Sun Jun 30 21:41:51 2019.
