 Gaussian 09, Revision D.01,
 Gaussian 09:  ES64L-G09RevD.01 24-Apr-2013

 -------------------------------------
 # td=(NStates=1) CAM-B3LYP/6-31G(d,p)
 -------------------------------------

 --
 TD
 --
 Symbolic Z-matrix:
 Charge =  0 Multiplicity = 1

                         Standard orientation:
 ---------------------------------------------------------------------
 Center     Atomic      Atomic             Coordinates (Angstroms)
 Number     Number       Type             X           Y           Z
 ---------------------------------------------------------------------
      1         12           0       -7.154336    0.622129    0.062003
      2          6           0       -4.888062   -1.937644    0.581904
      3          6           0       -4.735337    2.861553    1.141832
      4          6           0       -9.444571    3.105171   -0.308636
      5          6           0       -9.540465   -1.710633   -0.899073
      6          7           0       -5.080574    0.491744    0.766163
      7          6           0       -4.325497   -0.696025    0.813552
      8          6           0       -2.861449   -0.277870    1.263521
      9          6           0       -2.967354    1.122773    1.733570
     10          6           0       -4.398402    1.548670    1.156257
     11          6           0       -2.947633    1.300532    3.264964
     12          6           0       -1.947932   -0.521360    0.031719
     13          6           0       -0.487156   -0.449548    0.535759
     14          6           0        0.505276   -0.715026   -0.548045
     15          8           0        0.255608   -0.956206   -1.724832
     16          8           0        1.756778   -0.315869   -0.162989
     17          7           0       -7.157762    2.559829    0.403826
     18          6           0       -6.145253    3.312763    0.768889
     19          6           0       -6.430652    4.726378    0.775284
     20          6           0       -7.777026    4.827114    0.456453
     21          6           0       -8.217341    3.448132    0.085172
     22          6           0       -5.607334    5.904083    1.296751
     23          6           0       -8.601043    6.012802    0.389892
     24          6           0       -8.213833    7.297173    0.137809
     25          7           0       -9.102622    0.620688   -0.521916
     26          6           0       -9.800128    1.778073   -0.686919
     27          6           0      -11.172933    1.483292   -1.207431
     28          6           0      -11.305920    0.047524   -1.154586
     29          6           0       -9.943049   -0.448517   -0.906654
     30          6           0      -12.285618    2.378973   -1.501605
     31          6           0      -12.337669   -0.793106   -1.662143
     32          6           0      -12.258361   -1.121894   -3.179443
     33          7           0       -7.222093   -1.421034   -0.133272
     34          6           0       -8.370500   -2.231424   -0.482060
     35          6           0       -7.827893   -3.582283   -0.539615
     36          6           0       -6.510423   -3.496993   -0.094373
     37          6           0       -6.224557   -2.229723    0.103366
     38          6           0       -8.509695   -4.946593   -0.906496
     39          6           0       -5.264033   -4.326473    0.163914
     40          8           0       -5.096101   -5.590353    0.021621
     41          6           0       -4.153529   -3.292704    0.566966
     42          6           0       -3.549217   -3.629136    1.880899
     43          8           0       -3.732473   -3.109666    2.958222
     44          8           0       -2.703018   -4.774905    1.686556
     45          6           0       -2.081822   -5.307944    2.854259
     46          6           0        2.762954   -0.585523   -1.082616
     47          6           0        4.087523   -0.246075   -0.496325
     48          6           0        5.185806    0.489623   -1.020929
     49          6           0        4.995027    1.335942   -2.213200
     50          6           0        6.463714    0.531489   -0.266483
     51          6           0        7.644958   -0.213960   -0.963776
     52          6           0        8.907568   -0.221813   -0.200754
     53          6           0       10.180135   -0.714047   -0.825628
     54          6           0       10.053076   -2.213905   -1.098990
     55          6           0       11.419600   -0.415168    0.034651
     56          6           0       12.746536   -0.631475   -0.691774
     57          6           0       13.862634   -0.124196    0.256800
     58          6           0       15.284045   -0.178848   -0.404192
     59          6           0       15.624796   -1.590442   -0.893474
     60          6           0       16.402426    0.409550    0.533407
     61          6           0       17.803592    0.551069   -0.171137
     62          6           0       18.723765    1.392841    0.680422
     63          6           0       20.266466    1.450792    0.162512
     64          6           0       20.346612    2.100496   -1.298143
     65          6           0       21.302339    1.893560    1.243224
     66          1           0       -4.027975    3.521860    1.607189
     67          1           0      -10.281677    3.823233   -0.117371
     68          1           0      -10.314963   -2.433377   -1.200247
     69          1           0       -2.588706   -0.901579    2.183787
     70          1           0       -2.396964    1.766108    1.170358
     71          1           0       -1.797440    1.140616    3.545064
     72          1           0       -3.350283    2.241016    3.718181
     73          1           0       -3.418773    0.421457    3.808157
     74          1           0       -2.131258   -1.570684   -0.375002
     75          1           0       -2.314442    0.103321   -0.888885
     76          1           0       -0.383208    0.442132    0.871176
     77          1           0       -0.226335   -1.127705    1.340979
     78          1           0       -5.038971    6.279179    0.558592
     79          1           0       -6.480540    6.625257    1.664167
     80          1           0       -4.948218    5.547527    2.217011
     81          1           0       -9.694656    5.784869    0.533683
     82          1           0       -8.909381    8.011808    0.183560
     83          1           0       -7.046373    7.535075   -0.145120
     84          1           0      -12.044223    3.103242   -2.163405
     85          1           0      -13.170393    1.949826   -1.809521
     86          1           0      -12.399275    3.066640   -0.593272
     87          1           0      -12.270185   -1.949743   -1.239247
     88          1           0      -13.387519   -0.391405   -1.597822
     89          1           0      -12.931405   -1.833536   -3.517964
     90          1           0      -12.268510   -0.129338   -3.897820
     91          1           0      -11.192600   -1.694200   -3.434548
     92          1           0       -8.698493   -5.016942   -1.850686
     93          1           0       -7.863467   -5.728806   -0.528510
     94          1           0       -9.524493   -4.915811   -0.324598
     95          1           0       -3.388824   -3.351542   -0.217859
     96          1           0       -1.601657   -4.535180    3.245289
     97          1           0       -2.873804   -5.972804    3.413453
     98          1           0       -1.553667   -6.024275    2.437017
     99          1           0        2.522169   -1.652193   -1.367469
    100          1           0        2.591291    0.135800   -1.954887
    101          1           0        4.278238   -0.832259    0.414597
    102          1           0        4.005675    1.429835   -2.532377
    103          1           0        5.595278    2.353645   -2.138162
    104          1           0        5.580452    0.893903   -2.968977
    105          1           0        6.645172    1.540498   -0.123270
    106          1           0        6.284700   -0.046655    0.698015
    107          1           0        7.206897   -1.207684   -1.388955
    108          1           0        7.976337    0.232579   -1.839149
    109          1           0        9.091452    0.843037    0.179109
    110          1           0        8.832310   -0.695059    0.675771
    111          1           0       10.359394   -0.248999   -1.693908
    112          1           0        9.153342   -2.484661   -1.698185
    113          1           0       10.904407   -2.547535   -1.619558
    114          1           0        9.790902   -2.633840   -0.105668
    115          1           0       11.292239    0.670176    0.368673
    116          1           0       11.448022   -0.885587    0.923314
    117          1           0       12.891718   -1.625515   -0.932725
    118          1           0       12.768754   -0.059167   -1.666334
    119          1           0       13.918481    0.946408    0.439796
    120          1           0       13.819524   -0.667620    1.224398
    121          1           0       15.342748    0.221544   -1.374057
    122          1           0       15.820136   -2.260728   -0.131135
    123          1           0       14.801349   -2.144124   -1.466417
    124          1           0       16.560033   -1.704711   -1.428878
    125          1           0       16.175604    1.377063    0.879947
    126          1           0       16.539401   -0.253378    1.299730
    127          1           0       18.087969   -0.448870   -0.247631
    128          1           0       17.800800    1.011016   -1.131279
    129          1           0       18.348539    2.401385    0.955557
    130          1           0       18.927949    0.923753    1.512679
    131          1           0       20.693024    0.402648   -0.031835
    132          1           0       20.022886    3.156075   -1.214059
    133          1           0       21.556152    2.211841   -1.398987
    134          1           0       19.738233    1.790588   -1.920895
    135          1           0       20.904529    1.414938    2.201324
    136          1           0       22.278218    1.707987    0.763113
    137          1           0       21.288440    2.939357    1.411207
 ---------------------------------------------------------------------

 SCF Done:  E(RCAM-B3LYP) =  -2932.68283677     A.U. after   17 cycles

 Excitation energies and oscillator strengths:

 Excited State   1:      Singlet-A      2.2155 eV  559.62 nm  f=0.2311  <S**2>=0.000
     240 -> 242       -0.25043
     240 -> 243       -0.20467
     241 -> 242        0.59820
     241 -> 243       -0.15388
 This state for optimization and/or second-order correction.
 Total Energy, E(TD-HF/TD-KS) =  -2932.60141767
 Copying the excited state density for this state as the 1-particle RhoCI density.

 The electronic state is 1-A.
 Alpha  occ. eigenvalues --  -46.83942 -19.25274 -19.23911 -19.21698 -19.20898
 Alpha  occ. eigenvalues --  -19.20170 -14.40717 -14.40363 -14.40113 -14.38263
 Alpha  occ. eigenvalues --  -10.39185 -10.38885 -10.35860 -10.31698 -10.31407
 Alpha  occ. eigenvalues --  -10.30604 -10.30391 -10.30344 -10.29722 -10.28754
 Alpha  occ. eigenvalues --  -10.28642 -10.28621 -10.28324 -10.28231 -10.28214
 Alpha  occ. eigenvalues --  -10.28171 -10.28021 -10.27990 -10.27942 -10.27896
 Alpha  occ. eigenvalues --  -10.27877 -10.27593 -10.27473 -10.27382 -10.27377
 Alpha  occ. eigenvalues --  -10.27303 -10.27293 -10.27160 -10.27142 -10.26759
 Alpha  occ. eigenvalues --  -10.26660 -10.26581 -10.26541 -10.26371 -10.25962
 Alpha  occ. eigenvalues --  -10.25809 -10.25529 -10.25482 -10.25359 -10.25198
 Alpha  occ. eigenvalues --  -10.25172 -10.25156 -10.25048 -10.25017 -10.24963
 Alpha  occ. eigenvalues --  -10.24151 -10.24103 -10.24064 -10.23989 -10.23971
 Alpha  occ. eigenvalues --  -10.23957 -10.23957 -10.23828 -10.23800 -10.23327
 Alpha  occ. eigenvalues --   -3.13065  -1.87770  -1.87304  -1.87248  -1.18173
 Alpha  occ. eigenvalues --   -1.15603  -1.08716  -1.08468  -1.07032  -1.04938
 Alpha  occ. eigenvalues --   -1.03764  -1.02526  -1.01808  -0.92172  -0.91826
 Alpha  occ. eigenvalues --   -0.90544  -0.90232  -0.90093  -0.89867  -0.89484
 Alpha  occ. eigenvalues --   -0.88732  -0.87532  -0.87430  -0.86743  -0.86042
 Alpha  occ. eigenvalues --   -0.85156  -0.84391  -0.84353  -0.83634  -0.83068
 Alpha  occ. eigenvalues --   -0.81736  -0.81400  -0.80543  -0.79864  -0.78234
 Alpha  occ. eigenvalues --   -0.77706  -0.77499  -0.76892  -0.76575  -0.76127
 Alpha  occ. eigenvalues --   -0.75527  -0.75500  -0.74844  -0.73032  -0.72542
 Alpha  occ. eigenvalues --   -0.71374  -0.70760  -0.69616  -0.69271  -0.68566
 Alpha  occ. eigenvalues --   -0.67563  -0.67297  -0.65952  -0.65102  -0.64986
 Alpha  occ. eigenvalues --   -0.64644  -0.63652  -0.63429  -0.62544  -0.62218
 Alpha  occ. eigenvalues --   -0.61713  -0.60370  -0.60056  -0.59766  -0.58923
 Alpha  occ. eigenvalues --   -0.58664  -0.58246  -0.57905  -0.57551  -0.57280
 Alpha  occ. eigenvalues --   -0.56510  -0.55195  -0.55073  -0.54957  -0.54919
 Alpha  occ. eigenvalues --   -0.54483  -0.54356  -0.53803  -0.53709  -0.53174
 Alpha  occ. eigenvalues --   -0.52961  -0.52715  -0.52448  -0.52397  -0.52020
 Alpha  occ. eigenvalues --   -0.51879  -0.51512  -0.51160  -0.51078  -0.50876
 Alpha  occ. eigenvalues --   -0.50795  -0.50531  -0.50278  -0.50032  -0.49951
 Alpha  occ. eigenvalues --   -0.49408  -0.48980  -0.48906  -0.48717  -0.48389
 Alpha  occ. eigenvalues --   -0.48058  -0.47829  -0.47486  -0.47452  -0.47261
 Alpha  occ. eigenvalues --   -0.47040  -0.46972  -0.46754  -0.46646  -0.46421
 Alpha  occ. eigenvalues --   -0.46216  -0.46158  -0.45997  -0.45507  -0.45232
 Alpha  occ. eigenvalues --   -0.45069  -0.44862  -0.44602  -0.44379  -0.44368
 Alpha  occ. eigenvalues --   -0.43996  -0.43871  -0.43647  -0.43463  -0.43176
 Alpha  occ. eigenvalues --   -0.43106  -0.43023  -0.42631  -0.42557  -0.42345
 Alpha  occ. eigenvalues --   -0.42304  -0.42044  -0.41913  -0.41665  -0.41261
 Alpha  occ. eigenvalues --   -0.41227  -0.41017  -0.40894  -0.40681  -0.40262
 Alpha  occ. eigenvalues --   -0.40180  -0.39973  -0.39820  -0.39471  -0.39450
 Alpha  occ. eigenvalues --   -0.39112  -0.38680  -0.38567  -0.38495  -0.37899
 Alpha  occ. eigenvalues --   -0.37658  -0.37467  -0.37397  -0.37053  -0.36643
 Alpha  occ. eigenvalues --   -0.36569  -0.36314  -0.35889  -0.35700  -0.35041
 Alpha  occ. eigenvalues --   -0.34939  -0.34784  -0.34513  -0.33713  -0.33572
 Alpha  occ. eigenvalues --   -0.32729  -0.32523  -0.32414  -0.31113  -0.29795
 Alpha  occ. eigenvalues --   -0.28903  -0.28598  -0.28169  -0.27372  -0.23268
 Alpha  occ. eigenvalues --   -0.21970
 Alpha virt. eigenvalues --   -0.06570  -0.03143   0.01912   0.03437   0.04788
 Alpha virt. eigenvalues --    0.05378   0.05741   0.06014   0.06481   0.07635
 Alpha virt. eigenvalues --    0.08725   0.10265   0.10549   0.11380   0.11985

 Mulliken charges:
               1
     1  Mg   0.823778
     2  C    0.048351
     3  C   -0.204606
     4  C   -0.181759
     5  C   -0.154054
     6  N   -0.627665
     7  C    0.258262
     8  C   -0.165033
     9  C   -0.107435
    10  C    0.339760
    11  C   -0.314724
    12  C   -0.190030
    13  C   -0.243467
    14  C    0.581638
    15  O   -0.471580
    16  O   -0.467277
    17  N   -0.709390
    18  C    0.327727
    19  C   -0.008552
    20  C    0.028657
    21  C    0.300261
    22  C   -0.361774
    23  C   -0.087697
    24  C   -0.234226
    25  N   -0.692471
    26  C    0.308628
    27  C   -0.011890
    28  C    0.077812
    29  C    0.280699
    30  C   -0.370786
    31  C   -0.262400
    32  C   -0.283594
    33  N   -0.748507
    34  C    0.243964
    35  C   -0.046046
    36  C    0.022060
    37  C    0.350100
    38  C   -0.351804
    39  C    0.375287
    40  O   -0.489216
    41  C   -0.312578
    42  C    0.630328
    43  O   -0.455378
    44  O   -0.500977
    45  C   -0.052327
    46  C    0.031738
    47  C   -0.148231
    48  C    0.117716
    49  C   -0.363440
    50  C   -0.220435
    51  C   -0.178032
    52  C   -0.169130
    53  C   -0.067101
    54  C   -0.307184
    55  C   -0.172293
    56  C   -0.186985
    57  C   -0.171664
    58  C   -0.071449
    59  C   -0.340581
    60  C   -0.187759
    61  C   -0.187402
    62  C   -0.176517
    63  C   -0.081592
    64  C   -0.289115
    65  C   -0.316081
    66  H    0.079218
    67  H    0.106590
    68  H    0.092565
    69  H    0.118626
    70  H    0.111747
    71  H    0.086970
    72  H    0.116160
    73  H    0.132664
    74  H    0.112830
    75  H    0.122026
    76  H    0.151151
    77  H    0.138913
    78  H    0.139685
    79  H    0.119848
    80  H    0.103895
    81  H    0.091591
    82  H    0.110919
    83  H    0.109574
    84  H    0.133369
    85  H    0.120906
    86  H    0.102740
    87  H    0.086588
    88  H    0.107456
    89  H    0.120563
    90  H    0.085770
    91  H    0.075923
    92  H    0.137481
    93  H    0.154026
    94  H    0.100724
    95  H    0.178116
    96  H    0.124782
    97  H    0.108316
    98  H    0.132447
    99  H    0.118983
   100  H    0.097177
   101  H    0.076650
   102  H    0.126295
   103  H    0.095130
   104  H    0.132916
   105  H    0.109150
   106  H    0.102414
   107  H    0.086739
   108  H    0.100593
   109  H    0.071925
   110  H    0.095108
   111  H    0.084510
   112  H    0.095194
   113  H    0.104660
   114  H    0.096557
   115  H    0.076663
   116  H    0.096783
   117  H    0.112234
   118  H    0.086525
   119  H    0.098752
   120  H    0.089586
   121  H    0.097503
   122  H    0.098794
   123  H    0.088142
   124  H    0.098256
   125  H    0.091462
   126  H    0.103706
   127  H    0.104887
   128  H    0.092423
   129  H    0.087349
   130  H    0.097690
   131  H    0.077036
   132  H    0.088014
   133  H    0.075529
   134  H    0.110987
   135  H    0.102420
   136  H    0.105710
   137  H    0.106837
 Sum of Mulliken charges =   0.00000

 Dipole moment (field-independent basis, Debye):
    X=              0.1362    Y=              6.2754    Z=              0.2632  Tot=              6.2824
 Quadrupole moment (field-independent basis, Debye-Ang):
   XX=           -325.0672   YY=           -390.1170   ZZ=           -399.3430
   XY=            -36.3126   XZ=             17.0988   YZ=             -1.5967

 Normal termination of Gaussian 09 at Fri Jun 28 10:22:12 2019.
