 Gaussian 09, Revision D.01,
 Gaussian 09:  ES64L-G09RevD.01 24-Apr-2013

 -------------------------------------
 # td=(NStates=1) CAM-B3LYP/6-31G(d,p)
 -------------------------------------

 --
 TD
 --
 Symbolic Z-matrix:
 Charge =  0 Multiplicity = 1

                         Standard orientation:
 ---------------------------------------------------------------------
 Center     Atomic      Atomic             Coordinates (Angstroms)
 Number     Number       Type             X           Y           Z
 ---------------------------------------------------------------------
      1         12           0       -7.238607    0.603555    0.311615
      2          6           0       -4.880880   -1.925079    0.487165
      3          6           0       -4.800240    2.753589    1.200503
      4          6           0       -9.492333    3.024329   -0.327453
      5          6           0       -9.505706   -1.846110   -0.925604
      6          7           0       -5.086329    0.400773    0.746994
      7          6           0       -4.333920   -0.660017    0.814995
      8          6           0       -2.912596   -0.380924    1.220537
      9          6           0       -3.032620    1.064278    1.771580
     10          6           0       -4.325538    1.404751    1.206164
     11          6           0       -2.943795    1.188150    3.349392
     12          6           0       -1.874345   -0.437604    0.088490
     13          6           0       -0.456111   -0.316198    0.578997
     14          6           0        0.485348   -0.558451   -0.451840
     15          8           0        0.263644   -0.980728   -1.623013
     16          8           0        1.757598   -0.252324   -0.197722
     17          7           0       -7.217312    2.579628    0.361214
     18          6           0       -6.123298    3.276095    0.754571
     19          6           0       -6.576827    4.713769    0.844341
     20          6           0       -7.803476    4.807159    0.388926
     21          6           0       -8.256036    3.425673    0.127112
     22          6           0       -5.788173    5.874581    1.474406
     23          6           0       -8.695775    6.010625    0.256124
     24          6           0       -8.289063    7.167615   -0.097644
     25          7           0       -9.103044    0.669828   -0.561322
     26          6           0       -9.956057    1.792634   -0.660152
     27          6           0      -11.274360    1.328870   -1.052048
     28          6           0      -11.274483    0.034014   -1.239571
     29          6           0       -9.911009   -0.427142   -0.882971
     30          6           0      -12.458126    2.314558   -1.318947
     31          6           0      -12.291443   -0.848264   -1.881082
     32          6           0      -12.040269   -1.107524   -3.392516
     33          7           0       -7.192130   -1.459795   -0.096606
     34          6           0       -8.300953   -2.236983   -0.498993
     35          6           0       -7.750454   -3.666544   -0.564398
     36          6           0       -6.438472   -3.519788   -0.217055
     37          6           0       -6.110217   -2.237254    0.058499
     38          6           0       -8.600654   -4.919762   -0.787734
     39          6           0       -5.186319   -4.327929    0.141226
     40          8           0       -4.946983   -5.535782    0.009897
     41          6           0       -4.155960   -3.249784    0.592787
     42          6           0       -3.512878   -3.706320    1.872826
     43          8           0       -3.706829   -3.079361    2.967163
     44          8           0       -2.757249   -4.717576    1.637535
     45          6           0       -2.115263   -5.252345    2.907939
     46          6           0        2.815051   -0.513467   -1.107736
     47          6           0        4.134121   -0.236377   -0.405143
     48          6           0        5.170674    0.503693   -0.963254
     49          6           0        5.035044    1.331691   -2.115593
     50          6           0        6.450495    0.430585   -0.115466
     51          6           0        7.660837   -0.078700   -0.879875
     52          6           0        8.944324   -0.048904   -0.055455
     53          6           0       10.170805   -0.438935   -0.955547
     54          6           0       10.021119   -1.916292   -1.406966
     55          6           0       11.416373   -0.307394   -0.095488
     56          6           0       12.770826   -0.561818   -0.786706
     57          6           0       13.974874   -0.072551    0.156021
     58          6           0       15.296478   -0.162227   -0.531431
     59          6           0       15.526732   -1.642911   -1.055400
     60          6           0       16.473945    0.355970    0.431672
     61          6           0       17.881238    0.541247   -0.064380
     62          6           0       18.919100    1.193214    0.786683
     63          6           0       20.294636    1.116640    0.129943
     64          6           0       20.233212    2.131425   -1.067087
     65          6           0       21.332090    1.769212    1.183228
     66          1           0       -4.307398    3.493996    1.658167
     67          1           0      -10.112725    3.812494   -0.595486
     68          1           0      -10.416408   -2.332938   -1.269638
     69          1           0       -2.689789   -1.192909    1.916704
     70          1           0       -2.150354    1.739531    1.522141
     71          1           0       -1.978842    0.712489    3.830438
     72          1           0       -3.192285    2.216053    3.448993
     73          1           0       -3.839728    0.736715    3.844949
     74          1           0       -1.820324   -1.299405   -0.513952
     75          1           0       -2.067568    0.215865   -0.702872
     76          1           0       -0.244818    0.711608    1.056392
     77          1           0       -0.268625   -1.122985    1.207509
     78          1           0       -4.988861    6.149452    0.732925
     79          1           0       -6.274036    6.631261    1.762857
     80          1           0       -5.096493    5.616996    2.242424
     81          1           0       -9.723238    5.949118    0.336221
     82          1           0       -9.108108    7.940490   -0.326068
     83          1           0       -7.367034    7.552145   -0.271249
     84          1           0      -12.138224    3.223219   -2.063994
     85          1           0      -13.112804    1.681018   -1.823817
     86          1           0      -12.643820    2.750120   -0.392839
     87          1           0      -12.555123   -1.797759   -1.263434
     88          1           0      -13.369772   -0.415011   -1.829110
     89          1           0      -12.929544   -1.695011   -4.056735
     90          1           0      -12.057782   -0.121311   -3.836077
     91          1           0      -10.951722   -1.264114   -3.753443
     92          1           0       -9.231497   -4.873940   -1.833406
     93          1           0       -7.859089   -5.680909   -0.768870
     94          1           0       -9.484000   -4.939758   -0.044711
     95          1           0       -3.393674   -3.327732   -0.329287
     96          1           0       -1.717631   -4.234626    3.419935
     97          1           0       -3.045846   -5.493130    3.670830
     98          1           0       -1.424470   -6.020609    2.813123
     99          1           0        2.823193   -1.796896   -1.362117
    100          1           0        2.623534   -0.047657   -2.063011
    101          1           0        4.261857   -0.855543    0.381697
    102          1           0        3.993610    1.421625   -2.352058
    103          1           0        5.468179    2.417170   -2.231118
    104          1           0        5.408086    0.700081   -3.052957
    105          1           0        6.936721    1.434390    0.318670
    106          1           0        6.460396   -0.284044    0.763522
    107          1           0        7.618648   -1.192138   -1.034397
    108          1           0        7.974665    0.131854   -1.837851
    109          1           0        9.191660    1.034698    0.271368
    110          1           0        8.920762   -0.802041    0.747487
    111          1           0       10.091648    0.089423   -1.923443
    112          1           0        9.262739   -2.291328   -2.110188
    113          1           0       10.762572   -2.213188   -2.059570
    114          1           0        9.785750   -2.752761   -0.502102
    115          1           0       11.454236    0.793849    0.364467
    116          1           0       11.324037   -0.991575    0.723626
    117          1           0       12.945970   -1.423940   -0.906367
    118          1           0       12.839745   -0.031022   -1.609424
    119          1           0       13.747794    0.881627    0.620499
    120          1           0       14.026411   -0.653419    1.190905
    121          1           0       15.515977    0.670011   -1.289082
    122          1           0       15.708166   -2.268935   -0.199042
    123          1           0       14.646553   -1.823126   -1.647940
    124          1           0       16.481750   -1.460804   -1.647493
    125          1           0       16.201437    1.371428    0.809657
    126          1           0       16.559679   -0.114112    1.300615
    127          1           0       18.241511   -0.391969   -0.276007
    128          1           0       17.702905    1.153779   -0.963690
    129          1           0       18.718862    2.257152    1.239331
    130          1           0       19.057445    0.632288    1.566444
    131          1           0       20.549813    0.140877   -0.137517
    132          1           0       19.414274    2.971565   -0.739116
    133          1           0       21.253188    2.465538   -1.379802
    134          1           0       19.728850    1.848557   -1.870155
    135          1           0       21.389711    1.034517    2.047994
    136          1           0       22.320193    2.114251    0.819341
    137          1           0       21.084609    2.755271    1.474447
 ---------------------------------------------------------------------

 SCF Done:  E(RCAM-B3LYP) =  -2932.57309210     A.U. after   18 cycles

 Excitation energies and oscillator strengths:

 Excited State   1:      Singlet-A      2.0919 eV  592.69 nm  f=0.1887  <S**2>=0.000
     240 -> 242       -0.10290
     240 -> 243       -0.27045
     241 -> 242        0.63187
     241 -> 243       -0.10850
 This state for optimization and/or second-order correction.
 Total Energy, E(TD-HF/TD-KS) =  -2932.49621596
 Copying the excited state density for this state as the 1-particle RhoCI density.

 The electronic state is 1-A.
 Alpha  occ. eigenvalues --  -46.84662 -19.28870 -19.25947 -19.21022 -19.20524
 Alpha  occ. eigenvalues --  -19.19505 -14.41901 -14.39480 -14.39034 -14.38452
 Alpha  occ. eigenvalues --  -10.39929 -10.38918 -10.35904 -10.34420 -10.33351
 Alpha  occ. eigenvalues --  -10.30836 -10.30568 -10.30277 -10.29354 -10.28954
 Alpha  occ. eigenvalues --  -10.28911 -10.28854 -10.28412 -10.28301 -10.28262
 Alpha  occ. eigenvalues --  -10.28090 -10.27835 -10.27706 -10.27653 -10.27438
 Alpha  occ. eigenvalues --  -10.27419 -10.27393 -10.27247 -10.27144 -10.26894
 Alpha  occ. eigenvalues --  -10.26815 -10.26592 -10.26559 -10.26087 -10.26010
 Alpha  occ. eigenvalues --  -10.25901 -10.25843 -10.25793 -10.25792 -10.25771
 Alpha  occ. eigenvalues --  -10.25701 -10.25636 -10.25624 -10.25616 -10.25603
 Alpha  occ. eigenvalues --  -10.25434 -10.25385 -10.25343 -10.25248 -10.25210
 Alpha  occ. eigenvalues --  -10.24930 -10.24713 -10.24630 -10.24201 -10.24165
 Alpha  occ. eigenvalues --  -10.24129 -10.23741 -10.23585 -10.23211 -10.22232
 Alpha  occ. eigenvalues --   -3.13606  -1.88303  -1.87858  -1.87759  -1.19862
 Alpha  occ. eigenvalues --   -1.18326  -1.10168  -1.07202  -1.06904  -1.06220
 Alpha  occ. eigenvalues --   -1.03339  -1.03283  -1.00760  -0.92852  -0.91943
 Alpha  occ. eigenvalues --   -0.91338  -0.90711  -0.89989  -0.89295  -0.88740
 Alpha  occ. eigenvalues --   -0.88363  -0.88129  -0.87375  -0.86503  -0.86165
 Alpha  occ. eigenvalues --   -0.85331  -0.84491  -0.83811  -0.83302  -0.82734
 Alpha  occ. eigenvalues --   -0.81936  -0.81470  -0.80446  -0.80187  -0.78770
 Alpha  occ. eigenvalues --   -0.78165  -0.76932  -0.76340  -0.76210  -0.75616
 Alpha  occ. eigenvalues --   -0.75293  -0.75120  -0.74919  -0.73909  -0.72276
 Alpha  occ. eigenvalues --   -0.72076  -0.71103  -0.70004  -0.69340  -0.67805
 Alpha  occ. eigenvalues --   -0.66799  -0.66684  -0.66041  -0.65431  -0.64775
 Alpha  occ. eigenvalues --   -0.64357  -0.63951  -0.63817  -0.62787  -0.62325
 Alpha  occ. eigenvalues --   -0.62243  -0.61586  -0.60915  -0.60347  -0.59583
 Alpha  occ. eigenvalues --   -0.58732  -0.58419  -0.57794  -0.57285  -0.57031
 Alpha  occ. eigenvalues --   -0.56598  -0.56087  -0.55979  -0.55626  -0.55179
 Alpha  occ. eigenvalues --   -0.55069  -0.54945  -0.54559  -0.54059  -0.53530
 Alpha  occ. eigenvalues --   -0.52518  -0.52134  -0.51946  -0.51825  -0.51652
 Alpha  occ. eigenvalues --   -0.51571  -0.51353  -0.51217  -0.50545  -0.50520
 Alpha  occ. eigenvalues --   -0.50449  -0.50360  -0.50142  -0.49746  -0.49486
 Alpha  occ. eigenvalues --   -0.49092  -0.48954  -0.48949  -0.48639  -0.48461
 Alpha  occ. eigenvalues --   -0.48173  -0.48019  -0.47857  -0.47514  -0.47426
 Alpha  occ. eigenvalues --   -0.47195  -0.47180  -0.46319  -0.46067  -0.45665
 Alpha  occ. eigenvalues --   -0.45554  -0.45471  -0.45236  -0.44883  -0.44757
 Alpha  occ. eigenvalues --   -0.44575  -0.44220  -0.44155  -0.43994  -0.43909
 Alpha  occ. eigenvalues --   -0.43884  -0.43538  -0.43151  -0.43098  -0.42957
 Alpha  occ. eigenvalues --   -0.42864  -0.42504  -0.42374  -0.42200  -0.42076
 Alpha  occ. eigenvalues --   -0.42009  -0.41802  -0.41633  -0.41468  -0.41071
 Alpha  occ. eigenvalues --   -0.41032  -0.40744  -0.40733  -0.40399  -0.40267
 Alpha  occ. eigenvalues --   -0.40207  -0.39741  -0.39484  -0.39427  -0.39022
 Alpha  occ. eigenvalues --   -0.38789  -0.38611  -0.38488  -0.38352  -0.37962
 Alpha  occ. eigenvalues --   -0.37431  -0.37424  -0.36942  -0.36784  -0.36757
 Alpha  occ. eigenvalues --   -0.36495  -0.36459  -0.36097  -0.35845  -0.35265
 Alpha  occ. eigenvalues --   -0.35157  -0.34885  -0.34797  -0.33500  -0.33413
 Alpha  occ. eigenvalues --   -0.32944  -0.32592  -0.32289  -0.30383  -0.29963
 Alpha  occ. eigenvalues --   -0.29250  -0.28771  -0.28749  -0.28039  -0.22804
 Alpha  occ. eigenvalues --   -0.20310
 Alpha virt. eigenvalues --   -0.05289  -0.02879   0.01862   0.04401   0.04475
 Alpha virt. eigenvalues --    0.04830   0.05577   0.06026   0.07514   0.07993
 Alpha virt. eigenvalues --    0.08821   0.10629   0.10759   0.12086   0.12247

 Mulliken charges:
               1
     1  Mg   0.845108
     2  C    0.062369
     3  C   -0.187685
     4  C   -0.173258
     5  C   -0.134269
     6  N   -0.618330
     7  C    0.336717
     8  C   -0.159385
     9  C   -0.156393
    10  C    0.355717
    11  C   -0.303679
    12  C   -0.187063
    13  C   -0.247581
    14  C    0.592456
    15  O   -0.515656
    16  O   -0.462057
    17  N   -0.728292
    18  C    0.279179
    19  C   -0.030595
    20  C    0.036778
    21  C    0.276833
    22  C   -0.355409
    23  C   -0.063948
    24  C   -0.223825
    25  N   -0.685635
    26  C    0.284968
    27  C    0.007680
    28  C    0.039020
    29  C    0.230887
    30  C   -0.337572
    31  C   -0.264175
    32  C   -0.307269
    33  N   -0.756832
    34  C    0.279556
    35  C   -0.023764
    36  C    0.017901
    37  C    0.331687
    38  C   -0.362293
    39  C    0.379196
    40  O   -0.462342
    41  C   -0.341608
    42  C    0.637151
    43  O   -0.532922
    44  O   -0.409539
    45  C   -0.097347
    46  C    0.024437
    47  C   -0.117529
    48  C    0.157325
    49  C   -0.381255
    50  C   -0.221030
    51  C   -0.185033
    52  C   -0.167117
    53  C   -0.078300
    54  C   -0.319759
    55  C   -0.170723
    56  C   -0.154314
    57  C   -0.184652
    58  C   -0.064653
    59  C   -0.311193
    60  C   -0.201227
    61  C   -0.175925
    62  C   -0.159812
    63  C   -0.059570
    64  C   -0.300547
    65  C   -0.319747
    66  H    0.060654
    67  H    0.078578
    68  H    0.103479
    69  H    0.124433
    70  H    0.111086
    71  H    0.109309
    72  H    0.114854
    73  H    0.120532
    74  H    0.133654
    75  H    0.126298
    76  H    0.135130
    77  H    0.152266
    78  H    0.108869
    79  H    0.122843
    80  H    0.111571
    81  H    0.094196
    82  H    0.079200
    83  H    0.105247
    84  H    0.094010
    85  H    0.118097
    86  H    0.135216
    87  H    0.098669
    88  H    0.097819
    89  H    0.086104
    90  H    0.118320
    91  H    0.114519
    92  H    0.107688
    93  H    0.153117
    94  H    0.130613
    95  H    0.161213
    96  H    0.136887
    97  H    0.138182
    98  H    0.148593
    99  H    0.076733
   100  H    0.129088
   101  H    0.095678
   102  H    0.125936
   103  H    0.119733
   104  H    0.111540
   105  H    0.085655
   106  H    0.104757
   107  H    0.090750
   108  H    0.098779
   109  H    0.074727
   110  H    0.092819
   111  H    0.089276
   112  H    0.100590
   113  H    0.107916
   114  H    0.066221
   115  H    0.069727
   116  H    0.100020
   117  H    0.109040
   118  H    0.102766
   119  H    0.090363
   120  H    0.065084
   121  H    0.078150
   122  H    0.114328
   123  H    0.113821
   124  H    0.099907
   125  H    0.074663
   126  H    0.087010
   127  H    0.096311
   128  H    0.080330
   129  H    0.079975
   130  H    0.094080
   131  H    0.095415
   132  H    0.072610
   133  H    0.092561
   134  H    0.115500
   135  H    0.091410
   136  H    0.091195
   137  H    0.110437
 Sum of Mulliken charges =   0.00000

 Dipole moment (field-independent basis, Debye):
    X=              2.1395    Y=              2.3248    Z=              1.6866  Tot=              3.5815
 Quadrupole moment (field-independent basis, Debye-Ang):
   XX=           -358.4222   YY=           -390.1117   ZZ=           -394.8591
   XY=            -19.6528   XZ=              0.8080   YZ=             -7.9486

 Normal termination of Gaussian 09 at Thu Jun 27 13:31:37 2019.
