 Gaussian 09, Revision D.01,
 Gaussian 09:  ES64L-G09RevD.01 24-Apr-2013

 -------------------------------------
 # td=(NStates=1) CAM-B3LYP/6-31G(d,p)
 -------------------------------------

 --
 TD
 --
 Symbolic Z-matrix:
 Charge =  0 Multiplicity = 1

                         Standard orientation:
 ---------------------------------------------------------------------
 Center     Atomic      Atomic             Coordinates (Angstroms)
 Number     Number       Type             X           Y           Z
 ---------------------------------------------------------------------
      1         12           0       -7.148198    0.562935   -0.005136
      2          6           0       -4.774837   -1.935139    0.599792
      3          6           0       -4.844057    2.818822    1.195709
      4          6           0       -9.515725    3.064949   -0.266172
      5          6           0       -9.500998   -1.831081   -0.843030
      6          7           0       -5.075983    0.440245    0.778766
      7          6           0       -4.288095   -0.684069    0.800066
      8          6           0       -2.880667   -0.364961    1.249681
      9          6           0       -2.928553    1.140387    1.690855
     10          6           0       -4.348610    1.462129    1.162821
     11          6           0       -2.839883    1.278692    3.146597
     12          6           0       -2.032035   -0.654564    0.077704
     13          6           0       -0.531243   -0.521432    0.510674
     14          6           0        0.537042   -0.539381   -0.650599
     15          8           0        0.219721   -0.640504   -1.744595
     16          8           0        1.773836   -0.438045   -0.160722
     17          7           0       -7.066741    2.580011    0.351213
     18          6           0       -6.142714    3.352410    0.819908
     19          6           0       -6.458431    4.780703    0.911252
     20          6           0       -7.858637    4.791484    0.443090
     21          6           0       -8.207116    3.371929    0.227935
     22          6           0       -5.609795    5.907160    1.236439
     23          6           0       -8.727009    6.025234    0.437554
     24          6           0       -8.241683    7.218881   -0.036573
     25          7           0       -9.125395    0.712378   -0.489397
     26          6           0       -9.936899    1.758332   -0.651324
     27          6           0      -11.140645    1.464673   -1.101338
     28          6           0      -11.274344    0.048045   -1.179450
     29          6           0       -9.896450   -0.453143   -0.782650
     30          6           0      -12.382737    2.405901   -1.360199
     31          6           0      -12.532743   -0.835540   -1.613803
     32          6           0      -12.542336   -1.216801   -3.142109
     33          7           0       -7.208075   -1.424255   -0.273426
     34          6           0       -8.191564   -2.238071   -0.675458
     35          6           0       -7.762949   -3.597070   -0.643954
     36          6           0       -6.387043   -3.498867   -0.135705
     37          6           0       -6.172174   -2.218880    0.065819
     38          6           0       -8.493795   -4.765019   -0.927967
     39          6           0       -5.240530   -4.358279    0.201622
     40          8           0       -5.122955   -5.511021    0.272369
     41          6           0       -4.068880   -3.281542    0.517464
     42          6           0       -3.506879   -3.663164    1.836121
     43          8           0       -3.704734   -3.241900    2.963547
     44          8           0       -2.640426   -4.658551    1.703235
     45          6           0       -2.021970   -5.176693    2.859342
     46          6           0        2.732209   -0.636222   -1.112272
     47          6           0        4.099230   -0.497278   -0.519761
     48          6           0        5.077020    0.316298   -0.894718
     49          6           0        5.032204    1.288004   -2.066433
     50          6           0        6.439565    0.356417   -0.230095
     51          6           0        7.708756   -0.188745   -0.938884
     52          6           0        8.914407   -0.044355   -0.080132
     53          6           0       10.125956   -0.554873   -0.820759
     54          6           0       10.063104   -1.914092   -1.359681
     55          6           0       11.361869   -0.233222   -0.075721
     56          6           0       12.747564   -0.378212   -0.849940
     57          6           0       13.984966   -0.062624    0.088079
     58          6           0       15.355056   -0.193090   -0.558545
     59          6           0       15.582665   -1.715013   -0.901387
     60          6           0       16.453756    0.309601    0.404719
     61          6           0       17.850353    0.510793   -0.343475
     62          6           0       18.829962    1.128902    0.717580
     63          6           0       20.300667    1.420834    0.178846
     64          6           0       20.252392    2.303524   -0.964791
     65          6           0       21.240535    1.902472    1.432386
     66          1           0       -4.123486    3.455728    1.630675
     67          1           0      -10.215334    3.879581   -0.577395
     68          1           0      -10.174278   -2.581496   -0.993505
     69          1           0       -2.770462   -1.046374    2.205877
     70          1           0       -1.985217    1.781665    1.406428
     71          1           0       -1.971901    0.851948    3.518124
     72          1           0       -2.873772    2.140489    3.639349
     73          1           0       -3.768168    0.634523    3.580238
     74          1           0       -2.136320   -1.663702   -0.356952
     75          1           0       -2.178087   -0.000089   -0.685303
     76          1           0       -0.614909    0.622225    1.080484
     77          1           0       -0.207181   -1.334846    1.226718
     78          1           0       -4.638522    6.108529    0.597874
     79          1           0       -6.045446    6.866996    1.325384
     80          1           0       -4.677186    5.727662    1.903232
     81          1           0       -9.938024    5.820609    0.593900
     82          1           0       -8.899504    8.056310   -0.011652
     83          1           0       -7.201310    7.262716   -0.234232
     84          1           0      -12.392248    2.962236   -2.301311
     85          1           0      -13.376559    1.845159   -1.423925
     86          1           0      -12.540670    3.093323   -0.628569
     87          1           0      -12.455758   -1.685899   -1.067406
     88          1           0      -13.471701   -0.142506   -1.344738
     89          1           0      -13.283099   -1.936002   -3.726033
     90          1           0      -12.742854   -0.144291   -3.521359
     91          1           0      -11.484053   -1.588861   -3.233365
     92          1           0       -8.781277   -4.835576   -1.913325
     93          1           0       -7.918760   -5.672649   -0.837404
     94          1           0       -9.477604   -4.894235   -0.227869
     95          1           0       -3.362756   -3.648067   -0.345823
     96          1           0       -1.433666   -4.444632    3.433639
     97          1           0       -2.753516   -5.698598    3.480168
     98          1           0       -1.424853   -5.833766    2.435988
     99          1           0        2.625569   -1.644343   -1.600453
    100          1           0        2.588690    0.088752   -2.069193
    101          1           0        4.351206   -0.933784    0.537390
    102          1           0        4.105663    1.570714   -2.270047
    103          1           0        5.491833    2.278482   -1.701569
    104          1           0        5.623300    0.912594   -2.935070
    105          1           0        6.546383    1.406757    0.125549
    106          1           0        6.507122   -0.322713    0.802375
    107          1           0        7.487590   -1.215679   -1.225134
    108          1           0        7.905830    0.413944   -1.982002
    109          1           0        8.973035    0.961357    0.520218
    110          1           0        8.732516   -0.644592    0.884367
    111          1           0       10.063479   -0.072805   -1.739452
    112          1           0        9.360691   -2.268669   -2.122422
    113          1           0       11.047319   -2.394590   -1.854081
    114          1           0       10.170451   -2.666688   -0.595968
    115          1           0       11.254289    0.835549    0.185533
    116          1           0       11.528082   -0.904567    0.771575
    117          1           0       12.992316   -1.317499   -1.216989
    118          1           0       12.634210    0.280939   -1.623450
    119          1           0       13.812629    0.905142    0.696683
    120          1           0       13.736496   -0.729740    0.950203
    121          1           0       15.571515    0.188899   -1.619776
    122          1           0       15.575195   -2.423283    0.103895
    123          1           0       15.043291   -2.058364   -1.838231
    124          1           0       16.622626   -1.893792   -1.313584
    125          1           0       16.084335    1.240567    0.852161
    126          1           0       16.764200   -0.333772    1.304431
    127          1           0       18.378784   -0.483101   -0.673895
    128          1           0       17.809285    1.182400   -1.282132
    129          1           0       18.533324    1.945360    1.183709
    130          1           0       18.581738    0.306849    1.664791
    131          1           0       20.733427    0.327009    0.108789
    132          1           0       19.690198    3.073808   -0.757907
    133          1           0       21.207469    2.648310   -1.315139
    134          1           0       19.614507    1.888798   -1.664011
    135          1           0       21.166718    1.145887    2.222542
    136          1           0       22.102525    1.893479    0.908902
    137          1           0       20.765366    2.809643    1.659531
 ---------------------------------------------------------------------

 SCF Done:  E(RCAM-B3LYP) =  -2932.59125910     A.U. after   17 cycles

 Excitation energies and oscillator strengths:

 Excited State   1:      Singlet-A      2.1309 eV  581.84 nm  f=0.1692  <S**2>=0.000
     240 -> 242       -0.17778
     240 -> 243        0.24160
     241 -> 242        0.62284
 This state for optimization and/or second-order correction.
 Total Energy, E(TD-HF/TD-KS) =  -2932.51295063
 Copying the excited state density for this state as the 1-particle RhoCI density.

 The electronic state is 1-A.
 Alpha  occ. eigenvalues --  -46.84968 -19.26852 -19.24777 -19.21731 -19.21315
 Alpha  occ. eigenvalues --  -19.19228 -14.41335 -14.39898 -14.39368 -14.38954
 Alpha  occ. eigenvalues --  -10.38927 -10.37807 -10.35357 -10.32664 -10.31376
 Alpha  occ. eigenvalues --  -10.30762 -10.30700 -10.30005 -10.29705 -10.29606
 Alpha  occ. eigenvalues --  -10.29112 -10.28730 -10.28724 -10.28577 -10.28564
 Alpha  occ. eigenvalues --  -10.28501 -10.28441 -10.28385 -10.28114 -10.28015
 Alpha  occ. eigenvalues --  -10.28001 -10.27829 -10.27742 -10.27695 -10.27569
 Alpha  occ. eigenvalues --  -10.27341 -10.27172 -10.27097 -10.27085 -10.27036
 Alpha  occ. eigenvalues --  -10.26991 -10.26727 -10.26694 -10.26470 -10.26348
 Alpha  occ. eigenvalues --  -10.26250 -10.26141 -10.26020 -10.26018 -10.26013
 Alpha  occ. eigenvalues --  -10.25928 -10.25732 -10.25624 -10.25517 -10.25192
 Alpha  occ. eigenvalues --  -10.25171 -10.25005 -10.24916 -10.24781 -10.24749
 Alpha  occ. eigenvalues --  -10.24543 -10.24225 -10.23564 -10.23169 -10.22496
 Alpha  occ. eigenvalues --   -3.13911  -1.88619  -1.88144  -1.88094  -1.21799
 Alpha  occ. eigenvalues --   -1.18408  -1.14842  -1.13611  -1.07385  -1.05471
 Alpha  occ. eigenvalues --   -1.04877  -1.04362  -1.02803  -0.92421  -0.91958
 Alpha  occ. eigenvalues --   -0.90626  -0.90073  -0.89524  -0.88777  -0.88416
 Alpha  occ. eigenvalues --   -0.88265  -0.87725  -0.87385  -0.86868  -0.85774
 Alpha  occ. eigenvalues --   -0.85139  -0.84110  -0.83780  -0.82964  -0.82487
 Alpha  occ. eigenvalues --   -0.82036  -0.81441  -0.80236  -0.79851  -0.78159
 Alpha  occ. eigenvalues --   -0.77871  -0.77740  -0.76843  -0.76458  -0.76095
 Alpha  occ. eigenvalues --   -0.75685  -0.74961  -0.73885  -0.73354  -0.72392
 Alpha  occ. eigenvalues --   -0.71298  -0.70132  -0.69095  -0.68552  -0.67990
 Alpha  occ. eigenvalues --   -0.67225  -0.66124  -0.65158  -0.64609  -0.64497
 Alpha  occ. eigenvalues --   -0.64390  -0.64136  -0.63817  -0.62967  -0.61833
 Alpha  occ. eigenvalues --   -0.61779  -0.61019  -0.60484  -0.60009  -0.59021
 Alpha  occ. eigenvalues --   -0.58810  -0.58538  -0.57943  -0.57353  -0.56730
 Alpha  occ. eigenvalues --   -0.56226  -0.55697  -0.55403  -0.55226  -0.55135
 Alpha  occ. eigenvalues --   -0.54793  -0.54552  -0.53566  -0.53545  -0.53160
 Alpha  occ. eigenvalues --   -0.52655  -0.52485  -0.52353  -0.52255  -0.51921
 Alpha  occ. eigenvalues --   -0.51641  -0.51389  -0.51333  -0.51193  -0.50758
 Alpha  occ. eigenvalues --   -0.50535  -0.50429  -0.50058  -0.49996  -0.49985
 Alpha  occ. eigenvalues --   -0.49507  -0.49212  -0.49124  -0.49094  -0.48981
 Alpha  occ. eigenvalues --   -0.48424  -0.48118  -0.47934  -0.47842  -0.47564
 Alpha  occ. eigenvalues --   -0.47490  -0.47222  -0.47044  -0.46603  -0.46376
 Alpha  occ. eigenvalues --   -0.46214  -0.46080  -0.45971  -0.45775  -0.45544
 Alpha  occ. eigenvalues --   -0.45327  -0.45013  -0.44870  -0.44426  -0.44260
 Alpha  occ. eigenvalues --   -0.44136  -0.43930  -0.43481  -0.43413  -0.42997
 Alpha  occ. eigenvalues --   -0.42804  -0.42550  -0.42404  -0.42347  -0.42195
 Alpha  occ. eigenvalues --   -0.42025  -0.41888  -0.41633  -0.41504  -0.41215
 Alpha  occ. eigenvalues --   -0.40888  -0.40854  -0.40693  -0.40577  -0.40175
 Alpha  occ. eigenvalues --   -0.40061  -0.40005  -0.39507  -0.38783  -0.38461
 Alpha  occ. eigenvalues --   -0.38300  -0.38233  -0.37847  -0.37824  -0.37481
 Alpha  occ. eigenvalues --   -0.37426  -0.37045  -0.36969  -0.36854  -0.36508
 Alpha  occ. eigenvalues --   -0.36308  -0.36052  -0.35869  -0.35420  -0.35222
 Alpha  occ. eigenvalues --   -0.34896  -0.34220  -0.34040  -0.33925  -0.33339
 Alpha  occ. eigenvalues --   -0.32586  -0.32534  -0.31861  -0.30813  -0.30009
 Alpha  occ. eigenvalues --   -0.29922  -0.28814  -0.28217  -0.26668  -0.22846
 Alpha  occ. eigenvalues --   -0.21817
 Alpha virt. eigenvalues --   -0.06795  -0.03270   0.02321   0.03812   0.05348
 Alpha virt. eigenvalues --    0.05848   0.06746   0.06970   0.07317   0.07754
 Alpha virt. eigenvalues --    0.08695   0.10669   0.10936   0.11503   0.11529

 Mulliken charges:
               1
     1  Mg   0.840633
     2  C    0.063811
     3  C   -0.225468
     4  C   -0.187717
     5  C   -0.120441
     6  N   -0.618253
     7  C    0.285280
     8  C   -0.174133
     9  C   -0.147369
    10  C    0.351691
    11  C   -0.296156
    12  C   -0.154354
    13  C   -0.264080
    14  C    0.593173
    15  O   -0.416823
    16  O   -0.429540
    17  N   -0.682788
    18  C    0.339900
    19  C    0.091552
    20  C   -0.039027
    21  C    0.289331
    22  C   -0.405111
    23  C   -0.080515
    24  C   -0.237575
    25  N   -0.715527
    26  C    0.354399
    27  C    0.007342
    28  C   -0.015099
    29  C    0.239991
    30  C   -0.375632
    31  C   -0.228431
    32  C   -0.291655
    33  N   -0.750803
    34  C    0.289276
    35  C    0.028749
    36  C   -0.005004
    37  C    0.291967
    38  C   -0.409623
    39  C    0.357400
    40  O   -0.409023
    41  C   -0.364141
    42  C    0.643303
    43  O   -0.503389
    44  O   -0.450593
    45  C   -0.068461
    46  C   -0.002470
    47  C   -0.138619
    48  C    0.108702
    49  C   -0.348643
    50  C   -0.217323
    51  C   -0.162960
    52  C   -0.164096
    53  C   -0.032551
    54  C   -0.337490
    55  C   -0.191165
    56  C   -0.188676
    57  C   -0.182167
    58  C   -0.045987
    59  C   -0.313876
    60  C   -0.170278
    61  C   -0.186938
    62  C   -0.161685
    63  C   -0.089648
    64  C   -0.305062
    65  C   -0.310285
    66  H    0.053661
    67  H    0.103405
    68  H    0.093794
    69  H    0.140551
    70  H    0.101725
    71  H    0.118875
    72  H    0.119608
    73  H    0.096892
    74  H    0.119452
    75  H    0.129922
    76  H    0.080657
    77  H    0.122499
    78  H    0.109756
    79  H    0.133617
    80  H    0.113889
    81  H    0.089041
    82  H    0.111965
    83  H    0.115271
    84  H    0.120141
    85  H    0.101728
    86  H    0.126867
    87  H    0.117398
    88  H    0.092468
    89  H    0.101984
    90  H    0.104845
    91  H    0.108688
    92  H    0.135491
    93  H    0.147040
    94  H    0.105233
    95  H    0.164835
    96  H    0.117162
    97  H    0.126606
    98  H    0.123998
    99  H    0.116931
   100  H    0.101528
   101  H    0.085267
   102  H    0.121062
   103  H    0.097013
   104  H    0.123944
   105  H    0.098091
   106  H    0.061255
   107  H    0.118976
   108  H    0.063714
   109  H    0.089000
   110  H    0.080260
   111  H    0.098320
   112  H    0.111986
   113  H    0.081669
   114  H    0.099693
   115  H    0.093669
   116  H    0.089135
   117  H    0.105937
   118  H    0.097002
   119  H    0.069360
   120  H    0.092357
   121  H    0.093534
   122  H    0.082410
   123  H    0.100809
   124  H    0.091446
   125  H    0.097440
   126  H    0.090772
   127  H    0.094949
   128  H    0.080034
   129  H    0.101155
   130  H    0.036621
   131  H    0.067438
   132  H    0.115528
   133  H    0.105657
   134  H    0.113535
   135  H    0.106484
   136  H    0.112807
   137  H    0.104300
 Sum of Mulliken charges =   0.00000

 Dipole moment (field-independent basis, Debye):
    X=              1.0312    Y=              4.1581    Z=             -1.3569  Tot=              4.4938
 Quadrupole moment (field-independent basis, Debye-Ang):
   XX=           -349.7603   YY=           -383.1382   ZZ=           -402.8495
   XY=            -14.1351   XZ=              8.2310   YZ=              4.6434

 Normal termination of Gaussian 09 at Sat Jun 29 00:57:00 2019.
