 Gaussian 09, Revision D.01,
 Gaussian 09:  ES64L-G09RevD.01 24-Apr-2013

 -------------------------------------
 # td=(NStates=1) CAM-B3LYP/6-31G(d,p)
 -------------------------------------

 --
 TD
 --
 Symbolic Z-matrix:
 Charge =  0 Multiplicity = 1

                         Standard orientation:
 ---------------------------------------------------------------------
 Center     Atomic      Atomic             Coordinates (Angstroms)
 Number     Number       Type             X           Y           Z
 ---------------------------------------------------------------------
      1         12           0       -7.121649    0.551090    0.232543
      2          6           0       -4.908282   -1.921359    0.551452
      3          6           0       -4.796917    2.748177    1.219064
      4          6           0       -9.474383    3.162785   -0.287868
      5          6           0       -9.501695   -1.740121   -0.880514
      6          7           0       -5.125702    0.449036    0.796724
      7          6           0       -4.385500   -0.695599    0.812575
      8          6           0       -2.930662   -0.420301    1.228958
      9          6           0       -2.993736    1.088630    1.687050
     10          6           0       -4.344401    1.525982    1.191248
     11          6           0       -2.784940    1.282086    3.193000
     12          6           0       -1.936176   -0.667476    0.134787
     13          6           0       -0.527188   -0.402628    0.387987
     14          6           0        0.481487   -0.726040   -0.635000
     15          8           0        0.229541   -0.957220   -1.799003
     16          8           0        1.770960   -0.523507   -0.227704
     17          7           0       -7.144402    2.569530    0.489099
     18          6           0       -6.157516    3.343686    0.879536
     19          6           0       -6.389563    4.701902    0.976355
     20          6           0       -7.747692    4.828756    0.460058
     21          6           0       -8.162890    3.456594    0.186204
     22          6           0       -5.521018    5.796188    1.361113
     23          6           0       -8.637882    5.935620    0.335986
     24          6           0       -8.280569    7.171135   -0.009954
     25          7           0       -9.048622    0.672717   -0.451635
     26          6           0       -9.842609    1.780242   -0.603566
     27          6           0      -11.223442    1.533557   -1.044039
     28          6           0      -11.306921    0.215921   -1.365207
     29          6           0       -9.947785   -0.338719   -0.896376
     30          6           0      -12.318921    2.446994   -1.453103
     31          6           0      -12.326878   -0.781656   -1.828093
     32          6           0      -12.170243   -1.032911   -3.353646
     33          7           0       -7.187996   -1.348869   -0.119806
     34          6           0       -8.254113   -2.177232   -0.568332
     35          6           0       -7.840466   -3.623748   -0.506412
     36          6           0       -6.516273   -3.542427    0.033155
     37          6           0       -6.182833   -2.226905    0.111119
     38          6           0       -8.515788   -4.858542   -0.924368
     39          6           0       -5.358117   -4.356371    0.426485
     40          8           0       -5.249644   -5.550179    0.382369
     41          6           0       -4.236664   -3.393515    0.644090
     42          6           0       -3.463755   -3.699598    1.880360
     43          8           0       -3.716387   -3.038121    2.951104
     44          8           0       -2.715100   -4.735268    1.729732
     45          6           0       -2.182993   -5.280405    2.952244
     46          6           0        2.799317   -0.762564   -1.300629
     47          6           0        4.154995   -0.454325   -0.604751
     48          6           0        5.103228    0.405703   -1.015425
     49          6           0        5.040567    1.184290   -2.290209
     50          6           0        6.461901    0.478405   -0.307087
     51          6           0        7.668502   -0.236126   -1.026498
     52          6           0        8.945688   -0.181630   -0.153659
     53          6           0       10.207229   -0.614547   -1.005495
     54          6           0       10.023579   -2.019445   -1.511892
     55          6           0       11.414531   -0.392366   -0.139425
     56          6           0       12.792263   -0.551950   -0.847586
     57          6           0       13.969367   -0.032050   -0.048823
     58          6           0       15.293623   -0.011439   -0.643855
     59          6           0       15.753503   -1.469629   -1.124919
     60          6           0       16.286471    0.538733    0.424339
     61          6           0       17.770595    0.635737   -0.104661
     62          6           0       18.820782    1.126335    0.983082
     63          6           0       20.150179    1.345615    0.415546
     64          6           0       20.219414    2.202310   -0.778393
     65          6           0       21.233175    1.814224    1.467094
     66          1           0       -4.076624    3.449157    1.558327
     67          1           0      -10.046483    3.962537   -0.385102
     68          1           0      -10.123588   -2.572247   -1.330550
     69          1           0       -2.761906   -1.187911    2.134760
     70          1           0       -2.467742    1.864467    1.278211
     71          1           0       -1.909822    1.063776    3.604490
     72          1           0       -2.859781    2.289823    3.533000
     73          1           0       -3.266489    0.656555    3.774536
     74          1           0       -2.028461   -1.605803   -0.450479
     75          1           0       -2.002060    0.049286   -0.788954
     76          1           0       -0.355920    0.711443    0.836250
     77          1           0       -0.263253   -1.085846    1.296826
     78          1           0       -4.768921    6.118536    0.421482
     79          1           0       -6.083885    6.736726    1.496211
     80          1           0       -4.881506    5.779411    2.218713
     81          1           0       -9.629694    5.953629    0.496968
     82          1           0       -9.016991    7.879541   -0.001016
     83          1           0       -7.339267    7.589044   -0.270760
     84          1           0      -11.836620    2.853295   -2.501092
     85          1           0      -13.158889    1.821295   -1.738700
     86          1           0      -12.253442    3.401791   -0.712935
     87          1           0      -12.357573   -1.469644   -1.204567
     88          1           0      -13.171051   -0.112694   -1.703055
     89          1           0      -13.019146   -1.584100   -3.562114
     90          1           0      -12.213312   -0.075827   -3.877926
     91          1           0      -11.218303   -1.666896   -3.579024
     92          1           0       -8.734298   -4.622307   -1.853527
     93          1           0       -7.857238   -5.547700   -1.087536
     94          1           0       -9.416932   -4.916073   -0.135441
     95          1           0       -3.661868   -3.259129   -0.308315
     96          1           0       -1.717867   -4.507004    3.558048
     97          1           0       -3.116849   -5.621069    3.623643
     98          1           0       -1.556344   -5.980563    2.755885
     99          1           0        2.740453   -1.882970   -1.596605
    100          1           0        2.537358   -0.096069   -2.068799
    101          1           0        4.304745   -1.074659    0.293735
    102          1           0        3.955716    1.413424   -2.735935
    103          1           0        5.356107    2.148007   -2.058321
    104          1           0        5.852531    0.709244   -2.854483
    105          1           0        6.676296    1.488066    0.253637
    106          1           0        6.373751   -0.023373    0.596314
    107          1           0        7.174955   -1.219328   -1.226545
    108          1           0        7.795564    0.199344   -2.006803
    109          1           0        9.111837    0.902171    0.260868
    110          1           0        8.825588   -0.709023    0.878551
    111          1           0       10.289816    0.109102   -1.884536
    112          1           0        9.186711   -2.109624   -2.392697
    113          1           0       10.999423   -2.357845   -1.829508
    114          1           0        9.655164   -2.839945   -0.935362
    115          1           0       11.389186    0.805656    0.056499
    116          1           0       11.290888   -0.876790    0.753250
    117          1           0       12.806858   -1.709299   -1.028957
    118          1           0       12.707919   -0.240249   -1.830083
    119          1           0       13.581172    0.954110    0.312507
    120          1           0       14.049375   -0.591934    0.893868
    121          1           0       15.351249    0.589858   -1.349271
    122          1           0       15.767593   -2.066008   -0.347484
    123          1           0       15.030720   -1.953272   -1.799991
    124          1           0       16.812250   -1.382145   -1.576831
    125          1           0       16.029595    1.502410    0.821696
    126          1           0       16.507652   -0.003270    1.304788
    127          1           0       18.066358   -0.424179   -0.358876
    128          1           0       17.807197    0.991253   -1.065722
    129          1           0       18.473426    2.101573    1.401709
    130          1           0       18.765948    0.215552    1.973815
    131          1           0       20.536396    0.444405   -0.079204
    132          1           0       19.924635    3.305052   -0.435422
    133          1           0       21.130792    2.173185   -1.307611
    134          1           0       19.472859    2.125166   -1.568346
    135          1           0       21.342807    1.238809    2.412231
    136          1           0       22.385189    1.561000    0.948058
    137          1           0       21.028422    2.813589    1.897814
 ---------------------------------------------------------------------

 SCF Done:  E(RCAM-B3LYP) =  -2932.58090488     A.U. after   15 cycles

 Excitation energies and oscillator strengths:

 Excited State   1:      Singlet-A      1.9561 eV  633.83 nm  f=0.3127  <S**2>=0.000
     240 -> 243       -0.21480
     241 -> 242        0.66679
 This state for optimization and/or second-order correction.
 Total Energy, E(TD-HF/TD-KS) =  -2932.50901867
 Copying the excited state density for this state as the 1-particle RhoCI density.

 The electronic state is 1-A.
 Alpha  occ. eigenvalues --  -46.82518 -19.28898 -19.24912 -19.20384 -19.20382
 Alpha  occ. eigenvalues --  -19.20168 -14.40276 -14.39735 -14.38721 -14.38366
 Alpha  occ. eigenvalues --  -10.39905 -10.38495 -10.34764 -10.32146 -10.31788
 Alpha  occ. eigenvalues --  -10.30024 -10.29717 -10.29480 -10.29305 -10.29236
 Alpha  occ. eigenvalues --  -10.28854 -10.28356 -10.28229 -10.28189 -10.28152
 Alpha  occ. eigenvalues --  -10.28105 -10.28060 -10.27769 -10.27763 -10.27700
 Alpha  occ. eigenvalues --  -10.27391 -10.27179 -10.27172 -10.26796 -10.26667
 Alpha  occ. eigenvalues --  -10.26539 -10.26439 -10.26436 -10.26397 -10.26211
 Alpha  occ. eigenvalues --  -10.26086 -10.25958 -10.25909 -10.25895 -10.25893
 Alpha  occ. eigenvalues --  -10.25885 -10.25796 -10.25783 -10.25699 -10.25377
 Alpha  occ. eigenvalues --  -10.25311 -10.25177 -10.25120 -10.25117 -10.25082
 Alpha  occ. eigenvalues --  -10.24619 -10.24608 -10.24574 -10.24481 -10.24440
 Alpha  occ. eigenvalues --  -10.24397 -10.24170 -10.24092 -10.23695 -10.22209
 Alpha  occ. eigenvalues --   -3.11870  -1.86548  -1.86115  -1.86085  -1.20808
 Alpha  occ. eigenvalues --   -1.16443  -1.12211  -1.07521  -1.06866  -1.03848
 Alpha  occ. eigenvalues --   -1.03118  -1.01879  -1.01031  -0.92324  -0.91343
 Alpha  occ. eigenvalues --   -0.90632  -0.90112  -0.89821  -0.89654  -0.89201
 Alpha  occ. eigenvalues --   -0.88985  -0.88735  -0.87689  -0.87054  -0.85705
 Alpha  occ. eigenvalues --   -0.84967  -0.84718  -0.84317  -0.83358  -0.82874
 Alpha  occ. eigenvalues --   -0.82504  -0.81089  -0.80263  -0.79916  -0.78702
 Alpha  occ. eigenvalues --   -0.77778  -0.77361  -0.76182  -0.75918  -0.75842
 Alpha  occ. eigenvalues --   -0.75383  -0.74928  -0.74575  -0.73410  -0.72340
 Alpha  occ. eigenvalues --   -0.72119  -0.71303  -0.70349  -0.69264  -0.68198
 Alpha  occ. eigenvalues --   -0.67351  -0.67030  -0.65979  -0.65494  -0.65172
 Alpha  occ. eigenvalues --   -0.65030  -0.63885  -0.63317  -0.62559  -0.62116
 Alpha  occ. eigenvalues --   -0.61146  -0.60884  -0.59749  -0.59523  -0.59465
 Alpha  occ. eigenvalues --   -0.58703  -0.58358  -0.57852  -0.56814  -0.56669
 Alpha  occ. eigenvalues --   -0.56271  -0.55884  -0.55098  -0.54932  -0.54797
 Alpha  occ. eigenvalues --   -0.54245  -0.53996  -0.53721  -0.53461  -0.53186
 Alpha  occ. eigenvalues --   -0.52918  -0.52392  -0.52069  -0.51931  -0.51769
 Alpha  occ. eigenvalues --   -0.51715  -0.51465  -0.51223  -0.51077  -0.50914
 Alpha  occ. eigenvalues --   -0.50723  -0.50349  -0.49988  -0.49663  -0.49404
 Alpha  occ. eigenvalues --   -0.49208  -0.48854  -0.48820  -0.48605  -0.48401
 Alpha  occ. eigenvalues --   -0.48222  -0.47843  -0.47647  -0.47364  -0.47178
 Alpha  occ. eigenvalues --   -0.47015  -0.46767  -0.46225  -0.46196  -0.46110
 Alpha  occ. eigenvalues --   -0.45762  -0.45560  -0.45493  -0.45325  -0.45030
 Alpha  occ. eigenvalues --   -0.44687  -0.44592  -0.44413  -0.44193  -0.44129
 Alpha  occ. eigenvalues --   -0.43858  -0.43683  -0.43269  -0.43187  -0.42936
 Alpha  occ. eigenvalues --   -0.42856  -0.42753  -0.42697  -0.42600  -0.42360
 Alpha  occ. eigenvalues --   -0.42117  -0.41943  -0.41875  -0.41816  -0.41446
 Alpha  occ. eigenvalues --   -0.41233  -0.40848  -0.40804  -0.40506  -0.40124
 Alpha  occ. eigenvalues --   -0.40062  -0.40014  -0.39451  -0.39229  -0.38926
 Alpha  occ. eigenvalues --   -0.38523  -0.38283  -0.38262  -0.37875  -0.37726
 Alpha  occ. eigenvalues --   -0.37390  -0.37219  -0.36934  -0.36740  -0.36520
 Alpha  occ. eigenvalues --   -0.36322  -0.36068  -0.35742  -0.35278  -0.35100
 Alpha  occ. eigenvalues --   -0.35070  -0.34631  -0.34561  -0.33894  -0.33399
 Alpha  occ. eigenvalues --   -0.33144  -0.32954  -0.31453  -0.30512  -0.30016
 Alpha  occ. eigenvalues --   -0.29739  -0.28981  -0.28118  -0.26421  -0.22299
 Alpha  occ. eigenvalues --   -0.20608
 Alpha virt. eigenvalues --   -0.06423  -0.02237   0.02250   0.04902   0.05352
 Alpha virt. eigenvalues --    0.06077   0.06785   0.06841   0.07797   0.08319
 Alpha virt. eigenvalues --    0.08980   0.10714   0.10779   0.11030   0.11206

 Mulliken charges:
               1
     1  Mg   0.806741
     2  C   -0.000164
     3  C   -0.223023
     4  C   -0.105902
     5  C   -0.212583
     6  N   -0.668477
     7  C    0.324765
     8  C   -0.176992
     9  C   -0.128270
    10  C    0.371167
    11  C   -0.315011
    12  C   -0.169869
    13  C   -0.252322
    14  C    0.614343
    15  O   -0.479078
    16  O   -0.504234
    17  N   -0.686412
    18  C    0.306190
    19  C    0.080283
    20  C   -0.001959
    21  C    0.254755
    22  C   -0.387691
    23  C   -0.107483
    24  C   -0.232005
    25  N   -0.634821
    26  C    0.284813
    27  C    0.007221
    28  C    0.020825
    29  C    0.226069
    30  C   -0.357291
    31  C   -0.207340
    32  C   -0.302458
    33  N   -0.739218
    34  C    0.293135
    35  C   -0.042330
    36  C    0.013635
    37  C    0.321573
    38  C   -0.324695
    39  C    0.376761
    40  O   -0.452868
    41  C   -0.294801
    42  C    0.621451
    43  O   -0.521725
    44  O   -0.406275
    45  C   -0.082242
    46  C    0.026613
    47  C   -0.132059
    48  C    0.097169
    49  C   -0.355218
    50  C   -0.242698
    51  C   -0.176231
    52  C   -0.173955
    53  C   -0.053200
    54  C   -0.310323
    55  C   -0.167863
    56  C   -0.184104
    57  C   -0.164951
    58  C   -0.035043
    59  C   -0.321518
    60  C   -0.188173
    61  C   -0.211673
    62  C   -0.142708
    63  C   -0.042424
    64  C   -0.299523
    65  C   -0.298777
    66  H    0.056417
    67  H    0.069347
    68  H    0.088824
    69  H    0.135524
    70  H    0.109359
    71  H    0.110354
    72  H    0.100984
    73  H    0.128482
    74  H    0.114610
    75  H    0.106763
    76  H    0.129041
    77  H    0.108359
    78  H    0.086444
    79  H    0.118914
    80  H    0.123235
    81  H    0.095902
    82  H    0.090185
    83  H    0.103565
    84  H    0.111996
    85  H    0.123244
    86  H    0.109088
    87  H    0.116814
    88  H    0.092175
    89  H    0.116168
    90  H    0.114705
    91  H    0.104439
    92  H    0.134813
    93  H    0.146271
    94  H    0.129868
    95  H    0.178881
    96  H    0.141680
    97  H    0.128561
    98  H    0.132515
    99  H    0.122376
   100  H    0.131483
   101  H    0.091065
   102  H    0.102362
   103  H    0.127896
   104  H    0.124616
   105  H    0.081955
   106  H    0.110263
   107  H    0.105247
   108  H    0.100654
   109  H    0.082640
   110  H    0.086607
   111  H    0.088545
   112  H    0.079392
   113  H    0.101378
   114  H    0.113275
   115  H    0.059740
   116  H    0.102107
   117  H    0.070202
   118  H    0.099297
   119  H    0.083664
   120  H    0.091083
   121  H    0.090562
   122  H    0.119670
   123  H    0.099490
   124  H    0.091268
   125  H    0.090442
   126  H    0.095942
   127  H    0.086814
   128  H    0.100210
   129  H    0.088245
   130  H    0.046462
   131  H    0.091070
   132  H    0.066046
   133  H    0.112269
   134  H    0.106306
   135  H    0.101965
   136  H    0.064817
   137  H    0.105518
 Sum of Mulliken charges =   0.00000

 Dipole moment (field-independent basis, Debye):
    X=              1.4135    Y=              1.5415    Z=             -0.1621  Tot=              2.0977
 Quadrupole moment (field-independent basis, Debye-Ang):
   XX=           -335.5239   YY=           -384.6214   ZZ=           -395.2666
   XY=            -14.6873   XZ=             12.8993   YZ=             -2.5844

 Normal termination of Gaussian 09 at Sun Jun 30 03:49:42 2019.
