 Gaussian 09, Revision D.01,
 Gaussian 09:  ES64L-G09RevD.01 24-Apr-2013

 -------------------------------------
 # td=(NStates=1) CAM-B3LYP/6-31G(d,p)
 -------------------------------------

 --
 TD
 --
 Symbolic Z-matrix:
 Charge =  0 Multiplicity = 1

                         Standard orientation:
 ---------------------------------------------------------------------
 Center     Atomic      Atomic             Coordinates (Angstroms)
 Number     Number       Type             X           Y           Z
 ---------------------------------------------------------------------
      1         12           0       -7.210679    0.649264    0.158273
      2          6           0       -4.843961   -1.903288    0.439605
      3          6           0       -4.898556    2.846536    1.048065
      4          6           0       -9.497762    3.099173   -0.331933
      5          6           0       -9.585011   -1.749724   -0.688153
      6          7           0       -5.036513    0.469697    0.667510
      7          6           0       -4.270862   -0.639788    0.777010
      8          6           0       -2.867622   -0.347495    1.105640
      9          6           0       -2.998979    1.212905    1.473640
     10          6           0       -4.414931    1.509498    1.033123
     11          6           0       -2.852093    1.426775    3.007444
     12          6           0       -1.927206   -0.530905   -0.084245
     13          6           0       -0.557885   -0.359513    0.416136
     14          6           0        0.452722   -0.664441   -0.736034
     15          8           0        0.215957   -0.968632   -1.841153
     16          8           0        1.831868   -0.502078   -0.217092
     17          7           0       -7.249862    2.632719    0.355904
     18          6           0       -6.044379    3.388734    0.654288
     19          6           0       -6.538211    4.767379    0.869328
     20          6           0       -7.759876    4.744857    0.301174
     21          6           0       -8.237133    3.460565    0.063229
     22          6           0       -5.643641    5.855399    1.230463
     23          6           0       -8.684317    5.910202    0.246631
     24          6           0       -8.360937    7.196449    0.055002
     25          7           0       -9.229362    0.664006   -0.302699
     26          6           0       -9.893059    1.768392   -0.518621
     27          6           0      -11.254031    1.392668   -0.986688
     28          6           0      -11.325799    0.036203   -1.156107
     29          6           0      -10.002990   -0.422105   -0.537210
     30          6           0      -12.330396    2.378050   -1.303855
     31          6           0      -12.444034   -0.903867   -1.473169
     32          6           0      -12.408335   -1.138564   -2.996310
     33          7           0       -7.228077   -1.416464   -0.085911
     34          6           0       -8.290576   -2.245037   -0.434197
     35          6           0       -7.870023   -3.601366   -0.385512
     36          6           0       -6.403852   -3.578908   -0.051784
     37          6           0       -6.081563   -2.182283    0.022550
     38          6           0       -8.720970   -4.945542   -0.664493
     39          6           0       -5.273044   -4.390783    0.219963
     40          8           0       -5.221184   -5.618006    0.248186
     41          6           0       -4.082563   -3.261718    0.462468
     42          6           0       -3.355320   -3.541242    1.676824
     43          8           0       -3.583457   -3.055670    2.818669
     44          8           0       -2.517639   -4.602970    1.537841
     45          6           0       -1.954817   -5.081717    2.862119
     46          6           0        2.840373   -0.787781   -1.216155
     47          6           0        4.175649   -0.539849   -0.649445
     48          6           0        5.201695    0.296938   -0.975625
     49          6           0        4.997300    1.079947   -2.328823
     50          6           0        6.500345    0.285672   -0.308940
     51          6           0        7.683386   -0.208923   -1.044365
     52          6           0        8.907330   -0.048123   -0.141350
     53          6           0       10.194876   -0.506289   -0.857940
     54          6           0       10.121053   -2.083775   -1.268171
     55          6           0       11.455416   -0.301326    0.019256
     56          6           0       12.760848   -0.427287   -0.657382
     57          6           0       13.984639    0.073312    0.136145
     58          6           0       15.381195   -0.234721   -0.459910
     59          6           0       15.612362   -1.778790   -0.633182
     60          6           0       16.450338    0.465366    0.403092
     61          6           0       17.837181    0.558968   -0.068207
     62          6           0       18.902254    1.270310    0.780183
     63          6           0       20.303692    1.339748    0.239865
     64          6           0       20.380446    2.149706   -0.931646
     65          6           0       21.212034    1.982544    1.355073
     66          1           0       -4.142414    3.517281    1.315595
     67          1           0      -10.193577    3.884488   -0.521633
     68          1           0      -10.559854   -2.320450   -0.761285
     69          1           0       -2.465746   -0.910709    2.030987
     70          1           0       -2.270333    1.765034    0.871964
     71          1           0       -1.739487    1.227461    3.400658
     72          1           0       -3.126521    2.269127    3.411130
     73          1           0       -3.512565    0.747866    3.690768
     74          1           0       -1.954246   -1.683940   -0.206568
     75          1           0       -1.933247    0.015352   -0.983709
     76          1           0       -0.323023    0.583312    0.970205
     77          1           0       -0.396346   -0.943175    1.218892
     78          1           0       -4.992253    6.109244    0.389422
     79          1           0       -6.070958    6.709466    1.777959
     80          1           0       -4.780852    5.696615    2.178640
     81          1           0       -9.842873    5.676134    0.538349
     82          1           0       -9.216927    7.721442   -0.106346
     83          1           0       -7.349764    7.512533   -0.357343
     84          1           0      -12.060319    3.259870   -1.959688
     85          1           0      -13.180150    1.736651   -1.672874
     86          1           0      -12.634434    2.971563   -0.312685
     87          1           0      -12.563894   -1.822720   -0.815105
     88          1           0      -13.367192   -0.281630   -1.432881
     89          1           0      -13.266672   -1.830767   -3.322855
     90          1           0      -12.346549   -0.155397   -3.635181
     91          1           0      -11.566295   -1.829193   -3.306026
     92          1           0       -9.222641   -4.814897   -1.627816
     93          1           0       -8.118154   -5.702594   -0.527673
     94          1           0       -9.535674   -5.069925    0.149448
     95          1           0       -3.347230   -3.438078   -0.305584
     96          1           0       -1.562456   -4.233273    3.529558
     97          1           0       -2.926953   -5.269090    3.194806
     98          1           0       -1.384641   -5.815191    2.657020
     99          1           0        2.744714   -2.036226   -1.580199
    100          1           0        2.645335   -0.151981   -1.990667
    101          1           0        4.164400   -1.007286    0.371875
    102          1           0        4.051892    1.264339   -2.358736
    103          1           0        5.552151    1.997181   -2.267278
    104          1           0        5.474091    0.672640   -3.380561
    105          1           0        6.753530    1.248304   -0.042704
    106          1           0        6.244280   -0.202754    0.730441
    107          1           0        7.384897   -1.347705   -1.224880
    108          1           0        7.949205    0.332581   -1.905805
    109          1           0        8.963807    0.985425    0.032495
    110          1           0        8.757003   -0.704144    0.727269
    111          1           0       10.337477   -0.114267   -1.787952
    112          1           0        9.367761   -2.022061   -2.096442
    113          1           0       11.012014   -2.230231   -1.678090
    114          1           0       10.096257   -2.806483   -0.505407
    115          1           0       11.377896    0.904362    0.276957
    116          1           0       11.327313   -1.101273    0.785060
    117          1           0       12.739670   -1.550381   -1.074754
    118          1           0       12.626578   -0.040076   -1.701667
    119          1           0       13.714959    1.240214    0.030832
    120          1           0       14.026252   -0.063443    1.337289
    121          1           0       15.315271    0.288491   -1.405989
    122          1           0       15.384763   -2.366878    0.354676
    123          1           0       14.979310   -2.037239   -1.378273
    124          1           0       16.683612   -1.922690   -1.020016
    125          1           0       16.125095    1.510839    0.567649
    126          1           0       16.333206   -0.135664    1.441906
    127          1           0       18.116811   -0.501422   -0.411760
    128          1           0       17.805018    0.976766   -1.162213
    129          1           0       18.654013    2.144755    0.969838
    130          1           0       18.787488    0.939774    1.772552
    131          1           0       20.867985    0.251338    0.018705
    132          1           0       20.271783    3.180650   -0.772083
    133          1           0       21.235551    2.049901   -1.395225
    134          1           0       19.753897    2.006777   -1.829223
    135          1           0       20.983479    1.539470    2.237948
    136          1           0       22.285026    1.772622    1.260396
    137          1           0       20.908513    2.944471    1.816219
 ---------------------------------------------------------------------

 SCF Done:  E(RCAM-B3LYP) =  -2932.57185172     A.U. after   16 cycles

 Excitation energies and oscillator strengths:

 Excited State   1:      Singlet-A      2.1767 eV  569.59 nm  f=0.2379  <S**2>=0.000
     240 -> 243       -0.25976
     241 -> 242        0.65188
 This state for optimization and/or second-order correction.
 Total Energy, E(TD-HF/TD-KS) =  -2932.49185876
 Copying the excited state density for this state as the 1-particle RhoCI density.

 The electronic state is 1-A.
 Alpha  occ. eigenvalues --  -46.85092 -19.25542 -19.24545 -19.23783 -19.19999
 Alpha  occ. eigenvalues --  -19.19554 -14.42761 -14.39377 -14.39242 -14.38999
 Alpha  occ. eigenvalues --  -10.40369 -10.38318 -10.34981 -10.31764 -10.31318
 Alpha  occ. eigenvalues --  -10.30534 -10.30398 -10.29678 -10.29582 -10.29033
 Alpha  occ. eigenvalues --  -10.28997 -10.28899 -10.28695 -10.28624 -10.28498
 Alpha  occ. eigenvalues --  -10.28461 -10.28421 -10.28261 -10.28028 -10.27951
 Alpha  occ. eigenvalues --  -10.27947 -10.27679 -10.27673 -10.27427 -10.27403
 Alpha  occ. eigenvalues --  -10.27380 -10.27305 -10.27045 -10.27021 -10.27000
 Alpha  occ. eigenvalues --  -10.26821 -10.26819 -10.26751 -10.26277 -10.26183
 Alpha  occ. eigenvalues --  -10.26052 -10.26039 -10.25933 -10.25836 -10.25794
 Alpha  occ. eigenvalues --  -10.25604 -10.25569 -10.25498 -10.25431 -10.25387
 Alpha  occ. eigenvalues --  -10.25258 -10.25187 -10.25172 -10.25168 -10.25010
 Alpha  occ. eigenvalues --  -10.24697 -10.23632 -10.23077 -10.22811 -10.21653
 Alpha  occ. eigenvalues --   -3.14018  -1.88737  -1.88281  -1.88151  -1.18044
 Alpha  occ. eigenvalues --   -1.15841  -1.09686  -1.09072  -1.07633  -1.05701
 Alpha  occ. eigenvalues --   -1.04880  -1.03754  -1.01793  -0.92934  -0.91946
 Alpha  occ. eigenvalues --   -0.91609  -0.91012  -0.90173  -0.89798  -0.89464
 Alpha  occ. eigenvalues --   -0.89003  -0.88444  -0.87521  -0.86518  -0.85885
 Alpha  occ. eigenvalues --   -0.85316  -0.84122  -0.83774  -0.83415  -0.82933
 Alpha  occ. eigenvalues --   -0.81911  -0.81732  -0.81134  -0.79715  -0.78572
 Alpha  occ. eigenvalues --   -0.78134  -0.77862  -0.77337  -0.76848  -0.76266
 Alpha  occ. eigenvalues --   -0.76041  -0.75309  -0.74743  -0.73293  -0.72555
 Alpha  occ. eigenvalues --   -0.72523  -0.71220  -0.69531  -0.69002  -0.68363
 Alpha  occ. eigenvalues --   -0.67174  -0.66358  -0.66076  -0.66001  -0.64417
 Alpha  occ. eigenvalues --   -0.64169  -0.64126  -0.63210  -0.62898  -0.61564
 Alpha  occ. eigenvalues --   -0.61454  -0.61121  -0.60783  -0.59777  -0.59166
 Alpha  occ. eigenvalues --   -0.58595  -0.58017  -0.57751  -0.57044  -0.56704
 Alpha  occ. eigenvalues --   -0.56518  -0.55910  -0.55686  -0.55536  -0.54961
 Alpha  occ. eigenvalues --   -0.54674  -0.54418  -0.53762  -0.53648  -0.53378
 Alpha  occ. eigenvalues --   -0.53051  -0.52925  -0.52493  -0.52305  -0.51878
 Alpha  occ. eigenvalues --   -0.51525  -0.51341  -0.51224  -0.50973  -0.50744
 Alpha  occ. eigenvalues --   -0.50568  -0.50333  -0.50015  -0.49849  -0.49667
 Alpha  occ. eigenvalues --   -0.49659  -0.49235  -0.49094  -0.48810  -0.48503
 Alpha  occ. eigenvalues --   -0.48455  -0.47786  -0.47685  -0.47267  -0.47176
 Alpha  occ. eigenvalues --   -0.47024  -0.46719  -0.46682  -0.46590  -0.46461
 Alpha  occ. eigenvalues --   -0.46351  -0.46110  -0.45733  -0.45478  -0.45271
 Alpha  occ. eigenvalues --   -0.45163  -0.45113  -0.44638  -0.44486  -0.44408
 Alpha  occ. eigenvalues --   -0.44224  -0.44123  -0.43983  -0.43882  -0.43726
 Alpha  occ. eigenvalues --   -0.43279  -0.43156  -0.42529  -0.42425  -0.42393
 Alpha  occ. eigenvalues --   -0.42345  -0.41859  -0.41665  -0.41609  -0.41523
 Alpha  occ. eigenvalues --   -0.41422  -0.41232  -0.41000  -0.40849  -0.40493
 Alpha  occ. eigenvalues --   -0.39920  -0.39437  -0.39222  -0.39206  -0.38981
 Alpha  occ. eigenvalues --   -0.38854  -0.38408  -0.38250  -0.38101  -0.37969
 Alpha  occ. eigenvalues --   -0.37674  -0.37331  -0.37233  -0.36864  -0.36815
 Alpha  occ. eigenvalues --   -0.36156  -0.35990  -0.35649  -0.35338  -0.35142
 Alpha  occ. eigenvalues --   -0.34815  -0.34703  -0.34603  -0.34127  -0.33648
 Alpha  occ. eigenvalues --   -0.33336  -0.32821  -0.32461  -0.31312  -0.29593
 Alpha  occ. eigenvalues --   -0.28932  -0.28858  -0.28364  -0.27655  -0.23512
 Alpha  occ. eigenvalues --   -0.21357
 Alpha virt. eigenvalues --   -0.06298  -0.03375   0.00572   0.04080   0.05100
 Alpha virt. eigenvalues --    0.05185   0.05766   0.05793   0.05973   0.07128
 Alpha virt. eigenvalues --    0.08175   0.10004   0.10769   0.11160   0.11813

 Mulliken charges:
               1
     1  Mg   0.819887
     2  C    0.087074
     3  C   -0.177029
     4  C   -0.174260
     5  C   -0.141169
     6  N   -0.594112
     7  C    0.296138
     8  C   -0.186744
     9  C   -0.157483
    10  C    0.354540
    11  C   -0.316465
    12  C   -0.162825
    13  C   -0.269357
    14  C    0.603143
    15  O   -0.408832
    16  O   -0.536131
    17  N   -0.765569
    18  C    0.275619
    19  C    0.082395
    20  C   -0.034154
    21  C    0.420719
    22  C   -0.389808
    23  C   -0.100204
    24  C   -0.236384
    25  N   -0.687272
    26  C    0.362643
    27  C    0.002864
    28  C    0.046443
    29  C    0.221336
    30  C   -0.371599
    31  C   -0.260594
    32  C   -0.307444
    33  N   -0.713726
    34  C    0.294350
    35  C   -0.031744
    36  C    0.014291
    37  C    0.249579
    38  C   -0.340723
    39  C    0.351399
    40  O   -0.469577
    41  C   -0.338689
    42  C    0.628523
    43  O   -0.525575
    44  O   -0.491874
    45  C   -0.067716
    46  C    0.054166
    47  C   -0.120510
    48  C    0.093143
    49  C   -0.346473
    50  C   -0.221222
    51  C   -0.171485
    52  C   -0.148122
    53  C   -0.096041
    54  C   -0.331863
    55  C   -0.140715
    56  C   -0.183890
    57  C   -0.159438
    58  C   -0.066083
    59  C   -0.298472
    60  C   -0.150665
    61  C   -0.181460
    62  C   -0.146345
    63  C   -0.052268
    64  C   -0.288431
    65  C   -0.333307
    66  H    0.080132
    67  H    0.084123
    68  H    0.094039
    69  H    0.143721
    70  H    0.113560
    71  H    0.089439
    72  H    0.126879
    73  H    0.118674
    74  H    0.111225
    75  H    0.132494
    76  H    0.130067
    77  H    0.147061
    78  H    0.139943
    79  H    0.137325
    80  H    0.071741
    81  H    0.089388
    82  H    0.103721
    83  H    0.106255
    84  H    0.119851
    85  H    0.104369
    86  H    0.100917
    87  H    0.123362
    88  H    0.113531
    89  H    0.092463
    90  H    0.112533
    91  H    0.109195
    92  H    0.124347
    93  H    0.152624
    94  H    0.106362
    95  H    0.163085
    96  H    0.131303
    97  H    0.158149
    98  H    0.127007
    99  H    0.079234
   100  H    0.114169
   101  H    0.081186
   102  H    0.123220
   103  H    0.104729
   104  H    0.093507
   105  H    0.100010
   106  H    0.087764
   107  H    0.092842
   108  H    0.101557
   109  H    0.095652
   110  H    0.098004
   111  H    0.084319
   112  H    0.102718
   113  H    0.107229
   114  H    0.105538
   115  H    0.053142
   116  H    0.096030
   117  H    0.064047
   118  H    0.090773
   119  H    0.075042
   120  H    0.079620
   121  H    0.088179
   122  H    0.094642
   123  H    0.120768
   124  H    0.095444
   125  H    0.084576
   126  H    0.059237
   127  H    0.076137
   128  H    0.072535
   129  H    0.100704
   130  H    0.087623
   131  H    0.056340
   132  H    0.103498
   133  H    0.109499
   134  H    0.088997
   135  H    0.109462
   136  H    0.104779
   137  H    0.093961
 Sum of Mulliken charges =   0.00000

 Dipole moment (field-independent basis, Debye):
    X=              0.9170    Y=              6.4193    Z=              0.1035  Tot=              6.4853
 Quadrupole moment (field-independent basis, Debye-Ang):
   XX=           -346.7087   YY=           -398.1555   ZZ=           -396.4487
   XY=            -20.8568   XZ=              8.4902   YZ=             -2.6474

 Normal termination of Gaussian 09 at Wed Jun 26 21:31:03 2019.
