 Gaussian 09, Revision D.01,
 Gaussian 09:  ES64L-G09RevD.01 24-Apr-2013

 -------------------------------------
 # td=(NStates=1) CAM-B3LYP/6-31G(d,p)
 -------------------------------------

 --
 TD
 --
 Symbolic Z-matrix:
 Charge =  0 Multiplicity = 1

                         Standard orientation:
 ---------------------------------------------------------------------
 Center     Atomic      Atomic             Coordinates (Angstroms)
 Number     Number       Type             X           Y           Z
 ---------------------------------------------------------------------
      1         12           0       -7.146866    0.482890    0.170877
      2          6           0       -4.812142   -2.041172    0.567994
      3          6           0       -4.866858    2.806956    1.245376
      4          6           0       -9.400782    3.034358   -0.460654
      5          6           0       -9.507008   -1.852408   -0.777035
      6          7           0       -5.091449    0.348619    0.772117
      7          6           0       -4.334204   -0.727198    0.814091
      8          6           0       -2.897505   -0.371072    1.309125
      9          6           0       -3.066601    1.059095    1.719252
     10          6           0       -4.405752    1.546074    1.203415
     11          6           0       -2.900788    1.302298    3.291603
     12          6           0       -1.971419   -0.604955    0.042414
     13          6           0       -0.524841   -0.240725    0.479617
     14          6           0        0.502144   -0.452778   -0.687179
     15          8           0        0.168133   -0.741358   -1.800365
     16          8           0        1.653691   -0.217537   -0.269947
     17          7           0       -7.198784    2.564028    0.309705
     18          6           0       -6.157050    3.337383    0.917772
     19          6           0       -6.610745    4.740346    0.908566
     20          6           0       -7.820462    4.846236    0.420777
     21          6           0       -8.273561    3.392255    0.056841
     22          6           0       -5.732035    5.775795    1.420384
     23          6           0       -8.729699    5.890533    0.455027
     24          6           0       -8.317308    7.188401    0.317829
     25          7           0       -9.079162    0.582275   -0.600019
     26          6           0       -9.833641    1.641911   -0.679117
     27          6           0      -11.192656    1.328030   -1.074167
     28          6           0      -11.253493    0.024591   -1.225982
     29          6           0       -9.920486   -0.539683   -0.851763
     30          6           0      -12.239646    2.350513   -1.430410
     31          6           0      -12.452030   -0.797022   -1.691159
     32          6           0      -12.431919   -0.954924   -3.295087
     33          7           0       -7.186755   -1.433014   -0.179413
     34          6           0       -8.217130   -2.317332   -0.473808
     35          6           0       -7.764950   -3.729006   -0.443279
     36          6           0       -6.428194   -3.577876    0.027330
     37          6           0       -6.130888   -2.247831    0.073414
     38          6           0       -8.577143   -4.855817   -0.995906
     39          6           0       -5.310420   -4.396872    0.274237
     40          8           0       -5.169745   -5.594657    0.279000
     41          6           0       -4.074347   -3.313350    0.503349
     42          6           0       -3.534876   -3.610571    1.845609
     43          8           0       -3.755042   -3.205798    2.916616
     44          8           0       -2.564354   -4.629887    1.609449
     45          6           0       -2.123045   -5.288782    2.948259
     46          6           0        2.749562   -0.298645   -1.282217
     47          6           0        4.096904   -0.208991   -0.595746
     48          6           0        5.124694    0.532396   -1.064060
     49          6           0        5.226856    1.355910   -2.446693
     50          6           0        6.423660    0.691483   -0.285355
     51          6           0        7.662653    0.019480   -0.993174
     52          6           0        8.879823   -0.066491   -0.150596
     53          6           0       10.209292   -0.523738   -0.943872
     54          6           0       10.123658   -2.006284   -1.265606
     55          6           0       11.460245   -0.199112    0.042599
     56          6           0       12.822142   -0.565653   -0.676644
     57          6           0       14.100379   -0.035874    0.127797
     58          6           0       15.413302   -0.221750   -0.464913
     59          6           0       15.683969   -1.619805   -0.867858
     60          6           0       16.496644    0.245933    0.467428
     61          6           0       17.929656    0.432304   -0.157545
     62          6           0       18.907252    1.091269    0.764325
     63          6           0       20.279822    1.111029    0.200010
     64          6           0       20.308803    2.031890   -0.987694
     65          6           0       21.183526    1.697028    1.291076
     66          1           0       -4.246594    3.695907    1.390948
     67          1           0      -10.270591    3.711230   -0.490878
     68          1           0      -10.235139   -2.526558   -0.988590
     69          1           0       -2.478099   -1.202387    2.113570
     70          1           0       -2.312949    1.555355    1.216594
     71          1           0       -1.988582    0.895919    3.682615
     72          1           0       -2.929233    2.361532    3.323479
     73          1           0       -3.597605    0.881782    4.008323
     74          1           0       -1.768634   -1.665248   -0.275727
     75          1           0       -2.458465   -0.049877   -1.028892
     76          1           0       -0.637437    0.797005    0.849180
     77          1           0       -0.312024   -0.871578    1.278056
     78          1           0       -5.525143    6.489713    0.474749
     79          1           0       -6.177548    6.496130    2.069217
     80          1           0       -4.702680    5.365246    2.011576
     81          1           0       -9.885943    5.826995    0.455003
     82          1           0       -8.893946    8.108294    0.296488
     83          1           0       -7.353494    7.422216   -0.012095
     84          1           0      -11.976543    2.992060   -2.280210
     85          1           0      -13.159728    1.787531   -1.590869
     86          1           0      -12.426054    3.175564   -0.746614
     87          1           0      -12.628206   -1.659446   -1.313592
     88          1           0      -13.482302   -0.450763   -1.392530
     89          1           0      -13.366029   -1.570821   -3.583842
     90          1           0      -12.437657   -0.027935   -3.938242
     91          1           0      -11.648468   -1.795109   -3.624442
     92          1           0       -8.866438   -4.721539   -1.994419
     93          1           0       -7.992182   -5.819797   -0.752430
     94          1           0       -9.661567   -4.864849   -0.596298
     95          1           0       -3.496025   -3.490394   -0.387971
     96          1           0       -1.420190   -4.571796    3.123330
     97          1           0       -3.032260   -5.338056    3.514108
     98          1           0       -1.763426   -6.295182    2.593803
     99          1           0        2.630814   -1.163020   -1.958240
    100          1           0        2.482628    0.704094   -1.938440
    101          1           0        4.035209   -0.530044    0.547338
    102          1           0        4.449567    1.554909   -2.970954
    103          1           0        5.540227    2.325540   -1.962217
    104          1           0        6.162121    1.155875   -3.111178
    105          1           0        6.721635    1.965686   -0.203481
    106          1           0        6.249846    0.291748    0.780057
    107          1           0        7.401317   -1.062379   -1.490106
    108          1           0        8.086927    0.667644   -1.808802
    109          1           0        9.254557    0.899182    0.251868
    110          1           0        8.641868   -0.548933    0.771292
    111          1           0       10.451101    0.067925   -1.748737
    112          1           0        9.198965   -2.102864   -2.094111
    113          1           0       10.957428   -2.242137   -1.840746
    114          1           0        9.849137   -2.651678   -0.345009
    115          1           0       11.406189    0.866732    0.320671
    116          1           0       11.246385   -0.697783    0.970100
    117          1           0       12.894644   -1.715761   -0.751202
    118          1           0       12.861419   -0.169021   -1.730038
    119          1           0       13.832456    1.082398    0.240372
    120          1           0       14.050739   -0.662001    1.163847
    121          1           0       15.486707    0.251404   -1.553765
    122          1           0       15.607585   -2.411294   -0.102298
    123          1           0       14.946986   -1.785179   -1.779958
    124          1           0       16.726723   -1.817713   -1.106070
    125          1           0       16.126430    1.068067    1.035309
    126          1           0       16.563600   -0.327165    1.458287
    127          1           0       18.384581   -0.474145   -0.505394
    128          1           0       17.740797    1.004950   -1.049160
    129          1           0       18.593969    2.262484    1.216906
    130          1           0       18.734710    0.565083    1.739124
    131          1           0       20.517085    0.358131   -0.105253
    132          1           0       20.049603    3.058465   -0.505688
    133          1           0       21.532572    2.346525   -1.233856
    134          1           0       19.829169    1.661513   -1.856481
    135          1           0       21.073843    1.154072    2.401825
    136          1           0       22.335862    1.685138    0.928609
    137          1           0       20.841579    2.761588    1.668896
 ---------------------------------------------------------------------

 SCF Done:  E(RCAM-B3LYP) =  -2932.55845439     A.U. after   18 cycles

 Excitation energies and oscillator strengths:

 Excited State   1:      Singlet-A      2.0486 eV  605.22 nm  f=0.3519  <S**2>=0.000
     240 -> 242       -0.11769
     240 -> 243        0.18312
     241 -> 242        0.65901
     241 -> 243        0.12059
 This state for optimization and/or second-order correction.
 Total Energy, E(TD-HF/TD-KS) =  -2932.48317095
 Copying the excited state density for this state as the 1-particle RhoCI density.

 The electronic state is 1-A.
 Alpha  occ. eigenvalues --  -46.83901 -19.27337 -19.21934 -19.20668 -19.19745
 Alpha  occ. eigenvalues --  -19.19281 -14.41180 -14.40143 -14.39436 -14.38697
 Alpha  occ. eigenvalues --  -10.37967 -10.37291 -10.34097 -10.33930 -10.31749
 Alpha  occ. eigenvalues --  -10.31627 -10.29795 -10.29326 -10.29312 -10.29284
 Alpha  occ. eigenvalues --  -10.29215 -10.28944 -10.28538 -10.28443 -10.28431
 Alpha  occ. eigenvalues --  -10.28293 -10.28256 -10.27970 -10.27924 -10.27637
 Alpha  occ. eigenvalues --  -10.27513 -10.27509 -10.27479 -10.27303 -10.27243
 Alpha  occ. eigenvalues --  -10.27225 -10.27175 -10.26816 -10.26719 -10.26629
 Alpha  occ. eigenvalues --  -10.26537 -10.26525 -10.26519 -10.26428 -10.26357
 Alpha  occ. eigenvalues --  -10.26312 -10.26285 -10.26269 -10.26260 -10.26190
 Alpha  occ. eigenvalues --  -10.26187 -10.25999 -10.25963 -10.25903 -10.25686
 Alpha  occ. eigenvalues --  -10.25582 -10.25265 -10.25225 -10.25171 -10.24996
 Alpha  occ. eigenvalues --  -10.24968 -10.24936 -10.24601 -10.23912 -10.23537
 Alpha  occ. eigenvalues --   -3.12973  -1.87676  -1.87188  -1.87179  -1.21213
 Alpha  occ. eigenvalues --   -1.16245  -1.10756  -1.09357  -1.05689  -1.03888
 Alpha  occ. eigenvalues --   -1.03160  -1.02508  -1.01661  -0.92266  -0.91986
 Alpha  occ. eigenvalues --   -0.91033  -0.90685  -0.90413  -0.89460  -0.89049
 Alpha  occ. eigenvalues --   -0.88671  -0.88413  -0.87276  -0.86599  -0.85488
 Alpha  occ. eigenvalues --   -0.84895  -0.83878  -0.83376  -0.83022  -0.82607
 Alpha  occ. eigenvalues --   -0.81627  -0.80610  -0.79688  -0.79255  -0.77915
 Alpha  occ. eigenvalues --   -0.77518  -0.77143  -0.76387  -0.75373  -0.75316
 Alpha  occ. eigenvalues --   -0.74736  -0.74370  -0.73934  -0.73071  -0.71924
 Alpha  occ. eigenvalues --   -0.71725  -0.70227  -0.69507  -0.68970  -0.68044
 Alpha  occ. eigenvalues --   -0.67262  -0.66798  -0.65632  -0.65301  -0.64607
 Alpha  occ. eigenvalues --   -0.63894  -0.63745  -0.63548  -0.62648  -0.61773
 Alpha  occ. eigenvalues --   -0.61160  -0.60818  -0.60065  -0.59724  -0.59129
 Alpha  occ. eigenvalues --   -0.58702  -0.58006  -0.57508  -0.57086  -0.56744
 Alpha  occ. eigenvalues --   -0.56148  -0.55576  -0.55157  -0.54769  -0.54386
 Alpha  occ. eigenvalues --   -0.53958  -0.53754  -0.53506  -0.53155  -0.52652
 Alpha  occ. eigenvalues --   -0.52630  -0.52207  -0.51909  -0.51683  -0.51615
 Alpha  occ. eigenvalues --   -0.51326  -0.51130  -0.50700  -0.50659  -0.50536
 Alpha  occ. eigenvalues --   -0.50194  -0.49970  -0.49861  -0.49646  -0.49429
 Alpha  occ. eigenvalues --   -0.49111  -0.48945  -0.48738  -0.48598  -0.48410
 Alpha  occ. eigenvalues --   -0.48131  -0.47966  -0.47772  -0.47186  -0.47012
 Alpha  occ. eigenvalues --   -0.46557  -0.46483  -0.46358  -0.45842  -0.45635
 Alpha  occ. eigenvalues --   -0.45483  -0.45351  -0.45056  -0.44872  -0.44840
 Alpha  occ. eigenvalues --   -0.44596  -0.44500  -0.44230  -0.43932  -0.43717
 Alpha  occ. eigenvalues --   -0.43623  -0.43517  -0.43165  -0.43035  -0.42904
 Alpha  occ. eigenvalues --   -0.42680  -0.42525  -0.42469  -0.42276  -0.42135
 Alpha  occ. eigenvalues --   -0.41886  -0.41728  -0.41432  -0.41228  -0.41158
 Alpha  occ. eigenvalues --   -0.40830  -0.40651  -0.40541  -0.40431  -0.40155
 Alpha  occ. eigenvalues --   -0.39992  -0.39575  -0.39534  -0.39252  -0.39142
 Alpha  occ. eigenvalues --   -0.38889  -0.38333  -0.38252  -0.37797  -0.37654
 Alpha  occ. eigenvalues --   -0.37421  -0.37340  -0.37036  -0.36719  -0.36536
 Alpha  occ. eigenvalues --   -0.36274  -0.36173  -0.36006  -0.35603  -0.35433
 Alpha  occ. eigenvalues --   -0.34918  -0.34871  -0.33670  -0.33519  -0.33147
 Alpha  occ. eigenvalues --   -0.33041  -0.32721  -0.32411  -0.30486  -0.30195
 Alpha  occ. eigenvalues --   -0.29345  -0.28846  -0.28487  -0.27676  -0.23696
 Alpha  occ. eigenvalues --   -0.20076
 Alpha virt. eigenvalues --   -0.06134  -0.03059   0.01976   0.03992   0.04936
 Alpha virt. eigenvalues --    0.05743   0.07545   0.07649   0.08377   0.08976
 Alpha virt. eigenvalues --    0.09007   0.10906   0.11152   0.11297   0.11707

 Mulliken charges:
               1
     1  Mg   0.820751
     2  C    0.037135
     3  C   -0.197788
     4  C   -0.175386
     5  C   -0.156136
     6  N   -0.653073
     7  C    0.348864
     8  C   -0.165263
     9  C   -0.138167
    10  C    0.332678
    11  C   -0.309430
    12  C   -0.174678
    13  C   -0.281163
    14  C    0.590871
    15  O   -0.484651
    16  O   -0.424107
    17  N   -0.700378
    18  C    0.285432
    19  C    0.070147
    20  C    0.038428
    21  C    0.337410
    22  C   -0.388692
    23  C   -0.099676
    24  C   -0.255111
    25  N   -0.670957
    26  C    0.294596
    27  C    0.027021
    28  C    0.047706
    29  C    0.237952
    30  C   -0.378021
    31  C   -0.233367
    32  C   -0.313279
    33  N   -0.741236
    34  C    0.245074
    35  C    0.061529
    36  C    0.015749
    37  C    0.312760
    38  C   -0.382628
    39  C    0.314929
    40  O   -0.456371
    41  C   -0.330113
    42  C    0.647263
    43  O   -0.451338
    44  O   -0.542599
    45  C   -0.090852
    46  C    0.005379
    47  C   -0.169859
    48  C    0.128825
    49  C   -0.346095
    50  C   -0.212691
    51  C   -0.152343
    52  C   -0.184671
    53  C   -0.069291
    54  C   -0.282440
    55  C   -0.189162
    56  C   -0.201805
    57  C   -0.160673
    58  C   -0.034248
    59  C   -0.294226
    60  C   -0.189304
    61  C   -0.186694
    62  C   -0.145052
    63  C    0.016264
    64  C   -0.290513
    65  C   -0.296931
    66  H    0.087912
    67  H    0.082655
    68  H    0.073052
    69  H    0.111127
    70  H    0.112233
    71  H    0.111550
    72  H    0.109006
    73  H    0.128550
    74  H    0.122673
    75  H    0.087879
    76  H    0.119498
    77  H    0.131728
    78  H    0.113287
    79  H    0.139679
    80  H    0.095155
    81  H    0.107158
    82  H    0.106610
    83  H    0.099472
    84  H    0.124240
    85  H    0.114623
    86  H    0.113463
    87  H    0.111640
    88  H    0.097812
    89  H    0.088137
    90  H    0.120526
    91  H    0.096314
    92  H    0.144153
    93  H    0.143543
    94  H    0.109233
    95  H    0.172333
    96  H    0.142132
    97  H    0.148797
    98  H    0.129397
    99  H    0.157481
   100  H    0.114423
   101  H    0.105125
   102  H    0.119419
   103  H    0.112267
   104  H    0.120329
   105  H    0.063118
   106  H    0.096242
   107  H    0.088649
   108  H    0.094348
   109  H    0.083256
   110  H    0.091759
   111  H    0.095864
   112  H    0.064300
   113  H    0.114299
   114  H    0.103388
   115  H    0.086935
   116  H    0.098757
   117  H    0.099432
   118  H    0.084926
   119  H    0.085704
   120  H    0.074718
   121  H    0.070800
   122  H    0.092581
   123  H    0.081773
   124  H    0.098255
   125  H    0.094343
   126  H    0.074296
   127  H    0.100437
   128  H    0.103653
   129  H    0.042095
   130  H    0.087959
   131  H    0.070965
   132  H    0.099642
   133  H    0.053157
   134  H    0.114038
   135  H    0.072101
   136  H    0.082396
   137  H    0.094902
 Sum of Mulliken charges =   0.00000

 Dipole moment (field-independent basis, Debye):
    X=              1.4095    Y=              6.0043    Z=              0.4867  Tot=              6.1867
 Quadrupole moment (field-independent basis, Debye-Ang):
   XX=           -328.4226   YY=           -391.9769   ZZ=           -397.4447
   XY=            -32.6937   XZ=              4.4006   YZ=              0.3144

 Normal termination of Gaussian 09 at Sun Jun 30 17:37:44 2019.
