 Gaussian 09, Revision D.01,
 Gaussian 09:  ES64L-G09RevD.01 24-Apr-2013

 -------------------------------------
 # td=(NStates=1) CAM-B3LYP/6-31G(d,p)
 -------------------------------------

 --
 TD
 --
 Symbolic Z-matrix:
 Charge =  0 Multiplicity = 1

                         Standard orientation:
 ---------------------------------------------------------------------
 Center     Atomic      Atomic             Coordinates (Angstroms)
 Number     Number       Type             X           Y           Z
 ---------------------------------------------------------------------
      1         12           0       -7.210183    0.672906    0.198880
      2          6           0       -4.894435   -1.899133    0.504821
      3          6           0       -4.800484    2.873553    1.197237
      4          6           0       -9.447660    3.006320   -0.422936
      5          6           0       -9.494610   -1.731233   -0.928885
      6          7           0       -5.117143    0.434039    0.730170
      7          6           0       -4.364904   -0.565528    0.715983
      8          6           0       -2.817326   -0.270089    1.278107
      9          6           0       -3.003448    1.246093    1.711208
     10          6           0       -4.349280    1.554570    1.145061
     11          6           0       -2.797259    1.414671    3.171504
     12          6           0       -1.879796   -0.469146   -0.036100
     13          6           0       -0.456086   -0.483069    0.558482
     14          6           0        0.538399   -0.678136   -0.624993
     15          8           0        0.282398   -1.047205   -1.809534
     16          8           0        1.763841   -0.303164   -0.248554
     17          7           0       -7.109346    2.616148    0.368642
     18          6           0       -6.113148    3.352369    0.782452
     19          6           0       -6.447044    4.697689    0.773596
     20          6           0       -7.719503    4.760921    0.360118
     21          6           0       -8.192848    3.396445    0.105235
     22          6           0       -5.660386    5.750480    1.415930
     23          6           0       -8.594454    5.977975    0.215283
     24          6           0       -8.147233    7.283939   -0.046842
     25          7           0       -9.100321    0.652407   -0.539037
     26          6           0       -9.935934    1.784852   -0.572620
     27          6           0      -11.301820    1.335194   -0.926560
     28          6           0      -11.220446   -0.049350   -1.171246
     29          6           0       -9.900030   -0.438353   -0.788586
     30          6           0      -12.289930    2.310623   -1.293341
     31          6           0      -12.364028   -0.938667   -1.569778
     32          6           0      -12.443136   -1.113870   -3.120406
     33          7           0       -7.213892   -1.423253   -0.114257
     34          6           0       -8.323024   -2.252712   -0.533244
     35          6           0       -7.779166   -3.663823   -0.514951
     36          6           0       -6.453088   -3.634116   -0.163801
     37          6           0       -6.169301   -2.212979    0.101818
     38          6           0       -8.546989   -4.877265   -0.820010
     39          6           0       -5.256621   -4.359290    0.253949
     40          8           0       -5.158144   -5.550870    0.210307
     41          6           0       -4.187960   -3.314516    0.633144
     42          6           0       -3.457723   -3.604413    1.867495
     43          8           0       -3.550257   -3.103679    3.005686
     44          8           0       -2.600675   -4.698726    1.662682
     45          6           0       -2.084760   -5.179006    2.904093
     46          6           0        2.924097   -0.456408   -1.276641
     47          6           0        4.175028   -0.394143   -0.636255
     48          6           0        5.218199    0.436078   -1.034200
     49          6           0        5.188539    1.365971   -2.165512
     50          6           0        6.552760    0.523091   -0.276582
     51          6           0        7.648778   -0.066268   -1.094807
     52          6           0        8.863932   -0.025047   -0.318272
     53          6           0       10.112163   -0.579497   -0.967050
     54          6           0       10.052618   -2.074590   -1.435555
     55          6           0       11.314690   -0.327579   -0.093246
     56          6           0       12.693540   -0.527722   -0.741394
     57          6           0       13.905664   -0.166880    0.232374
     58          6           0       15.187036   -0.206290   -0.488964
     59          6           0       15.728059   -1.577213   -0.910739
     60          6           0       16.276340    0.385133    0.493722
     61          6           0       17.700015    0.472286   -0.110591
     62          6           0       18.775627    1.243609    0.891054
     63          6           0       20.167831    1.235785    0.295874
     64          6           0       20.360703    2.051879   -1.007416
     65          6           0       20.947261    1.871221    1.479023
     66          1           0       -3.934643    3.668325    1.509731
     67          1           0      -10.258545    3.816179   -0.699329
     68          1           0      -10.274538   -2.441559   -1.143643
     69          1           0       -2.579173   -0.981321    2.017720
     70          1           0       -2.480627    1.960341    1.138465
     71          1           0       -1.736865    1.454744    3.428095
     72          1           0       -3.085123    2.422532    3.480192
     73          1           0       -3.468504    0.726761    3.677606
     74          1           0       -2.184360   -1.644584   -0.336565
     75          1           0       -2.097401    0.283143   -0.757422
     76          1           0       -0.351822    0.494362    0.980184
     77          1           0       -0.188954   -1.168929    1.259021
     78          1           0       -4.904644    6.458476    0.756990
     79          1           0       -6.176544    6.716678    1.669185
     80          1           0       -5.030801    5.233591    2.201983
     81          1           0       -9.778271    5.838994    0.180635
     82          1           0       -8.779000    7.970817   -0.243384
     83          1           0       -6.900737    7.170421   -0.141140
     84          1           0      -11.932625    2.550355   -2.310155
     85          1           0      -13.223674    1.641651   -1.303773
     86          1           0      -12.477550    3.095160   -0.508764
     87          1           0      -12.101858   -1.838429   -1.062852
     88          1           0      -13.315155   -0.544217   -1.205222
     89          1           0      -13.355289   -1.833058   -3.316559
     90          1           0      -12.497177   -0.318507   -3.824636
     91          1           0      -11.616205   -1.675602   -3.470222
     92          1           0       -9.153188   -4.612049   -1.831306
     93          1           0       -8.051287   -5.860354   -0.817024
     94          1           0       -9.200961   -4.953080    0.093717
     95          1           0       -3.486358   -3.439342   -0.257230
     96          1           0       -1.354008   -4.476990    3.271580
     97          1           0       -2.949834   -5.526933    3.647156
     98          1           0       -1.464932   -6.023208    2.718212
     99          1           0        2.535508   -1.464669   -1.387023
    100          1           0        2.592523    0.180469   -2.010652
    101          1           0        4.317376   -0.916479    0.251642
    102          1           0        4.213181    1.388522   -2.775997
    103          1           0        5.288343    2.482948   -1.915662
    104          1           0        5.957247    1.089836   -2.878531
    105          1           0        6.564950    1.607405    0.005374
    106          1           0        6.428948   -0.090755    0.653127
    107          1           0        7.567210   -1.099367   -1.424175
    108          1           0        7.797836    0.582015   -1.993536
    109          1           0        9.212875    0.962305    0.026635
    110          1           0        8.792377   -0.666822    0.593963
    111          1           0       10.200084   -0.044449   -2.011066
    112          1           0        9.027678   -2.197625   -1.636398
    113          1           0       10.832308   -2.352961   -2.057595
    114          1           0       10.101552   -2.876792   -0.529959
    115          1           0       11.269193    0.653539    0.381607
    116          1           0       11.223817   -0.983465    0.874836
    117          1           0       12.890876   -1.607398   -0.971710
    118          1           0       12.789895   -0.110143   -1.590458
    119          1           0       13.765328    0.733401    0.701438
    120          1           0       13.884873   -0.746534    0.960603
    121          1           0       15.162923    0.240354   -1.412020
    122          1           0       15.849378   -2.315940   -0.071353
    123          1           0       14.834159   -2.336812   -1.500107
    124          1           0       16.630094   -1.601446   -1.617406
    125          1           0       16.094589    1.431162    0.837897
    126          1           0       16.324483   -0.288236    1.333465
    127          1           0       18.093411   -0.520372   -0.344114
    128          1           0       17.834316    0.889173   -1.027203
    129          1           0       18.454108    2.269854    1.199002
    130          1           0       18.954470    0.858339    1.842732
    131          1           0       20.493423    0.184408    0.035597
    132          1           0       20.091065    3.115812   -0.862978
    133          1           0       21.129355    1.973241   -1.615794
    134          1           0       19.475441    1.823664   -1.649093
    135          1           0       21.076811    1.268975    2.294550
    136          1           0       21.891611    1.831870    0.898152
    137          1           0       20.532309    2.921010    1.544844
 ---------------------------------------------------------------------

 SCF Done:  E(RCAM-B3LYP) =  -2932.63314011     A.U. after   16 cycles

 Excitation energies and oscillator strengths:

 Excited State   1:      Singlet-A      2.0996 eV  590.52 nm  f=0.2663  <S**2>=0.000
     240 -> 243       -0.23502
     241 -> 242        0.65093
 This state for optimization and/or second-order correction.
 Total Energy, E(TD-HF/TD-KS) =  -2932.55598186
 Copying the excited state density for this state as the 1-particle RhoCI density.

 The electronic state is 1-A.
 Alpha  occ. eigenvalues --  -46.84187 -19.25906 -19.24423 -19.21595 -19.21149
 Alpha  occ. eigenvalues --  -19.19381 -14.42133 -14.39264 -14.38877 -14.38714
 Alpha  occ. eigenvalues --  -10.39960 -10.38393 -10.35959 -10.31663 -10.30718
 Alpha  occ. eigenvalues --  -10.30601 -10.30268 -10.30153 -10.29847 -10.29709
 Alpha  occ. eigenvalues --  -10.28726 -10.28610 -10.28569 -10.28554 -10.28444
 Alpha  occ. eigenvalues --  -10.28236 -10.28112 -10.28094 -10.27845 -10.27641
 Alpha  occ. eigenvalues --  -10.27492 -10.27384 -10.27047 -10.26977 -10.26932
 Alpha  occ. eigenvalues --  -10.26924 -10.26837 -10.26784 -10.26684 -10.26682
 Alpha  occ. eigenvalues --  -10.26590 -10.26344 -10.26330 -10.26054 -10.26049
 Alpha  occ. eigenvalues --  -10.25936 -10.25932 -10.25877 -10.25780 -10.25740
 Alpha  occ. eigenvalues --  -10.25674 -10.25574 -10.25349 -10.25308 -10.25093
 Alpha  occ. eigenvalues --  -10.25046 -10.24822 -10.24749 -10.24517 -10.24410
 Alpha  occ. eigenvalues --  -10.24210 -10.23781 -10.23753 -10.23535 -10.22332
 Alpha  occ. eigenvalues --   -3.13290  -1.87989  -1.87542  -1.87456  -1.16629
 Alpha  occ. eigenvalues --   -1.15182  -1.12995  -1.07744  -1.05803  -1.05073
 Alpha  occ. eigenvalues --   -1.05014  -1.02686  -1.01500  -0.92943  -0.92322
 Alpha  occ. eigenvalues --   -0.90990  -0.90456  -0.90085  -0.89570  -0.89098
 Alpha  occ. eigenvalues --   -0.88633  -0.88180  -0.88013  -0.87750  -0.86547
 Alpha  occ. eigenvalues --   -0.85771  -0.84438  -0.83865  -0.83124  -0.82206
 Alpha  occ. eigenvalues --   -0.81884  -0.81374  -0.79694  -0.79584  -0.78103
 Alpha  occ. eigenvalues --   -0.77770  -0.77127  -0.76903  -0.76549  -0.75778
 Alpha  occ. eigenvalues --   -0.75747  -0.75029  -0.73955  -0.73447  -0.72324
 Alpha  occ. eigenvalues --   -0.71818  -0.70940  -0.70616  -0.69441  -0.68231
 Alpha  occ. eigenvalues --   -0.67715  -0.66959  -0.66367  -0.65939  -0.64561
 Alpha  occ. eigenvalues --   -0.64401  -0.63605  -0.63025  -0.62505  -0.61864
 Alpha  occ. eigenvalues --   -0.61843  -0.60936  -0.60004  -0.59519  -0.58657
 Alpha  occ. eigenvalues --   -0.58372  -0.57741  -0.57305  -0.57139  -0.56838
 Alpha  occ. eigenvalues --   -0.56589  -0.55677  -0.55410  -0.55013  -0.54511
 Alpha  occ. eigenvalues --   -0.54404  -0.54168  -0.54018  -0.53889  -0.53367
 Alpha  occ. eigenvalues --   -0.52886  -0.52807  -0.52692  -0.52536  -0.52330
 Alpha  occ. eigenvalues --   -0.51980  -0.51687  -0.51534  -0.51377  -0.51207
 Alpha  occ. eigenvalues --   -0.50809  -0.50606  -0.50369  -0.50082  -0.49671
 Alpha  occ. eigenvalues --   -0.49612  -0.49335  -0.49097  -0.48932  -0.48445
 Alpha  occ. eigenvalues --   -0.48239  -0.48093  -0.48065  -0.47902  -0.47409
 Alpha  occ. eigenvalues --   -0.47297  -0.46879  -0.46739  -0.46512  -0.46248
 Alpha  occ. eigenvalues --   -0.45985  -0.45677  -0.45364  -0.45207  -0.45203
 Alpha  occ. eigenvalues --   -0.44668  -0.44609  -0.44528  -0.44288  -0.44233
 Alpha  occ. eigenvalues --   -0.44171  -0.43766  -0.43524  -0.43338  -0.43099
 Alpha  occ. eigenvalues --   -0.43032  -0.42984  -0.42738  -0.42438  -0.42137
 Alpha  occ. eigenvalues --   -0.42021  -0.41962  -0.41812  -0.41478  -0.41170
 Alpha  occ. eigenvalues --   -0.41045  -0.40866  -0.40741  -0.40727  -0.40582
 Alpha  occ. eigenvalues --   -0.40289  -0.40041  -0.39887  -0.39610  -0.39023
 Alpha  occ. eigenvalues --   -0.38807  -0.38648  -0.38525  -0.38279  -0.38149
 Alpha  occ. eigenvalues --   -0.37808  -0.37564  -0.37110  -0.36860  -0.36596
 Alpha  occ. eigenvalues --   -0.36257  -0.35826  -0.35720  -0.35643  -0.35139
 Alpha  occ. eigenvalues --   -0.34758  -0.34610  -0.34569  -0.34069  -0.33201
 Alpha  occ. eigenvalues --   -0.32320  -0.31958  -0.31368  -0.31033  -0.30618
 Alpha  occ. eigenvalues --   -0.29770  -0.29009  -0.27611  -0.26851  -0.23119
 Alpha  occ. eigenvalues --   -0.20954
 Alpha virt. eigenvalues --   -0.06122  -0.02654   0.01895   0.03626   0.03869
 Alpha virt. eigenvalues --    0.04568   0.05542   0.06877   0.07040   0.07472
 Alpha virt. eigenvalues --    0.08155   0.10477   0.11010   0.11647   0.11659

 Mulliken charges:
               1
     1  Mg   0.832788
     2  C    0.019497
     3  C   -0.198947
     4  C   -0.185148
     5  C   -0.188112
     6  N   -0.576299
     7  C    0.298609
     8  C   -0.167274
     9  C   -0.121690
    10  C    0.273320
    11  C   -0.298441
    12  C   -0.154490
    13  C   -0.247875
    14  C    0.583798
    15  O   -0.518894
    16  O   -0.515115
    17  N   -0.742267
    18  C    0.309868
    19  C    0.062998
    20  C   -0.008752
    21  C    0.283521
    22  C   -0.396653
    23  C   -0.089413
    24  C   -0.221907
    25  N   -0.697485
    26  C    0.314884
    27  C   -0.008676
    28  C    0.026172
    29  C    0.313904
    30  C   -0.374105
    31  C   -0.236291
    32  C   -0.316630
    33  N   -0.727734
    34  C    0.297688
    35  C   -0.024699
    36  C    0.052686
    37  C    0.294946
    38  C   -0.371612
    39  C    0.377461
    40  O   -0.431199
    41  C   -0.321685
    42  C    0.633856
    43  O   -0.489492
    44  O   -0.465891
    45  C   -0.066315
    46  C    0.023040
    47  C   -0.110912
    48  C    0.104409
    49  C   -0.373608
    50  C   -0.221556
    51  C   -0.167058
    52  C   -0.174646
    53  C   -0.061871
    54  C   -0.303393
    55  C   -0.168022
    56  C   -0.185223
    57  C   -0.155552
    58  C   -0.056228
    59  C   -0.308188
    60  C   -0.175907
    61  C   -0.200159
    62  C   -0.169196
    63  C   -0.076960
    64  C   -0.317735
    65  C   -0.308532
    66  H    0.092845
    67  H    0.097093
    68  H    0.082796
    69  H    0.128993
    70  H    0.112986
    71  H    0.112531
    72  H    0.101708
    73  H    0.130897
    74  H    0.091304
    75  H    0.129289
    76  H    0.138705
    77  H    0.145300
    78  H    0.078553
    79  H    0.130426
    80  H    0.109911
    81  H    0.075014
    82  H    0.094892
    83  H    0.088122
    84  H    0.146851
    85  H    0.101270
    86  H    0.123311
    87  H    0.111795
    88  H    0.111567
    89  H    0.083937
    90  H    0.121495
    91  H    0.117386
    92  H    0.109780
    93  H    0.153496
    94  H    0.131626
    95  H    0.179717
    96  H    0.119356
    97  H    0.118794
    98  H    0.119658
    99  H    0.139036
   100  H    0.139061
   101  H    0.093668
   102  H    0.104069
   103  H    0.116530
   104  H    0.132183
   105  H    0.114604
   106  H    0.099039
   107  H    0.112893
   108  H    0.097476
   109  H    0.094251
   110  H    0.085855
   111  H    0.061287
   112  H    0.100095
   113  H    0.124019
   114  H    0.064144
   115  H    0.083148
   116  H    0.072738
   117  H    0.088486
   118  H    0.100273
   119  H    0.092902
   120  H    0.098303
   121  H    0.095980
   122  H    0.101003
   123  H    0.040393
   124  H    0.108910
   125  H    0.086716
   126  H    0.099468
   127  H    0.088655
   128  H    0.101606
   129  H    0.077302
   130  H    0.096541
   131  H    0.082246
   132  H    0.093687
   133  H    0.116471
   134  H    0.089996
   135  H    0.114041
   136  H    0.092449
   137  H    0.103464
 Sum of Mulliken charges =   0.00000

 Dipole moment (field-independent basis, Debye):
    X=              2.4124    Y=              2.7081    Z=              0.4563  Tot=              3.6554
 Quadrupole moment (field-independent basis, Debye-Ang):
   XX=           -327.3152   YY=           -402.0395   ZZ=           -399.6147
   XY=             -2.5882   XZ=              6.5045   YZ=             -5.7978

 Normal termination of Gaussian 09 at Mon Jul  1 06:09:04 2019.
