 Gaussian 09, Revision D.01,
 Gaussian 09:  ES64L-G09RevD.01 24-Apr-2013

 -------------------------------------
 # td=(NStates=1) CAM-B3LYP/6-31G(d,p)
 -------------------------------------

 --
 TD
 --
 Symbolic Z-matrix:
 Charge =  0 Multiplicity = 1

                         Standard orientation:
 ---------------------------------------------------------------------
 Center     Atomic      Atomic             Coordinates (Angstroms)
 Number     Number       Type             X           Y           Z
 ---------------------------------------------------------------------
      1         12           0       -7.234681    0.615058    0.198659
      2          6           0       -4.903145   -1.996552    0.436239
      3          6           0       -4.715406    2.848741    1.116336
      4          6           0       -9.409207    3.082379   -0.295110
      5          6           0       -9.655128   -1.731130   -0.724025
      6          7           0       -5.157177    0.403525    0.746921
      7          6           0       -4.383512   -0.782241    0.798538
      8          6           0       -2.938376   -0.423563    1.244208
      9          6           0       -3.021696    1.101828    1.631880
     10          6           0       -4.355291    1.459730    1.042445
     11          6           0       -3.024197    1.286455    3.234723
     12          6           0       -1.926493   -0.645064    0.029964
     13          6           0       -0.463378   -0.396161    0.606255
     14          6           0        0.586743   -0.599850   -0.510334
     15          8           0        0.165132   -0.991187   -1.544305
     16          8           0        1.793818   -0.395022   -0.076255
     17          7           0       -7.143789    2.627048    0.506113
     18          6           0       -6.064775    3.363779    0.773058
     19          6           0       -6.415358    4.778817    0.765163
     20          6           0       -7.745558    4.879400    0.317126
     21          6           0       -8.104368    3.437910    0.182845
     22          6           0       -5.617324    5.936976    1.306405
     23          6           0       -8.558657    6.012547    0.098907
     24          6           0       -8.123757    7.315933    0.007695
     25          7           0       -9.235143    0.744563   -0.347363
     26          6           0       -9.943354    1.793458   -0.598492
     27          6           0      -11.352706    1.486976   -1.010381
     28          6           0      -11.291069    0.126684   -1.228457
     29          6           0       -9.897587   -0.317064   -0.875330
     30          6           0      -12.402861    2.456595   -1.412576
     31          6           0      -12.388149   -0.741969   -1.716538
     32          6           0      -12.168418   -1.164019   -3.199987
     33          7           0       -7.273628   -1.415925   -0.141500
     34          6           0       -8.325739   -2.325960   -0.566746
     35          6           0       -7.864689   -3.618051   -0.535654
     36          6           0       -6.474919   -3.574660   -0.322006
     37          6           0       -6.231129   -2.201265   -0.005114
     38          6           0       -8.701503   -4.866150   -0.680342
     39          6           0       -5.302882   -4.292025    0.038577
     40          8           0       -5.192188   -5.575344    0.095628
     41          6           0       -4.191358   -3.413262    0.423711
     42          6           0       -3.591312   -3.714094    1.835827
     43          8           0       -3.881759   -3.221720    2.800403
     44          8           0       -2.712981   -4.785605    1.617846
     45          6           0       -2.060206   -5.088921    2.870305
     46          6           0        2.733598   -0.676762   -1.135716
     47          6           0        4.097915   -0.450794   -0.415992
     48          6           0        5.107382    0.281644   -0.789720
     49          6           0        5.121238    1.204757   -2.022477
     50          6           0        6.503254    0.331122   -0.066412
     51          6           0        7.673884   -0.178240   -0.969969
     52          6           0        8.938046   -0.003510   -0.239939
     53          6           0       10.210551   -0.455393   -0.947966
     54          6           0       10.069739   -1.947361   -1.314239
     55          6           0       11.497104   -0.249441   -0.049636
     56          6           0       12.801620   -0.590753   -0.711838
     57          6           0       14.004534   -0.169473    0.101537
     58          6           0       15.330867   -0.162556   -0.583917
     59          6           0       15.706678   -1.657316   -0.958530
     60          6           0       16.425859    0.485109    0.372986
     61          6           0       17.851374    0.529260   -0.167520
     62          6           0       18.836708    1.209665    0.731658
     63          6           0       20.298306    1.305115    0.249888
     64          6           0       20.508737    1.974289   -1.078730
     65          6           0       21.170332    2.068839    1.364604
     66          1           0       -3.814841    3.439781    1.277085
     67          1           0      -10.181017    4.001607   -0.545712
     68          1           0      -10.539318   -2.408360   -0.953552
     69          1           0       -2.556723   -1.022499    2.128086
     70          1           0       -2.124730    1.754399    1.267677
     71          1           0       -2.017813    0.790692    3.810148
     72          1           0       -3.252940    2.368706    3.508315
     73          1           0       -3.739335    0.880159    3.802001
     74          1           0       -1.955762   -1.613356   -0.387018
     75          1           0       -2.041905   -0.004103   -0.837774
     76          1           0       -0.183106    0.578732    1.028752
     77          1           0       -0.249496   -1.032753    1.456036
     78          1           0       -4.767962    6.255693    0.493901
     79          1           0       -6.437838    6.801072    1.468265
     80          1           0       -4.917733    5.719150    2.136097
     81          1           0       -9.587684    5.662954    0.093591
     82          1           0       -8.800399    8.171147    0.137035
     83          1           0       -7.081632    7.540152   -0.062113
     84          1           0      -11.930838    2.932306   -2.387217
     85          1           0      -13.278110    2.086497   -1.768050
     86          1           0      -12.607398    3.297388   -0.738679
     87          1           0      -12.334810   -1.630871   -1.004077
     88          1           0      -13.451656   -0.301233   -1.500361
     89          1           0      -12.857564   -1.926854   -3.709230
     90          1           0      -11.999816   -0.201941   -3.787040
     91          1           0      -11.098805   -1.476819   -3.367039
     92          1           0       -9.175373   -4.921494   -1.771686
     93          1           0       -8.294142   -5.791248   -0.495775
     94          1           0       -9.382233   -4.930512    0.053806
     95          1           0       -3.468921   -3.360569   -0.451689
     96          1           0       -1.538605   -4.315412    3.536159
     97          1           0       -2.940497   -5.430781    3.447397
     98          1           0       -1.454364   -5.920332    2.624390
     99          1           0        2.654729   -1.693998   -1.677577
    100          1           0        2.607715    0.011331   -1.879263
    101          1           0        4.450286   -1.076904    0.463997
    102          1           0        4.140458    1.316589   -2.379100
    103          1           0        5.721062    2.237095   -1.804963
    104          1           0        5.632864    0.723229   -2.935068
    105          1           0        6.738507    1.284652    0.275572
    106          1           0        6.585319   -0.584986    0.744983
    107          1           0        7.444621   -1.308557   -1.029816
    108          1           0        7.833248    0.433474   -1.882559
    109          1           0        9.186398    1.129020    0.168737
    110          1           0        9.033103   -0.661457    0.794962
    111          1           0       10.249001    0.085050   -1.910630
    112          1           0        9.204605   -2.178991   -2.024822
    113          1           0       11.027340   -2.317321   -1.728222
    114          1           0       10.065494   -2.678689   -0.405222
    115          1           0       11.250411    0.886572    0.112094
    116          1           0       11.326257   -0.773531    0.948155
    117          1           0       12.934175   -1.646012   -0.975761
    118          1           0       13.022063   -0.103711   -1.628040
    119          1           0       13.915157    0.820215    0.385770
    120          1           0       14.010265   -0.706945    1.052715
    121          1           0       15.186429    0.514011   -1.450852
    122          1           0       15.708687   -2.065462   -0.008801
    123          1           0       15.018153   -2.045773   -1.758055
    124          1           0       16.770831   -1.551004   -1.275742
    125          1           0       16.034351    1.416989    0.648858
    126          1           0       16.465761   -0.119540    1.474671
    127          1           0       18.044611   -0.597377   -0.261776
    128          1           0       17.993673    1.019394   -1.343397
    129          1           0       18.565103    2.180406    1.022565
    130          1           0       18.786107    0.410590    1.478623
    131          1           0       20.905378    0.293595    0.260795
    132          1           0       20.053686    2.999887   -1.070230
    133          1           0       21.416976    2.110837   -1.506488
    134          1           0       19.982448    1.573407   -2.030329
    135          1           0       21.103752    1.664693    2.352968
    136          1           0       22.270180    2.042955    0.993992
    137          1           0       20.666549    2.874400    1.722760
 ---------------------------------------------------------------------

 SCF Done:  E(RCAM-B3LYP) =  -2932.67848525     A.U. after   18 cycles

 Excitation energies and oscillator strengths:

 Excited State   1:      Singlet-A      1.9815 eV  625.72 nm  f=0.2525  <S**2>=0.000
     240 -> 242       -0.10510
     240 -> 243        0.22037
     241 -> 242        0.65283
 This state for optimization and/or second-order correction.
 Total Energy, E(TD-HF/TD-KS) =  -2932.60566764
 Copying the excited state density for this state as the 1-particle RhoCI density.

 The electronic state is 1-A.
 Alpha  occ. eigenvalues --  -46.85743 -19.28252 -19.25100 -19.23017 -19.20835
 Alpha  occ. eigenvalues --  -19.17281 -14.41862 -14.40490 -14.40351 -14.39211
 Alpha  occ. eigenvalues --  -10.39129 -10.38616 -10.33272 -10.32938 -10.31367
 Alpha  occ. eigenvalues --  -10.31321 -10.30525 -10.30429 -10.30306 -10.29888
 Alpha  occ. eigenvalues --  -10.29674 -10.29467 -10.29077 -10.28781 -10.28447
 Alpha  occ. eigenvalues --  -10.28337 -10.28157 -10.28044 -10.27944 -10.27939
 Alpha  occ. eigenvalues --  -10.27938 -10.27589 -10.27504 -10.27498 -10.27274
 Alpha  occ. eigenvalues --  -10.27256 -10.27220 -10.27167 -10.27098 -10.27065
 Alpha  occ. eigenvalues --  -10.26962 -10.26942 -10.26923 -10.26776 -10.26725
 Alpha  occ. eigenvalues --  -10.26690 -10.26677 -10.26664 -10.26513 -10.26512
 Alpha  occ. eigenvalues --  -10.26466 -10.26383 -10.26303 -10.26292 -10.26176
 Alpha  occ. eigenvalues --  -10.25964 -10.25236 -10.24839 -10.24725 -10.24364
 Alpha  occ. eigenvalues --  -10.24336 -10.24197 -10.24182 -10.24012 -10.23127
 Alpha  occ. eigenvalues --   -3.14611  -1.89332  -1.88833  -1.88796  -1.21251
 Alpha  occ. eigenvalues --   -1.20752  -1.11863  -1.11251  -1.06789  -1.05479
 Alpha  occ. eigenvalues --   -1.05333  -1.03183  -1.02135  -0.91602  -0.91430
 Alpha  occ. eigenvalues --   -0.90748  -0.90067  -0.89590  -0.89320  -0.88682
 Alpha  occ. eigenvalues --   -0.88119  -0.87694  -0.86923  -0.86391  -0.85755
 Alpha  occ. eigenvalues --   -0.84647  -0.83932  -0.82941  -0.82773  -0.82214
 Alpha  occ. eigenvalues --   -0.81222  -0.80390  -0.79945  -0.79469  -0.77927
 Alpha  occ. eigenvalues --   -0.77181  -0.76984  -0.76604  -0.75906  -0.75511
 Alpha  occ. eigenvalues --   -0.75347  -0.75236  -0.74608  -0.73740  -0.72920
 Alpha  occ. eigenvalues --   -0.71510  -0.70554  -0.69995  -0.69474  -0.69098
 Alpha  occ. eigenvalues --   -0.67176  -0.66148  -0.65381  -0.64559  -0.64498
 Alpha  occ. eigenvalues --   -0.64197  -0.62969  -0.62844  -0.62240  -0.61858
 Alpha  occ. eigenvalues --   -0.61531  -0.60295  -0.60008  -0.59783  -0.59401
 Alpha  occ. eigenvalues --   -0.58842  -0.58363  -0.57820  -0.57424  -0.57188
 Alpha  occ. eigenvalues --   -0.56054  -0.55622  -0.55266  -0.55219  -0.55085
 Alpha  occ. eigenvalues --   -0.54865  -0.54659  -0.54079  -0.53989  -0.53338
 Alpha  occ. eigenvalues --   -0.52651  -0.52533  -0.51988  -0.51871  -0.51499
 Alpha  occ. eigenvalues --   -0.51354  -0.50911  -0.50701  -0.50586  -0.50433
 Alpha  occ. eigenvalues --   -0.50180  -0.49871  -0.49692  -0.49594  -0.49337
 Alpha  occ. eigenvalues --   -0.49156  -0.49115  -0.48827  -0.48486  -0.48132
 Alpha  occ. eigenvalues --   -0.48068  -0.47868  -0.47579  -0.47213  -0.46835
 Alpha  occ. eigenvalues --   -0.46697  -0.46633  -0.46117  -0.46025  -0.45857
 Alpha  occ. eigenvalues --   -0.45637  -0.45342  -0.45196  -0.45018  -0.44962
 Alpha  occ. eigenvalues --   -0.44686  -0.44635  -0.44454  -0.44370  -0.44358
 Alpha  occ. eigenvalues --   -0.44082  -0.43902  -0.43746  -0.43538  -0.43365
 Alpha  occ. eigenvalues --   -0.43279  -0.43061  -0.42780  -0.42417  -0.42247
 Alpha  occ. eigenvalues --   -0.42132  -0.41902  -0.41626  -0.41447  -0.41063
 Alpha  occ. eigenvalues --   -0.40857  -0.40809  -0.40720  -0.40593  -0.40252
 Alpha  occ. eigenvalues --   -0.40151  -0.39814  -0.39465  -0.39349  -0.38940
 Alpha  occ. eigenvalues --   -0.38819  -0.38364  -0.38346  -0.38156  -0.37686
 Alpha  occ. eigenvalues --   -0.37631  -0.37512  -0.37092  -0.36945  -0.36864
 Alpha  occ. eigenvalues --   -0.36528  -0.36205  -0.35916  -0.35500  -0.35483
 Alpha  occ. eigenvalues --   -0.35246  -0.35213  -0.34900  -0.34441  -0.34002
 Alpha  occ. eigenvalues --   -0.33780  -0.33381  -0.31696  -0.30926  -0.30577
 Alpha  occ. eigenvalues --   -0.29131  -0.28525  -0.28060  -0.27329  -0.22743
 Alpha  occ. eigenvalues --   -0.21371
 Alpha virt. eigenvalues --   -0.07049  -0.02773   0.01411   0.03295   0.05635
 Alpha virt. eigenvalues --    0.06063   0.06526   0.07026   0.07432   0.08041
 Alpha virt. eigenvalues --    0.08498   0.10177   0.11005   0.11120   0.11367

 Mulliken charges:
               1
     1  Mg   0.832639
     2  C    0.006963
     3  C   -0.204555
     4  C   -0.214707
     5  C   -0.170616
     6  N   -0.635228
     7  C    0.282398
     8  C   -0.166988
     9  C   -0.133921
    10  C    0.344022
    11  C   -0.303070
    12  C   -0.166322
    13  C   -0.291199
    14  C    0.610456
    15  O   -0.465240
    16  O   -0.432646
    17  N   -0.692928
    18  C    0.295905
    19  C    0.007773
    20  C    0.029673
    21  C    0.334819
    22  C   -0.374191
    23  C   -0.044880
    24  C   -0.282299
    25  N   -0.632059
    26  C    0.289170
    27  C    0.048074
    28  C   -0.008220
    29  C    0.270045
    30  C   -0.370768
    31  C   -0.236153
    32  C   -0.317433
    33  N   -0.722240
    34  C    0.227289
    35  C    0.011267
    36  C    0.023583
    37  C    0.333233
    38  C   -0.364661
    39  C    0.339350
    40  O   -0.524668
    41  C   -0.278813
    42  C    0.633826
    43  O   -0.384361
    44  O   -0.471172
    45  C   -0.097575
    46  C   -0.010805
    47  C   -0.146645
    48  C    0.129370
    49  C   -0.357782
    50  C   -0.214767
    51  C   -0.176208
    52  C   -0.140682
    53  C   -0.064464
    54  C   -0.312624
    55  C   -0.163091
    56  C   -0.179513
    57  C   -0.165726
    58  C   -0.084862
    59  C   -0.308976
    60  C   -0.168493
    61  C   -0.171794
    62  C   -0.154504
    63  C   -0.056153
    64  C   -0.304143
    65  C   -0.313754
    66  H    0.089766
    67  H    0.079150
    68  H    0.108961
    69  H    0.115157
    70  H    0.105975
    71  H    0.074746
    72  H    0.099139
    73  H    0.141392
    74  H    0.127840
    75  H    0.121513
    76  H    0.117703
    77  H    0.126510
    78  H    0.095117
    79  H    0.114450
    80  H    0.122026
    81  H    0.090605
    82  H    0.112198
    83  H    0.123554
    84  H    0.112241
    85  H    0.128147
    86  H    0.120136
    87  H    0.101638
    88  H    0.098440
    89  H    0.108957
    90  H    0.104115
    91  H    0.114425
    92  H    0.102387
    93  H    0.149328
    94  H    0.128451
    95  H    0.169615
    96  H    0.114488
    97  H    0.129091
    98  H    0.127575
    99  H    0.142491
   100  H    0.134107
   101  H    0.085784
   102  H    0.111897
   103  H    0.096097
   104  H    0.116078
   105  H    0.113773
   106  H    0.076579
   107  H    0.110978
   108  H    0.099962
   109  H    0.055583
   110  H    0.059033
   111  H    0.083387
   112  H    0.096878
   113  H    0.097792
   114  H    0.082063
   115  H    0.079953
   116  H    0.092226
   117  H    0.100320
   118  H    0.095855
   119  H    0.090894
   120  H    0.079593
   121  H    0.082600
   122  H    0.114490
   123  H    0.102494
   124  H    0.099709
   125  H    0.098770
   126  H    0.051003
   127  H    0.093237
   128  H    0.052312
   129  H    0.099566
   130  H    0.102359
   131  H    0.072851
   132  H    0.089325
   133  H    0.113261
   134  H    0.085464
   135  H    0.095680
   136  H    0.098865
   137  H    0.103898
 Sum of Mulliken charges =   0.00000

 Dipole moment (field-independent basis, Debye):
    X=              1.8941    Y=              6.1475    Z=              0.1821  Tot=              6.4353
 Quadrupole moment (field-independent basis, Debye-Ang):
   XX=           -337.7972   YY=           -407.4744   ZZ=           -395.0530
   XY=            -27.1395   XZ=              9.5785   YZ=             -4.2347

 Normal termination of Gaussian 09 at Sat Jun 29 21:40:35 2019.
