 Gaussian 09, Revision D.01,
 Gaussian 09:  ES64L-G09RevD.01 24-Apr-2013

 -------------------------------------
 # td=(NStates=1) CAM-B3LYP/6-31G(d,p)
 -------------------------------------

 --
 TD
 --
 Symbolic Z-matrix:
 Charge =  0 Multiplicity = 1

                         Standard orientation:
 ---------------------------------------------------------------------
 Center     Atomic      Atomic             Coordinates (Angstroms)
 Number     Number       Type             X           Y           Z
 ---------------------------------------------------------------------
      1         12           0       -7.122835    0.515248    0.143196
      2          6           0       -4.832935   -2.012740    0.500590
      3          6           0       -4.763518    2.830712    1.127681
      4          6           0       -9.370749    3.140168   -0.426463
      5          6           0       -9.540547   -1.756219   -0.752905
      6          7           0       -5.096898    0.376358    0.749429
      7          6           0       -4.338285   -0.724337    0.868422
      8          6           0       -2.926952   -0.398844    1.253391
      9          6           0       -3.032036    1.054230    1.678826
     10          6           0       -4.363969    1.428609    1.189686
     11          6           0       -2.924233    1.269749    3.270709
     12          6           0       -1.883447   -0.549449    0.101380
     13          6           0       -0.423874   -0.297109    0.537603
     14          6           0        0.581938   -0.497589   -0.708103
     15          8           0        0.189497   -0.896674   -1.835975
     16          8           0        1.770837   -0.339832   -0.281061
     17          7           0       -7.077598    2.591030    0.322703
     18          6           0       -6.025273    3.300954    0.769796
     19          6           0       -6.356826    4.742831    0.751649
     20          6           0       -7.727155    4.804133    0.420757
     21          6           0       -8.143639    3.459248    0.212576
     22          6           0       -5.515573    5.827798    1.237056
     23          6           0       -8.575253    6.011833    0.404086
     24          6           0       -8.248467    7.346281    0.066997
     25          7           0       -9.138427    0.739469   -0.534703
     26          6           0       -9.898612    1.841930   -0.674359
     27          6           0      -11.233013    1.508492   -1.073850
     28          6           0      -11.246880    0.095711   -1.223245
     29          6           0       -9.901918   -0.373167   -0.801331
     30          6           0      -12.251339    2.476842   -1.298551
     31          6           0      -12.433303   -0.661179   -1.528616
     32          6           0      -12.455981   -1.189307   -3.039701
     33          7           0       -7.228364   -1.420988   -0.144636
     34          6           0       -8.291321   -2.227190   -0.454994
     35          6           0       -7.802179   -3.568604   -0.470383
     36          6           0       -6.456905   -3.549468   -0.106346
     37          6           0       -6.083722   -2.178938    0.119779
     38          6           0       -8.581421   -4.865274   -0.789855
     39          6           0       -5.332156   -4.440960    0.180655
     40          8           0       -5.107488   -5.669180   -0.001722
     41          6           0       -4.162301   -3.350633    0.526927
     42          6           0       -3.426686   -3.691619    1.739241
     43          8           0       -3.567982   -3.217644    2.904066
     44          8           0       -2.555067   -4.786309    1.619550
     45          6           0       -1.952481   -5.247384    2.768288
     46          6           0        2.795638   -0.541450   -1.248370
     47          6           0        4.113057   -0.335625   -0.626722
     48          6           0        5.144078    0.429748   -1.077948
     49          6           0        5.115538    1.152012   -2.330986
     50          6           0        6.412380    0.563839   -0.286702
     51          6           0        7.551318   -0.231547   -0.966147
     52          6           0        8.843725   -0.124390   -0.218355
     53          6           0       10.052069   -0.605253   -0.815369
     54          6           0       10.005956   -2.270481   -1.166608
     55          6           0       11.402963   -0.256190   -0.078475
     56          6           0       12.699697   -0.544129   -0.807596
     57          6           0       13.859783   -0.235612    0.093086
     58          6           0       15.233982   -0.250714   -0.475363
     59          6           0       15.719912   -1.614689   -0.862847
     60          6           0       16.256130    0.374947    0.494287
     61          6           0       17.727824    0.654527   -0.097927
     62          6           0       18.710164    1.225939    0.813279
     63          6           0       20.180763    1.365801    0.265209
     64          6           0       20.235379    2.349111   -0.904369
     65          6           0       21.140452    1.908902    1.312440
     66          1           0       -4.154779    3.593592    1.660012
     67          1           0      -10.066399    4.029949   -0.405878
     68          1           0      -10.272184   -2.384754   -1.074789
     69          1           0       -2.517332   -1.049106    2.175141
     70          1           0       -2.450545    1.692570    1.310961
     71          1           0       -2.060631    0.749826    3.677544
     72          1           0       -3.051757    2.312913    3.635611
     73          1           0       -3.794828    0.629208    3.819015
     74          1           0       -2.147601   -1.518897   -0.181499
     75          1           0       -2.039411    0.179410   -0.755457
     76          1           0       -0.204463    0.721309    0.565278
     77          1           0       -0.022397   -0.940697    1.406325
     78          1           0       -4.836788    6.450494    0.537084
     79          1           0       -6.051834    6.766125    1.613463
     80          1           0       -5.050510    5.218701    2.017384
     81          1           0       -9.651787    5.729628    0.515071
     82          1           0       -9.025666    8.156658    0.162986
     83          1           0       -7.146000    7.613337   -0.016374
     84          1           0      -12.262350    3.297835   -2.009897
     85          1           0      -13.116545    1.938095   -1.478663
     86          1           0      -12.371838    3.063197   -0.497284
     87          1           0      -12.618037   -1.680050   -1.065072
     88          1           0      -13.460688   -0.127013   -1.455963
     89          1           0      -13.361475   -1.965628   -3.135728
     90          1           0      -12.324088   -0.321026   -3.588091
     91          1           0      -11.560183   -1.727006   -3.330382
     92          1           0       -9.104886   -5.053719   -1.807955
     93          1           0       -7.700244   -5.709130   -0.741462
     94          1           0       -9.239927   -5.109992    0.087984
     95          1           0       -3.432574   -3.478331   -0.161859
     96          1           0       -1.745532   -4.469149    3.468858
     97          1           0       -2.637304   -6.044251    3.316372
     98          1           0       -0.956614   -5.968969    2.340596
     99          1           0        2.670524   -1.577730   -1.647990
    100          1           0        2.451174    0.226856   -2.038814
    101          1           0        4.136365   -0.751910    0.356911
    102          1           0        4.154784    1.038115   -2.828725
    103          1           0        5.129077    2.254610   -2.067219
    104          1           0        6.069199    0.818456   -2.848377
    105          1           0        6.632002    1.789398   -0.275325
    106          1           0        6.132221    0.190276    0.722514
    107          1           0        7.041155   -1.233430   -1.211788
    108          1           0        7.789876    0.174391   -2.127291
    109          1           0        9.013529    1.003198   -0.081300
    110          1           0        8.753920   -0.228378    1.165877
    111          1           0       10.198957   -0.268572   -1.679568
    112          1           0        9.127069   -2.392967   -1.774298
    113          1           0       10.757713   -2.479883   -1.788152
    114          1           0       10.066072   -2.834651   -0.355203
    115          1           0       11.329390    0.679589    0.154000
    116          1           0       11.583362   -0.935415    0.831682
    117          1           0       12.886663   -1.555440   -0.987089
    118          1           0       12.894153    0.098331   -1.915885
    119          1           0       13.600826    0.651800    0.679330
    120          1           0       13.886651   -1.009695    0.974722
    121          1           0       15.309144    0.298374   -1.579895
    122          1           0       15.928625   -2.261833   -0.029029
    123          1           0       14.987439   -2.207762   -1.582943
    124          1           0       16.557257   -1.456113   -1.359758
    125          1           0       15.879353    1.495456    0.690644
    126          1           0       16.382547   -0.260945    1.390858
    127          1           0       18.156191   -0.227501   -0.417565
    128          1           0       17.500017    1.263131   -1.078407
    129          1           0       18.644937    2.275106    1.095190
    130          1           0       18.912184    0.733425    1.794601
    131          1           0       20.734303    0.283612   -0.102781
    132          1           0       19.784101    3.165104   -0.588694
    133          1           0       21.170287    2.336592   -1.302266
    134          1           0       19.633200    1.905529   -1.858408
    135          1           0       21.346066    1.125015    2.302536
    136          1           0       22.118913    2.018405    0.938191
    137          1           0       20.833829    2.909829    1.768142
 ---------------------------------------------------------------------

 SCF Done:  E(RCAM-B3LYP) =  -2932.58890471     A.U. after   18 cycles

 Excitation energies and oscillator strengths:

 Excited State   1:      Singlet-A      2.0010 eV  619.61 nm  f=0.2215  <S**2>=0.000
     240 -> 243       -0.27954
     241 -> 242        0.64541
 This state for optimization and/or second-order correction.
 Total Energy, E(TD-HF/TD-KS) =  -2932.51536905
 Copying the excited state density for this state as the 1-particle RhoCI density.

 The electronic state is 1-A.
 Alpha  occ. eigenvalues --  -46.84655 -19.28393 -19.25727 -19.21573 -19.20754
 Alpha  occ. eigenvalues --  -19.20392 -14.43042 -14.39589 -14.39460 -14.39174
 Alpha  occ. eigenvalues --  -10.39869 -10.39561 -10.36923 -10.33096 -10.32213
 Alpha  occ. eigenvalues --  -10.31947 -10.31815 -10.30002 -10.29424 -10.29418
 Alpha  occ. eigenvalues --  -10.29226 -10.29088 -10.29040 -10.28868 -10.28703
 Alpha  occ. eigenvalues --  -10.28642 -10.28536 -10.28395 -10.28346 -10.28223
 Alpha  occ. eigenvalues --  -10.28185 -10.28072 -10.27857 -10.27786 -10.27700
 Alpha  occ. eigenvalues --  -10.27551 -10.27463 -10.27293 -10.27232 -10.27057
 Alpha  occ. eigenvalues --  -10.27033 -10.27007 -10.26896 -10.26860 -10.26856
 Alpha  occ. eigenvalues --  -10.26817 -10.26607 -10.26454 -10.26434 -10.26204
 Alpha  occ. eigenvalues --  -10.26174 -10.26155 -10.26088 -10.26062 -10.25844
 Alpha  occ. eigenvalues --  -10.25451 -10.25289 -10.25170 -10.25151 -10.25132
 Alpha  occ. eigenvalues --  -10.24860 -10.23741 -10.23628 -10.23485 -10.22563
 Alpha  occ. eigenvalues --   -3.13664  -1.88374  -1.87901  -1.87840  -1.21840
 Alpha  occ. eigenvalues --   -1.16894  -1.09257  -1.07668  -1.06991  -1.06356
 Alpha  occ. eigenvalues --   -1.03828  -1.03643  -1.02390  -0.94412  -0.92712
 Alpha  occ. eigenvalues --   -0.91442  -0.90532  -0.90213  -0.89275  -0.88999
 Alpha  occ. eigenvalues --   -0.88823  -0.88462  -0.87904  -0.87048  -0.86589
 Alpha  occ. eigenvalues --   -0.85676  -0.85096  -0.84656  -0.83322  -0.82679
 Alpha  occ. eigenvalues --   -0.82390  -0.81560  -0.81105  -0.80337  -0.78036
 Alpha  occ. eigenvalues --   -0.77727  -0.77030  -0.76996  -0.76297  -0.75741
 Alpha  occ. eigenvalues --   -0.75682  -0.75151  -0.74922  -0.74202  -0.73007
 Alpha  occ. eigenvalues --   -0.72136  -0.71162  -0.69782  -0.69366  -0.68726
 Alpha  occ. eigenvalues --   -0.67670  -0.67186  -0.66266  -0.65368  -0.64767
 Alpha  occ. eigenvalues --   -0.64459  -0.64409  -0.64004  -0.62159  -0.61751
 Alpha  occ. eigenvalues --   -0.61125  -0.60855  -0.60639  -0.60310  -0.59754
 Alpha  occ. eigenvalues --   -0.59126  -0.58477  -0.58367  -0.58277  -0.58090
 Alpha  occ. eigenvalues --   -0.56019  -0.55702  -0.55566  -0.55254  -0.55102
 Alpha  occ. eigenvalues --   -0.54881  -0.54675  -0.54022  -0.53650  -0.53601
 Alpha  occ. eigenvalues --   -0.53088  -0.52705  -0.52625  -0.52344  -0.52232
 Alpha  occ. eigenvalues --   -0.52070  -0.51473  -0.51364  -0.51067  -0.50992
 Alpha  occ. eigenvalues --   -0.50556  -0.50227  -0.49887  -0.49753  -0.49509
 Alpha  occ. eigenvalues --   -0.49311  -0.49029  -0.48951  -0.48747  -0.48610
 Alpha  occ. eigenvalues --   -0.48421  -0.48166  -0.48101  -0.47964  -0.47597
 Alpha  occ. eigenvalues --   -0.47327  -0.47101  -0.46853  -0.46392  -0.46232
 Alpha  occ. eigenvalues --   -0.46174  -0.45981  -0.45934  -0.45737  -0.45674
 Alpha  occ. eigenvalues --   -0.45195  -0.44991  -0.44814  -0.44486  -0.44252
 Alpha  occ. eigenvalues --   -0.44188  -0.43813  -0.43604  -0.43473  -0.43401
 Alpha  occ. eigenvalues --   -0.43173  -0.43082  -0.42848  -0.42722  -0.42608
 Alpha  occ. eigenvalues --   -0.42227  -0.42109  -0.41934  -0.41827  -0.41541
 Alpha  occ. eigenvalues --   -0.41474  -0.41219  -0.41104  -0.40788  -0.40318
 Alpha  occ. eigenvalues --   -0.40045  -0.39844  -0.39707  -0.39657  -0.39423
 Alpha  occ. eigenvalues --   -0.39069  -0.38726  -0.38444  -0.38412  -0.38214
 Alpha  occ. eigenvalues --   -0.37419  -0.37180  -0.36952  -0.36897  -0.36686
 Alpha  occ. eigenvalues --   -0.36560  -0.36142  -0.36129  -0.35918  -0.35828
 Alpha  occ. eigenvalues --   -0.35447  -0.34359  -0.34247  -0.33368  -0.33339
 Alpha  occ. eigenvalues --   -0.33198  -0.32532  -0.32403  -0.31079  -0.30582
 Alpha  occ. eigenvalues --   -0.29846  -0.29760  -0.27314  -0.26810  -0.23462
 Alpha  occ. eigenvalues --   -0.21191
 Alpha virt. eigenvalues --   -0.06595  -0.04066  -0.00200   0.03127   0.03938
 Alpha virt. eigenvalues --    0.05236   0.05686   0.05900   0.06602   0.06628
 Alpha virt. eigenvalues --    0.07568   0.09519   0.10504   0.11096   0.11587

 Mulliken charges:
               1
     1  Mg   0.827160
     2  C    0.091840
     3  C   -0.209860
     4  C   -0.164251
     5  C   -0.135617
     6  N   -0.635649
     7  C    0.338510
     8  C   -0.199412
     9  C   -0.098284
    10  C    0.333800
    11  C   -0.323194
    12  C   -0.142562
    13  C   -0.257793
    14  C    0.566288
    15  O   -0.506767
    16  O   -0.415482
    17  N   -0.685034
    18  C    0.334268
    19  C    0.017557
    20  C    0.020556
    21  C    0.269463
    22  C   -0.380386
    23  C   -0.083727
    24  C   -0.250025
    25  N   -0.682722
    26  C    0.292593
    27  C    0.019346
    28  C    0.050309
    29  C    0.278985
    30  C   -0.378271
    31  C   -0.287172
    32  C   -0.316544
    33  N   -0.806738
    34  C    0.333012
    35  C    0.002885
    36  C    0.008729
    37  C    0.303724
    38  C   -0.391656
    39  C    0.382739
    40  O   -0.466473
    41  C   -0.322273
    42  C    0.602628
    43  O   -0.503021
    44  O   -0.443622
    45  C   -0.064226
    46  C    0.001953
    47  C   -0.146056
    48  C    0.112208
    49  C   -0.345436
    50  C   -0.204690
    51  C   -0.166665
    52  C   -0.134650
    53  C   -0.053693
    54  C   -0.344545
    55  C   -0.165607
    56  C   -0.159725
    57  C   -0.167656
    58  C   -0.051686
    59  C   -0.299071
    60  C   -0.172154
    61  C   -0.178736
    62  C   -0.157531
    63  C   -0.073329
    64  C   -0.277310
    65  C   -0.291007
    66  H    0.082559
    67  H    0.080253
    68  H    0.091508
    69  H    0.127107
    70  H    0.105800
    71  H    0.119452
    72  H    0.111785
    73  H    0.102814
    74  H    0.115076
    75  H    0.114453
    76  H    0.138329
    77  H    0.128575
    78  H    0.115394
    79  H    0.115572
    80  H    0.114964
    81  H    0.088409
    82  H    0.113190
    83  H    0.099264
    84  H    0.122095
    85  H    0.109173
    86  H    0.127710
    87  H    0.104624
    88  H    0.107087
    89  H    0.089343
    90  H    0.121386
    91  H    0.108769
    92  H    0.123649
    93  H    0.133636
    94  H    0.130913
    95  H    0.175822
    96  H    0.139208
    97  H    0.106896
    98  H    0.083355
    99  H    0.139496
   100  H    0.119013
   101  H    0.094384
   102  H    0.110931
   103  H    0.114793
   104  H    0.115890
   105  H    0.074583
   106  H    0.112335
   107  H    0.110486
   108  H    0.071056
   109  H    0.091761
   110  H    0.029891
   111  H    0.101442
   112  H    0.095818
   113  H    0.111129
   114  H    0.115316
   115  H    0.098266
   116  H    0.086171
   117  H    0.112571
   118  H    0.042480
   119  H    0.088127
   120  H    0.069646
   121  H    0.052644
   122  H    0.097623
   123  H    0.079765
   124  H    0.118313
   125  H    0.078094
   126  H    0.093927
   127  H    0.108577
   128  H    0.085091
   129  H    0.086139
   130  H    0.094830
   131  H    0.042146
   132  H    0.111084
   133  H    0.112964
   134  H    0.070874
   135  H    0.057963
   136  H    0.115227
   137  H    0.092739
 Sum of Mulliken charges =   0.00000

 Dipole moment (field-independent basis, Debye):
    X=              3.3257    Y=              5.4308    Z=              0.8628  Tot=              6.4264
 Quadrupole moment (field-independent basis, Debye-Ang):
   XX=           -334.4011   YY=           -400.8817   ZZ=           -405.4718
   XY=            -17.0775   XZ=             -0.6623   YZ=              1.7333

 Normal termination of Gaussian 09 at Sat Jun 29 08:50:40 2019.
