 Gaussian 09, Revision D.01,
 Gaussian 09:  ES64L-G09RevD.01 24-Apr-2013

 -------------------------------------
 # td=(NStates=1) CAM-B3LYP/6-31G(d,p)
 -------------------------------------

 --
 TD
 --
 Symbolic Z-matrix:
 Charge =  0 Multiplicity = 1

                         Standard orientation:
 ---------------------------------------------------------------------
 Center     Atomic      Atomic             Coordinates (Angstroms)
 Number     Number       Type             X           Y           Z
 ---------------------------------------------------------------------
      1         12           0       -7.149449    0.543444    0.146806
      2          6           0       -4.865657   -1.973208    0.487023
      3          6           0       -4.704510    2.863436    1.172739
      4          6           0       -9.419871    3.126967   -0.356979
      5          6           0       -9.531545   -1.697025   -0.936466
      6          7           0       -5.138828    0.393530    0.857719
      7          6           0       -4.268368   -0.768476    0.896240
      8          6           0       -2.836886   -0.364419    1.294371
      9          6           0       -3.022097    1.056871    1.710301
     10          6           0       -4.368699    1.517022    1.183006
     11          6           0       -2.827397    1.189593    3.162253
     12          6           0       -1.907352   -0.566397    0.126495
     13          6           0       -0.516805   -0.380418    0.512246
     14          6           0        0.551588   -0.507981   -0.613316
     15          8           0        0.291430   -0.860797   -1.757328
     16          8           0        1.750322   -0.327776   -0.147269
     17          7           0       -7.104044    2.541064    0.400353
     18          6           0       -6.056397    3.301594    0.896798
     19          6           0       -6.376384    4.730001    0.846468
     20          6           0       -7.743777    4.780837    0.475714
     21          6           0       -8.164325    3.506207    0.120868
     22          6           0       -5.580390    5.895504    1.397988
     23          6           0       -8.559374    6.038222    0.561107
     24          6           0       -8.197514    7.265894    0.247837
     25          7           0       -9.158523    0.727776   -0.522282
     26          6           0       -9.936970    1.768090   -0.644174
     27          6           0      -11.268372    1.536288   -1.182680
     28          6           0      -11.212710    0.136854   -1.356979
     29          6           0       -9.986523   -0.373800   -0.912003
     30          6           0      -12.285531    2.453814   -1.537542
     31          6           0      -12.374030   -0.711673   -1.846313
     32          6           0      -12.263346   -1.016305   -3.384944
     33          7           0       -7.228653   -1.402154   -0.116582
     34          6           0       -8.271852   -2.220467   -0.570937
     35          6           0       -7.873746   -3.624215   -0.570787
     36          6           0       -6.551764   -3.582134   -0.160065
     37          6           0       -6.187779   -2.205766    0.094281
     38          6           0       -8.720177   -4.757254   -0.954513
     39          6           0       -5.391965   -4.364131    0.203999
     40          8           0       -5.162782   -5.582538    0.126979
     41          6           0       -4.238777   -3.331837    0.607506
     42          6           0       -3.668995   -3.829727    1.867938
     43          8           0       -3.856078   -3.202008    2.947201
     44          8           0       -2.917066   -4.871379    1.739961
     45          6           0       -2.251238   -5.417559    2.894795
     46          6           0        2.846068   -0.561967   -1.238256
     47          6           0        4.179667   -0.485156   -0.588485
     48          6           0        5.223169    0.379163   -0.885719
     49          6           0        5.224730    1.157740   -2.177293
     50          6           0        6.460674    0.515240   -0.137230
     51          6           0        7.701235   -0.157529   -0.874840
     52          6           0        8.933416   -0.070202   -0.017023
     53          6           0       10.158103   -0.676280   -0.757616
     54          6           0       10.009479   -2.099115   -1.059975
     55          6           0       11.535834   -0.427031    0.001773
     56          6           0       12.794044   -0.475233   -0.760261
     57          6           0       13.962991   -0.159008    0.114902
     58          6           0       15.348261   -0.198207   -0.551738
     59          6           0       15.652780   -1.585825   -0.946922
     60          6           0       16.481095    0.160050    0.400989
     61          6           0       17.840419    0.476004   -0.277545
     62          6           0       18.762528    1.199287    0.643303
     63          6           0       20.225241    1.374448    0.056439
     64          6           0       20.250834    2.389973   -1.100274
     65          6           0       21.047559    1.946472    1.272911
     66          1           0       -3.961171    3.508702    1.683151
     67          1           0      -10.167265    3.938562   -0.712420
     68          1           0      -10.104679   -2.328498   -1.303975
     69          1           0       -2.378609   -0.974746    2.081331
     70          1           0       -2.196131    1.765179    1.093597
     71          1           0       -1.713421    1.244894    3.531721
     72          1           0       -2.851320    2.271692    3.501436
     73          1           0       -3.412497    0.497531    3.655673
     74          1           0       -1.948298   -1.501280   -0.061948
     75          1           0       -2.375513    0.150079   -0.685282
     76          1           0       -0.444679    0.779608    0.826863
     77          1           0       -0.173603   -0.830809    1.505201
     78          1           0       -5.117227    6.522027    0.657623
     79          1           0       -6.415181    6.549606    1.767981
     80          1           0       -4.994114    5.583533    2.292450
     81          1           0       -9.664115    6.144540    0.994899
     82          1           0       -8.726762    8.196881    0.057298
     83          1           0       -7.136344    7.526273    0.065184
     84          1           0      -11.933543    3.160503   -2.310444
     85          1           0      -13.294363    2.118901   -1.992631
     86          1           0      -12.662312    2.822943   -0.513086
     87          1           0      -12.127076   -1.736709   -1.268293
     88          1           0      -13.370384   -0.342053   -1.658912
     89          1           0      -13.100862   -1.579394   -3.825993
     90          1           0      -12.258890    0.025332   -4.074356
     91          1           0      -11.346304   -1.581228   -3.592475
     92          1           0       -8.809728   -4.637019   -2.053289
     93          1           0       -8.365031   -5.782262   -0.761616
     94          1           0       -9.660133   -4.758590   -0.619368
     95          1           0       -3.327183   -3.419812   -0.231398
     96          1           0       -1.789996   -4.579039    3.517438
     97          1           0       -2.932682   -6.134402    3.471647
     98          1           0       -1.501669   -5.973282    2.462608
     99          1           0        2.724776   -1.553868   -1.498150
    100          1           0        2.516006    0.146544   -2.111604
    101          1           0        4.340598   -1.033558    0.316719
    102          1           0        4.417786    1.384019   -2.735170
    103          1           0        5.645286    2.118603   -1.841364
    104          1           0        6.108339    0.934763   -2.845958
    105          1           0        6.537040    1.497709    0.100950
    106          1           0        6.383584    0.046908    0.967233
    107          1           0        7.532564   -1.210259   -1.436652
    108          1           0        7.900234    0.289665   -1.819286
    109          1           0        9.356903    0.969041    0.112025
    110          1           0        8.885476   -0.560839    0.931987
    111          1           0       10.306762   -0.219700   -1.683553
    112          1           0        9.144194   -2.089986   -1.686789
    113          1           0       10.786944   -2.543214   -1.659197
    114          1           0        9.980190   -2.529168   -0.090116
    115          1           0       11.411795    0.605998    0.401969
    116          1           0       11.409593   -1.070873    0.891851
    117          1           0       12.927614   -1.418850   -1.215524
    118          1           0       12.915921    0.286725   -1.555396
    119          1           0       13.846637    0.888241    0.516521
    120          1           0       14.174763   -0.711341    1.121110
    121          1           0       15.347368    0.441360   -1.348679
    122          1           0       15.492065   -2.333791    0.022717
    123          1           0       15.001719   -2.071489   -1.661710
    124          1           0       16.751462   -1.670984   -1.296394
    125          1           0       16.383139    1.022090    1.176630
    126          1           0       16.574269   -0.651607    1.140732
    127          1           0       18.290442   -0.447739   -0.653517
    128          1           0       17.599362    1.086588   -1.039190
    129          1           0       18.315269    2.159518    0.769152
    130          1           0       18.998960    0.713152    1.611286
    131          1           0       20.526126    0.341400   -0.162470
    132          1           0       19.737649    3.327349   -0.797601
    133          1           0       21.224331    2.550563   -1.414388
    134          1           0       19.758250    1.941843   -2.049749
    135          1           0       20.995091    0.982080    1.919488
    136          1           0       22.135372    2.150419    0.945150
    137          1           0       20.682772    2.934814    1.687369
 ---------------------------------------------------------------------

 SCF Done:  E(RCAM-B3LYP) =  -2932.72869639     A.U. after   18 cycles

 Excitation energies and oscillator strengths:

 Excited State   1:      Singlet-A      2.1041 eV  589.24 nm  f=0.1904  <S**2>=0.000
     240 -> 242       -0.18247
     240 -> 243        0.25390
     241 -> 242        0.61317
     241 -> 243        0.12795
 This state for optimization and/or second-order correction.
 Total Energy, E(TD-HF/TD-KS) =  -2932.65137037
 Copying the excited state density for this state as the 1-particle RhoCI density.

 The electronic state is 1-A.
 Alpha  occ. eigenvalues --  -46.83676 -19.26563 -19.25886 -19.19253 -19.19163
 Alpha  occ. eigenvalues --  -19.18379 -14.41246 -14.39714 -14.39350 -14.39062
 Alpha  occ. eigenvalues --  -10.38171 -10.38039 -10.34444 -10.32643 -10.31641
 Alpha  occ. eigenvalues --  -10.31232 -10.30765 -10.30576 -10.29688 -10.29107
 Alpha  occ. eigenvalues --  -10.28998 -10.28867 -10.28723 -10.28519 -10.28429
 Alpha  occ. eigenvalues --  -10.28309 -10.28233 -10.28042 -10.27879 -10.27712
 Alpha  occ. eigenvalues --  -10.27680 -10.27446 -10.27412 -10.27377 -10.27115
 Alpha  occ. eigenvalues --  -10.26970 -10.26751 -10.26676 -10.26604 -10.26328
 Alpha  occ. eigenvalues --  -10.26282 -10.26172 -10.26168 -10.26087 -10.26014
 Alpha  occ. eigenvalues --  -10.25872 -10.25789 -10.25750 -10.25710 -10.25644
 Alpha  occ. eigenvalues --  -10.25468 -10.25458 -10.25328 -10.25250 -10.25069
 Alpha  occ. eigenvalues --  -10.24983 -10.24897 -10.24891 -10.24885 -10.24612
 Alpha  occ. eigenvalues --  -10.24579 -10.24512 -10.24164 -10.23592 -10.22971
 Alpha  occ. eigenvalues --   -3.12752  -1.87453  -1.86973  -1.86962  -1.18816
 Alpha  occ. eigenvalues --   -1.17474  -1.08613  -1.07068  -1.05786  -1.03874
 Alpha  occ. eigenvalues --   -1.02988  -1.01631  -1.00642  -0.92257  -0.91860
 Alpha  occ. eigenvalues --   -0.91528  -0.91168  -0.90356  -0.88814  -0.88781
 Alpha  occ. eigenvalues --   -0.88678  -0.88157  -0.87480  -0.87026  -0.86081
 Alpha  occ. eigenvalues --   -0.85597  -0.84468  -0.83808  -0.83347  -0.82558
 Alpha  occ. eigenvalues --   -0.82292  -0.81901  -0.81106  -0.80160  -0.78726
 Alpha  occ. eigenvalues --   -0.78016  -0.77296  -0.76935  -0.75941  -0.75376
 Alpha  occ. eigenvalues --   -0.75132  -0.74953  -0.73500  -0.73277  -0.72390
 Alpha  occ. eigenvalues --   -0.71314  -0.70576  -0.69452  -0.68987  -0.67844
 Alpha  occ. eigenvalues --   -0.67577  -0.66644  -0.65293  -0.64860  -0.64440
 Alpha  occ. eigenvalues --   -0.63973  -0.63366  -0.63217  -0.62575  -0.61948
 Alpha  occ. eigenvalues --   -0.61605  -0.60632  -0.60371  -0.59482  -0.59141
 Alpha  occ. eigenvalues --   -0.58304  -0.57717  -0.57638  -0.56658  -0.56320
 Alpha  occ. eigenvalues --   -0.55833  -0.55634  -0.55406  -0.55246  -0.54429
 Alpha  occ. eigenvalues --   -0.54337  -0.54266  -0.53912  -0.53518  -0.53470
 Alpha  occ. eigenvalues --   -0.52974  -0.52732  -0.52349  -0.52189  -0.51973
 Alpha  occ. eigenvalues --   -0.51721  -0.51607  -0.51297  -0.51102  -0.50709
 Alpha  occ. eigenvalues --   -0.50651  -0.50259  -0.49995  -0.49795  -0.49583
 Alpha  occ. eigenvalues --   -0.49328  -0.49085  -0.48622  -0.48551  -0.48220
 Alpha  occ. eigenvalues --   -0.47894  -0.47864  -0.47351  -0.47250  -0.47084
 Alpha  occ. eigenvalues --   -0.47018  -0.46749  -0.46612  -0.46567  -0.46207
 Alpha  occ. eigenvalues --   -0.45834  -0.45732  -0.45587  -0.45133  -0.45072
 Alpha  occ. eigenvalues --   -0.44794  -0.44692  -0.44478  -0.44269  -0.44242
 Alpha  occ. eigenvalues --   -0.44014  -0.43873  -0.43676  -0.43180  -0.42908
 Alpha  occ. eigenvalues --   -0.42456  -0.42352  -0.42286  -0.42064  -0.41879
 Alpha  occ. eigenvalues --   -0.41839  -0.41601  -0.41585  -0.41448  -0.41092
 Alpha  occ. eigenvalues --   -0.40934  -0.40655  -0.40569  -0.40360  -0.40177
 Alpha  occ. eigenvalues --   -0.40040  -0.39806  -0.39385  -0.39374  -0.39173
 Alpha  occ. eigenvalues --   -0.39069  -0.38277  -0.38009  -0.37870  -0.37759
 Alpha  occ. eigenvalues --   -0.37180  -0.36953  -0.36929  -0.36891  -0.36803
 Alpha  occ. eigenvalues --   -0.36338  -0.36289  -0.35858  -0.35792  -0.35360
 Alpha  occ. eigenvalues --   -0.34948  -0.34915  -0.34427  -0.33478  -0.33326
 Alpha  occ. eigenvalues --   -0.32252  -0.31913  -0.31427  -0.30350  -0.29652
 Alpha  occ. eigenvalues --   -0.29041  -0.28894  -0.27960  -0.27233  -0.22894
 Alpha  occ. eigenvalues --   -0.21372
 Alpha virt. eigenvalues --   -0.06181  -0.03317   0.01501   0.04445   0.04720
 Alpha virt. eigenvalues --    0.06181   0.06289   0.06829   0.07370   0.07862
 Alpha virt. eigenvalues --    0.08082   0.10480   0.11458   0.11628   0.12182

 Mulliken charges:
               1
     1  Mg   0.818364
     2  C    0.074221
     3  C   -0.195515
     4  C   -0.192275
     5  C   -0.109897
     6  N   -0.645025
     7  C    0.301020
     8  C   -0.155975
     9  C   -0.144135
    10  C    0.366531
    11  C   -0.298891
    12  C   -0.111846
    13  C   -0.288312
    14  C    0.615960
    15  O   -0.503974
    16  O   -0.476338
    17  N   -0.704794
    18  C    0.307982
    19  C    0.008048
    20  C    0.016364
    21  C    0.310909
    22  C   -0.381589
    23  C   -0.095066
    24  C   -0.239384
    25  N   -0.661768
    26  C    0.294880
    27  C    0.060137
    28  C    0.022666
    29  C    0.271773
    30  C   -0.400704
    31  C   -0.235433
    32  C   -0.296130
    33  N   -0.749876
    34  C    0.231470
    35  C    0.047082
    36  C    0.019789
    37  C    0.305447
    38  C   -0.379712
    39  C    0.341583
    40  O   -0.480368
    41  C   -0.326834
    42  C    0.615112
    43  O   -0.527783
    44  O   -0.412928
    45  C   -0.083696
    46  C    0.010949
    47  C   -0.149769
    48  C    0.124260
    49  C   -0.364278
    50  C   -0.228216
    51  C   -0.185653
    52  C   -0.159607
    53  C   -0.110597
    54  C   -0.279468
    55  C   -0.171321
    56  C   -0.169855
    57  C   -0.167689
    58  C   -0.056301
    59  C   -0.289926
    60  C   -0.186563
    61  C   -0.168057
    62  C   -0.170279
    63  C   -0.077721
    64  C   -0.301994
    65  C   -0.295881
    66  H    0.089039
    67  H    0.099019
    68  H    0.041082
    69  H    0.123189
    70  H    0.076851
    71  H    0.094771
    72  H    0.094247
    73  H    0.144534
    74  H    0.117017
    75  H    0.110422
    76  H    0.102113
    77  H    0.130861
    78  H    0.133276
    79  H    0.124187
    80  H    0.117670
    81  H    0.097951
    82  H    0.116635
    83  H    0.088857
    84  H    0.130920
    85  H    0.112734
    86  H    0.121993
    87  H    0.084374
    88  H    0.110773
    89  H    0.105598
    90  H    0.075463
    91  H    0.111414
    92  H    0.130481
    93  H    0.148099
    94  H    0.134460
    95  H    0.140223
    96  H    0.132571
    97  H    0.132653
    98  H    0.135899
    99  H    0.148674
   100  H    0.138685
   101  H    0.093655
   102  H    0.123591
   103  H    0.104373
   104  H    0.116035
   105  H    0.126097
   106  H    0.084711
   107  H    0.095727
   108  H    0.107806
   109  H    0.096683
   110  H    0.098499
   111  H    0.080495
   112  H    0.091373
   113  H    0.099005
   114  H    0.097568
   115  H    0.074840
   116  H    0.086248
   117  H    0.102342
   118  H    0.096618
   119  H    0.080141
   120  H    0.073094
   121  H    0.086954
   122  H    0.069770
   123  H    0.100060
   124  H    0.092067
   125  H    0.067142
   126  H    0.089369
   127  H    0.088397
   128  H    0.106426
   129  H    0.091446
   130  H    0.081742
   131  H    0.090237
   132  H    0.100373
   133  H    0.110217
   134  H    0.084890
   135  H    0.093005
   136  H    0.084673
   137  H    0.104467
 Sum of Mulliken charges =   0.00000

 Dipole moment (field-independent basis, Debye):
    X=              2.5942    Y=              4.9328    Z=             -0.3606  Tot=              5.5851
 Quadrupole moment (field-independent basis, Debye-Ang):
   XX=           -325.8768   YY=           -384.6950   ZZ=           -398.2246
   XY=            -19.0800   XZ=              5.5281   YZ=             -2.6011

 Normal termination of Gaussian 09 at Sat Jun 29 05:38:56 2019.
