 Gaussian 09, Revision D.01,
 Gaussian 09:  ES64L-G09RevD.01 24-Apr-2013

 -------------------------------------
 # td=(NStates=1) CAM-B3LYP/6-31G(d,p)
 -------------------------------------

 --
 TD
 --
 Symbolic Z-matrix:
 Charge =  0 Multiplicity = 1

                         Standard orientation:
 ---------------------------------------------------------------------
 Center     Atomic      Atomic             Coordinates (Angstroms)
 Number     Number       Type             X           Y           Z
 ---------------------------------------------------------------------
      1         12           0       -7.143555    0.585284    0.204637
      2          6           0       -4.851510   -1.984697    0.383828
      3          6           0       -4.682304    2.737359    1.268034
      4          6           0       -9.363086    3.155360   -0.322836
      5          6           0       -9.566889   -1.710286   -0.869429
      6          7           0       -5.070622    0.414156    0.786495
      7          6           0       -4.337217   -0.762390    0.804956
      8          6           0       -2.892831   -0.417737    1.312055
      9          6           0       -2.961830    1.056305    1.701118
     10          6           0       -4.294644    1.451134    1.222066
     11          6           0       -2.916108    1.222560    3.240475
     12          6           0       -1.866644   -0.760171    0.070523
     13          6           0       -0.403029   -0.633011    0.561394
     14          6           0        0.446192   -0.850981   -0.574239
     15          8           0        0.147695   -1.168437   -1.666550
     16          8           0        1.795068   -0.645413   -0.166766
     17          7           0       -7.041809    2.523008    0.506757
     18          6           0       -5.960613    3.313659    0.933473
     19          6           0       -6.335533    4.738652    0.904060
     20          6           0       -7.638472    4.828474    0.560186
     21          6           0       -8.076750    3.491779    0.345123
     22          6           0       -5.385573    5.914147    1.233950
     23          6           0       -8.438227    6.019128    0.309223
     24          6           0       -8.155303    7.355534    0.075279
     25          7           0       -9.086253    0.752643   -0.552051
     26          6           0       -9.831975    1.869257   -0.580971
     27          6           0      -11.178452    1.564719   -1.063936
     28          6           0      -11.217989    0.193440   -1.232724
     29          6           0       -9.978786   -0.350379   -0.788285
     30          6           0      -12.198502    2.526544   -1.344139
     31          6           0      -12.329365   -0.610131   -1.683016
     32          6           0      -12.078309   -0.883626   -3.239628
     33          7           0       -7.267561   -1.362930   -0.122075
     34          6           0       -8.274442   -2.160419   -0.542358
     35          6           0       -7.819334   -3.553664   -0.649981
     36          6           0       -6.478939   -3.547915   -0.297517
     37          6           0       -6.199082   -2.188335    0.065730
     38          6           0       -8.686868   -4.762549   -1.011779
     39          6           0       -5.367295   -4.383541    0.047094
     40          8           0       -5.290766   -5.615023    0.011720
     41          6           0       -4.155375   -3.417239    0.443615
     42          6           0       -3.646924   -3.759709    1.866429
     43          8           0       -3.947660   -3.215627    2.846989
     44          8           0       -2.954879   -4.861587    1.775116
     45          6           0       -2.394437   -5.330331    3.045108
     46          6           0        2.765480   -0.762705   -1.255555
     47          6           0        4.105770   -0.456775   -0.565213
     48          6           0        5.069473    0.375103   -1.057045
     49          6           0        5.035495    1.183723   -2.341387
     50          6           0        6.385346    0.456472   -0.308009
     51          6           0        7.623957    0.151728   -1.122177
     52          6           0        8.859575    0.177575   -0.218611
     53          6           0       10.140461   -0.337610   -0.940704
     54          6           0        9.989787   -1.949193   -1.242548
     55          6           0       11.359819   -0.038252   -0.073970
     56          6           0       12.689066   -0.364932   -0.795757
     57          6           0       13.910926   -0.010351    0.104058
     58          6           0       15.400033   -0.166017   -0.454959
     59          6           0       15.712944   -1.629606   -0.740814
     60          6           0       16.404992    0.472211    0.455537
     61          6           0       17.831777    0.549194   -0.154612
     62          6           0       18.888545    1.137403    0.802163
     63          6           0       20.245709    1.204970    0.348162
     64          6           0       20.463382    1.921896   -1.040357
     65          6           0       21.204394    1.770825    1.378773
     66          1           0       -4.120688    3.605947    1.731100
     67          1           0      -10.029560    3.976718   -0.522907
     68          1           0      -10.458511   -2.582842   -1.159033
     69          1           0       -2.712218   -1.105106    2.221696
     70          1           0       -2.083888    1.545045    1.134101
     71          1           0       -1.850275    0.839446    3.598553
     72          1           0       -3.069281    2.319489    3.348076
     73          1           0       -3.662109    0.581225    3.613242
     74          1           0       -2.134753   -1.651313   -0.428864
     75          1           0       -2.000016   -0.085035   -0.779864
     76          1           0       -0.167046    0.416355    0.727350
     77          1           0       -0.664889   -1.249716    1.396788
     78          1           0       -4.799065    6.314147    0.461494
     79          1           0       -5.954463    6.713651    1.703209
     80          1           0       -4.600018    5.726633    1.819352
     81          1           0       -9.478330    6.011822    0.530805
     82          1           0       -8.902846    8.059999   -0.188542
     83          1           0       -7.130248    7.772851    0.089730
     84          1           0      -12.193517    3.514633   -1.930928
     85          1           0      -13.280976    2.281559   -1.730725
     86          1           0      -12.603660    2.923552   -0.485143
     87          1           0      -12.568216   -1.478711   -1.113141
     88          1           0      -13.288791    0.076379   -1.739488
     89          1           0      -12.801024   -1.862622   -3.624389
     90          1           0      -12.339923   -0.034378   -3.872832
     91          1           0      -11.115217   -1.269184   -3.309842
     92          1           0       -8.958999   -4.929520   -1.989091
     93          1           0       -7.882257   -5.620128   -0.900532
     94          1           0       -9.444074   -4.702501   -0.495697
     95          1           0       -3.391399   -3.592261   -0.280405
     96          1           0       -1.989265   -4.663145    3.637005
     97          1           0       -2.963839   -5.669402    3.988709
     98          1           0       -1.786397   -6.062023    2.830760
     99          1           0        2.614984   -1.769509   -1.549895
    100          1           0        2.545119   -0.114452   -2.144802
    101          1           0        4.134200   -1.074348    0.382503
    102          1           0        3.947742    1.373594   -2.748721
    103          1           0        5.649727    2.055614   -2.175526
    104          1           0        5.479499    0.567824   -3.402129
    105          1           0        6.418922    1.599561    0.042324
    106          1           0        6.494542   -0.261734    0.646560
    107          1           0        7.259526   -1.002196   -1.373849
    108          1           0        7.685133    0.723536   -2.062658
    109          1           0        8.944991    1.299451    0.077673
    110          1           0        8.802995   -0.333029    0.827439
    111          1           0       10.089647    0.147557   -1.955555
    112          1           0        9.024605   -2.145280   -1.742629
    113          1           0       10.814014   -2.633662   -1.618030
    114          1           0        9.839751   -2.646173   -0.187664
    115          1           0       11.370959    0.962700    0.242937
    116          1           0       10.978511   -0.713516    0.791538
    117          1           0       12.755008   -1.640776   -1.072125
    118          1           0       12.599351    0.331482   -1.610769
    119          1           0       13.794028    0.974585    0.362071
    120          1           0       14.003729   -0.768848    0.955116
    121          1           0       15.556511    0.413536   -1.444573
    122          1           0       15.529788   -2.268997    0.145252
    123          1           0       15.214105   -1.961935   -1.748851
    124          1           0       16.847325   -1.720600   -1.061118
    125          1           0       16.104947    1.509466    0.665362
    126          1           0       16.361818    0.010470    1.523041
    127          1           0       17.932658   -0.544750   -0.505452
    128          1           0       17.517707    1.154320   -0.962166
    129          1           0       18.514263    2.132728    0.876909
    130          1           0       18.821365    0.508471    1.742878
    131          1           0       20.535880    0.287843    0.222535
    132          1           0       19.957651    3.039348   -1.069271
    133          1           0       21.548063    2.033948   -1.006434
    134          1           0       19.948249    1.220573   -1.855237
    135          1           0       21.177822    1.092092    2.217229
    136          1           0       22.219833    1.628777    0.853837
    137          1           0       20.958612    2.808296    1.428964
 ---------------------------------------------------------------------

 SCF Done:  E(RCAM-B3LYP) =  -2932.61339525     A.U. after   16 cycles

 Excitation energies and oscillator strengths:

 Excited State   1:      Singlet-A      1.9542 eV  634.45 nm  f=0.2641  <S**2>=0.000
     240 -> 243       -0.24689
     241 -> 242        0.65880
 This state for optimization and/or second-order correction.
 Total Energy, E(TD-HF/TD-KS) =  -2932.54157987
 Copying the excited state density for this state as the 1-particle RhoCI density.

 The electronic state is 1-A.
 Alpha  occ. eigenvalues --  -46.83644 -19.27621 -19.24360 -19.22204 -19.21345
 Alpha  occ. eigenvalues --  -19.20483 -14.41680 -14.40008 -14.39865 -14.39188
 Alpha  occ. eigenvalues --  -10.39103 -10.39053 -10.35370 -10.31210 -10.30983
 Alpha  occ. eigenvalues --  -10.30370 -10.30141 -10.30082 -10.30040 -10.29763
 Alpha  occ. eigenvalues --  -10.29485 -10.29456 -10.29126 -10.28958 -10.28817
 Alpha  occ. eigenvalues --  -10.28814 -10.28654 -10.28496 -10.28037 -10.27757
 Alpha  occ. eigenvalues --  -10.27638 -10.27554 -10.27543 -10.27440 -10.27417
 Alpha  occ. eigenvalues --  -10.27242 -10.27143 -10.27095 -10.27085 -10.27061
 Alpha  occ. eigenvalues --  -10.26955 -10.26780 -10.26742 -10.26708 -10.26705
 Alpha  occ. eigenvalues --  -10.26703 -10.26380 -10.26350 -10.26284 -10.26190
 Alpha  occ. eigenvalues --  -10.26118 -10.26009 -10.25985 -10.25823 -10.25590
 Alpha  occ. eigenvalues --  -10.25338 -10.25325 -10.25159 -10.24927 -10.24846
 Alpha  occ. eigenvalues --  -10.24660 -10.24378 -10.24323 -10.24273 -10.23191
 Alpha  occ. eigenvalues --   -3.12842  -1.87531  -1.87094  -1.87030  -1.20916
 Alpha  occ. eigenvalues --   -1.17794  -1.11816  -1.10104  -1.09280  -1.04670
 Alpha  occ. eigenvalues --   -1.03382  -1.02354  -1.01338  -0.92206  -0.91099
 Alpha  occ. eigenvalues --   -0.90847  -0.90353  -0.89408  -0.89116  -0.89088
 Alpha  occ. eigenvalues --   -0.88431  -0.88248  -0.87406  -0.87086  -0.86146
 Alpha  occ. eigenvalues --   -0.84873  -0.84510  -0.83882  -0.82591  -0.82492
 Alpha  occ. eigenvalues --   -0.81747  -0.80903  -0.80528  -0.79299  -0.79080
 Alpha  occ. eigenvalues --   -0.77915  -0.77719  -0.76868  -0.75483  -0.74999
 Alpha  occ. eigenvalues --   -0.74669  -0.74236  -0.74156  -0.73008  -0.72644
 Alpha  occ. eigenvalues --   -0.71506  -0.70475  -0.69509  -0.69205  -0.68684
 Alpha  occ. eigenvalues --   -0.67504  -0.65857  -0.65765  -0.65153  -0.64648
 Alpha  occ. eigenvalues --   -0.63658  -0.62962  -0.62859  -0.62634  -0.62159
 Alpha  occ. eigenvalues --   -0.61138  -0.61137  -0.60677  -0.59792  -0.59494
 Alpha  occ. eigenvalues --   -0.58710  -0.58636  -0.58056  -0.57598  -0.57304
 Alpha  occ. eigenvalues --   -0.56429  -0.56005  -0.55563  -0.55237  -0.55111
 Alpha  occ. eigenvalues --   -0.54667  -0.54578  -0.54326  -0.53757  -0.53622
 Alpha  occ. eigenvalues --   -0.53482  -0.52767  -0.52352  -0.52040  -0.52015
 Alpha  occ. eigenvalues --   -0.51523  -0.51420  -0.51005  -0.50851  -0.50660
 Alpha  occ. eigenvalues --   -0.50403  -0.49996  -0.49920  -0.49740  -0.49483
 Alpha  occ. eigenvalues --   -0.49190  -0.48869  -0.48605  -0.48425  -0.48301
 Alpha  occ. eigenvalues --   -0.48119  -0.48041  -0.47786  -0.47383  -0.47292
 Alpha  occ. eigenvalues --   -0.46649  -0.46461  -0.46222  -0.45950  -0.45800
 Alpha  occ. eigenvalues --   -0.45607  -0.45498  -0.45175  -0.44955  -0.44871
 Alpha  occ. eigenvalues --   -0.44535  -0.44379  -0.44141  -0.43839  -0.43772
 Alpha  occ. eigenvalues --   -0.43758  -0.43517  -0.43266  -0.43163  -0.43089
 Alpha  occ. eigenvalues --   -0.42967  -0.42709  -0.42299  -0.42252  -0.42080
 Alpha  occ. eigenvalues --   -0.41995  -0.41823  -0.41488  -0.41378  -0.41175
 Alpha  occ. eigenvalues --   -0.41053  -0.40892  -0.40723  -0.40398  -0.40210
 Alpha  occ. eigenvalues --   -0.40006  -0.39877  -0.39397  -0.39233  -0.39000
 Alpha  occ. eigenvalues --   -0.38769  -0.38491  -0.38377  -0.38140  -0.37960
 Alpha  occ. eigenvalues --   -0.37571  -0.37120  -0.36962  -0.36876  -0.36541
 Alpha  occ. eigenvalues --   -0.36450  -0.36163  -0.35906  -0.35780  -0.35529
 Alpha  occ. eigenvalues --   -0.35344  -0.35063  -0.35021  -0.34566  -0.34474
 Alpha  occ. eigenvalues --   -0.33706  -0.33543  -0.31716  -0.31135  -0.30315
 Alpha  occ. eigenvalues --   -0.30137  -0.29207  -0.28011  -0.27339  -0.23080
 Alpha  occ. eigenvalues --   -0.21146
 Alpha virt. eigenvalues --   -0.06871  -0.03140   0.01172   0.03602   0.05204
 Alpha virt. eigenvalues --    0.05834   0.06198   0.06495   0.07033   0.07392
 Alpha virt. eigenvalues --    0.08476   0.10402   0.11009   0.11194   0.11697

 Mulliken charges:
               1
     1  Mg   0.821986
     2  C   -0.000848
     3  C   -0.192803
     4  C   -0.163465
     5  C   -0.184971
     6  N   -0.633125
     7  C    0.302038
     8  C   -0.187422
     9  C   -0.143333
    10  C    0.365696
    11  C   -0.288896
    12  C   -0.217146
    13  C   -0.252213
    14  C    0.613895
    15  O   -0.439665
    16  O   -0.530595
    17  N   -0.688842
    18  C    0.266085
    19  C   -0.003583
    20  C    0.067753
    21  C    0.236842
    22  C   -0.374470
    23  C   -0.098843
    24  C   -0.252006
    25  N   -0.674029
    26  C    0.324138
    27  C    0.066802
    28  C    0.059321
    29  C    0.246853
    30  C   -0.441046
    31  C   -0.265221
    32  C   -0.298302
    33  N   -0.724230
    34  C    0.298956
    35  C   -0.025918
    36  C    0.030047
    37  C    0.300278
    38  C   -0.349106
    39  C    0.362742
    40  O   -0.468581
    41  C   -0.305772
    42  C    0.619652
    43  O   -0.447455
    44  O   -0.426127
    45  C   -0.090633
    46  C    0.021363
    47  C   -0.129469
    48  C    0.125860
    49  C   -0.346965
    50  C   -0.216593
    51  C   -0.164650
    52  C   -0.163942
    53  C   -0.064800
    54  C   -0.312098
    55  C   -0.155743
    56  C   -0.166319
    57  C   -0.150878
    58  C   -0.069464
    59  C   -0.301772
    60  C   -0.176365
    61  C   -0.186099
    62  C   -0.135984
    63  C   -0.065681
    64  C   -0.297792
    65  C   -0.302879
    66  H    0.077720
    67  H    0.096294
    68  H    0.098282
    69  H    0.118987
    70  H    0.104341
    71  H    0.092438
    72  H    0.112249
    73  H    0.136912
    74  H    0.131219
    75  H    0.116686
    76  H    0.144876
    77  H    0.156261
    78  H    0.128518
    79  H    0.124023
    80  H    0.116859
    81  H    0.100225
    82  H    0.109689
    83  H    0.099014
    84  H    0.118536
    85  H    0.103396
    86  H    0.138506
    87  H    0.114978
    88  H    0.092448
    89  H    0.052164
    90  H    0.123881
    91  H    0.129465
    92  H    0.133912
    93  H    0.138464
    94  H    0.126622
    95  H    0.160920
    96  H    0.136397
    97  H    0.111391
    98  H    0.130062
    99  H    0.126900
   100  H    0.107078
   101  H    0.103624
   102  H    0.111841
   103  H    0.124795
   104  H    0.086660
   105  H    0.069326
   106  H    0.093483
   107  H    0.077898
   108  H    0.105583
   109  H    0.082336
   110  H    0.089835
   111  H    0.080491
   112  H    0.112128
   113  H    0.110813
   114  H    0.047605
   115  H    0.096069
   116  H    0.083777
   117  H    0.065458
   118  H    0.102174
   119  H    0.091959
   120  H    0.086323
   121  H    0.063873
   122  H    0.104178
   123  H    0.097746
   124  H    0.085804
   125  H    0.083539
   126  H    0.063564
   127  H    0.075991
   128  H    0.101337
   129  H    0.086569
   130  H    0.080523
   131  H    0.098038
   132  H    0.071355
   133  H    0.103235
   134  H    0.099806
   135  H    0.104817
   136  H    0.083575
   137  H    0.109997
 Sum of Mulliken charges =   0.00000

 Dipole moment (field-independent basis, Debye):
    X=              1.2761    Y=              4.3068    Z=              1.0538  Tot=              4.6138
 Quadrupole moment (field-independent basis, Debye-Ang):
   XX=           -362.0457   YY=           -390.4405   ZZ=           -398.4485
   XY=            -23.8585   XZ=              4.6996   YZ=             -6.8877

 Normal termination of Gaussian 09 at Sat Jun 29 12:40:02 2019.
