 Gaussian 09, Revision D.01,
 Gaussian 09:  ES64L-G09RevD.01 24-Apr-2013

 -------------------------------------
 # td=(NStates=1) CAM-B3LYP/6-31G(d,p)
 -------------------------------------

 --
 TD
 --
 Symbolic Z-matrix:
 Charge =  0 Multiplicity = 1

                         Standard orientation:
 ---------------------------------------------------------------------
 Center     Atomic      Atomic             Coordinates (Angstroms)
 Number     Number       Type             X           Y           Z
 ---------------------------------------------------------------------
      1         12           0       -7.248812    0.575250    0.175975
      2          6           0       -4.815652   -1.942247    0.443227
      3          6           0       -4.817333    2.817728    1.196745
      4          6           0       -9.453965    3.050496   -0.262275
      5          6           0       -9.603816   -1.784533   -0.756792
      6          7           0       -5.047713    0.464799    0.682341
      7          6           0       -4.372916   -0.692063    0.703163
      8          6           0       -2.886986   -0.441498    1.054972
      9          6           0       -2.954748    1.068230    1.560787
     10          6           0       -4.353437    1.451655    1.045421
     11          6           0       -2.895814    1.378495    3.122037
     12          6           0       -1.912099   -0.565676   -0.020690
     13          6           0       -0.401021   -0.268225    0.335175
     14          6           0        0.553425   -0.538360   -0.749067
     15          8           0        0.345143   -0.882418   -1.890222
     16          8           0        1.836105   -0.266230   -0.340605
     17          7           0       -7.138635    2.619274    0.371017
     18          6           0       -6.099608    3.260904    0.768660
     19          6           0       -6.426063    4.722420    0.775890
     20          6           0       -7.784193    4.772573    0.420098
     21          6           0       -8.223674    3.403886    0.147273
     22          6           0       -5.564229    5.891057    1.380461
     23          6           0       -8.592934    5.965802    0.360937
     24          6           0       -8.264734    7.203322    0.083851
     25          7           0       -9.102211    0.652158   -0.518362
     26          6           0       -9.882649    1.746093   -0.580443
     27          6           0      -11.214653    1.451591   -1.024771
     28          6           0      -11.251997    0.103160   -1.166894
     29          6           0       -9.977351   -0.375059   -0.819803
     30          6           0      -12.371424    2.329925   -1.198546
     31          6           0      -12.356109   -0.721631   -1.553039
     32          6           0      -12.514090   -1.046788   -3.054662
     33          7           0       -7.286572   -1.356122   -0.096717
     34          6           0       -8.279381   -2.280207   -0.448405
     35          6           0       -7.828231   -3.638722   -0.408730
     36          6           0       -6.495289   -3.538763   -0.090843
     37          6           0       -6.175760   -2.162227    0.140540
     38          6           0       -8.634578   -4.880215   -0.778940
     39          6           0       -5.252029   -4.370055    0.112861
     40          8           0       -5.131173   -5.592811   -0.026703
     41          6           0       -4.144689   -3.285624    0.452337
     42          6           0       -3.586940   -3.750309    1.839026
     43          8           0       -3.793682   -3.172535    2.943297
     44          8           0       -2.880324   -4.802685    1.679825
     45          6           0       -2.184430   -5.330324    2.897050
     46          6           0        2.947771   -0.665983   -1.192619
     47          6           0        4.223301   -0.424691   -0.510186
     48          6           0        5.152320    0.417306   -0.909760
     49          6           0        4.970849    1.290222   -2.193529
     50          6           0        6.470954    0.585598   -0.177860
     51          6           0        7.647344    0.090648   -0.983759
     52          6           0        8.953533    0.095002   -0.130297
     53          6           0       10.187793   -0.516194   -0.848693
     54          6           0       10.100351   -2.064981   -1.156635
     55          6           0       11.470874   -0.296966   -0.060061
     56          6           0       12.829196   -0.491678   -0.781561
     57          6           0       13.958618   -0.204148    0.173274
     58          6           0       15.416255   -0.278921   -0.457384
     59          6           0       15.779662   -1.755619   -0.855898
     60          6           0       16.411432    0.415355    0.439234
     61          6           0       17.860300    0.525252   -0.130536
     62          6           0       18.838618    1.239308    0.795433
     63          6           0       20.290552    1.294214    0.333121
     64          6           0       20.294178    1.989185   -1.084767
     65          6           0       21.176639    1.922471    1.417047
     66          1           0       -4.149328    3.419268    1.499506
     67          1           0      -10.294168    3.855841   -0.399434
     68          1           0      -10.359451   -2.519613   -0.982476
     69          1           0       -2.636835   -1.095995    1.846296
     70          1           0       -2.184444    1.695723    1.177072
     71          1           0       -2.003609    0.908946    3.438939
     72          1           0       -2.926136    2.344710    3.481389
     73          1           0       -3.658036    0.730239    3.459488
     74          1           0       -2.027167   -1.567229   -0.297476
     75          1           0       -2.144190    0.027618   -0.903302
     76          1           0       -0.183277    0.690193    0.774474
     77          1           0       -0.093211   -1.083199    1.066342
     78          1           0       -4.915962    6.252132    0.575217
     79          1           0       -6.295778    6.560862    1.868227
     80          1           0       -5.081980    5.346700    2.146143
     81          1           0       -9.671228    5.687871    0.406926
     82          1           0       -8.885844    8.115049   -0.084588
     83          1           0       -7.281326    7.643034   -0.365215
     84          1           0      -12.302679    3.172150   -2.264050
     85          1           0      -13.281058    1.958939   -1.510548
     86          1           0      -12.567300    3.176978   -0.312519
     87          1           0      -12.320804   -1.771610   -1.176054
     88          1           0      -13.371920   -0.271983   -1.201783
     89          1           0      -13.304156   -1.736643   -3.236370
     90          1           0      -12.633498   -0.154713   -3.566697
     91          1           0      -11.742787   -1.743800   -3.614443
     92          1           0       -8.938320   -4.740766   -1.900471
     93          1           0       -8.091871   -5.813004   -0.739291
     94          1           0       -9.497124   -5.086191   -0.129456
     95          1           0       -3.436448   -3.290965   -0.353580
     96          1           0       -1.645669   -4.403387    3.261088
     97          1           0       -2.922971   -5.663844    3.671153
     98          1           0       -1.513847   -6.041174    2.484089
     99          1           0        2.773277   -1.799660   -1.551818
    100          1           0        3.044768    0.052279   -2.132397
    101          1           0        4.305774   -0.940375    0.512109
    102          1           0        3.842345    1.419324   -2.422164
    103          1           0        5.254179    2.424141   -2.368554
    104          1           0        5.317185    0.526376   -2.989103
    105          1           0        6.576164    1.574124    0.056765
    106          1           0        6.658779    0.091692    0.805984
    107          1           0        7.473717   -0.835187   -1.483436
    108          1           0        7.734426    0.802437   -1.788498
    109          1           0        9.273751    0.994147   -0.078000
    110          1           0        8.785179   -0.619199    0.817800
    111          1           0       10.247398    0.030569   -1.824501
    112          1           0        9.153854   -2.412835   -1.663790
    113          1           0       10.817547   -2.386614   -1.772264
    114          1           0       10.038076   -2.543241   -0.176995
    115          1           0       11.498760    0.742505    0.309172
    116          1           0       11.333867   -0.991359    0.792151
    117          1           0       12.858514   -1.332044   -1.274189
    118          1           0       12.700870    0.154011   -1.640678
    119          1           0       13.884191    0.806629    0.735547
    120          1           0       14.178030   -0.792084    0.993437
    121          1           0       15.493555    0.242585   -1.437662
    122          1           0       15.752771   -2.240431    0.204835
    123          1           0       14.979225   -2.315834   -1.444093
    124          1           0       16.778914   -1.897671   -1.240170
    125          1           0       16.014606    1.470978    0.778794
    126          1           0       16.394486   -0.144505    1.508146
    127          1           0       18.511071   -0.420102   -0.264948
    128          1           0       17.888575    1.037333   -1.230196
    129          1           0       18.572084    2.292345    0.927150
    130          1           0       18.720997    0.707693    1.963233
    131          1           0       20.683371    0.199930    0.073947
    132          1           0       19.472535    2.947912   -1.205862
    133          1           0       21.323975    2.153676   -1.284163
    134          1           0       19.661818    1.304957   -1.911600
    135          1           0       21.333860    1.343467    2.177901
    136          1           0       22.209347    2.023565    0.908481
    137          1           0       21.056834    2.874848    1.729587
 ---------------------------------------------------------------------

 SCF Done:  E(RCAM-B3LYP) =  -2932.70160578     A.U. after   17 cycles

 Excitation energies and oscillator strengths:

 Excited State   1:      Singlet-A      2.1875 eV  566.78 nm  f=0.1932  <S**2>=0.000
     240 -> 243        0.28476
     241 -> 242        0.64023
 This state for optimization and/or second-order correction.
 Total Energy, E(TD-HF/TD-KS) =  -2932.62121641
 Copying the excited state density for this state as the 1-particle RhoCI density.

 The electronic state is 1-A.
 Alpha  occ. eigenvalues --  -46.84142 -19.27699 -19.24949 -19.20848 -19.20432
 Alpha  occ. eigenvalues --  -19.20138 -14.41314 -14.39608 -14.39204 -14.39015
 Alpha  occ. eigenvalues --  -10.39719 -10.38762 -10.35800 -10.33054 -10.32399
 Alpha  occ. eigenvalues --  -10.30547 -10.30101 -10.29989 -10.29130 -10.29125
 Alpha  occ. eigenvalues --  -10.29018 -10.28811 -10.28733 -10.28648 -10.28568
 Alpha  occ. eigenvalues --  -10.28475 -10.28394 -10.28242 -10.28113 -10.27889
 Alpha  occ. eigenvalues --  -10.27513 -10.27451 -10.27230 -10.27084 -10.26987
 Alpha  occ. eigenvalues --  -10.26981 -10.26844 -10.26818 -10.26752 -10.26567
 Alpha  occ. eigenvalues --  -10.26552 -10.26547 -10.26545 -10.26246 -10.26158
 Alpha  occ. eigenvalues --  -10.26111 -10.25997 -10.25958 -10.25918 -10.25620
 Alpha  occ. eigenvalues --  -10.25575 -10.25382 -10.25277 -10.25239 -10.25173
 Alpha  occ. eigenvalues --  -10.25001 -10.24965 -10.24923 -10.24775 -10.24747
 Alpha  occ. eigenvalues --  -10.24343 -10.24132 -10.24082 -10.23871 -10.23300
 Alpha  occ. eigenvalues --   -3.13347  -1.88032  -1.87617  -1.87514  -1.19754
 Alpha  occ. eigenvalues --   -1.16829  -1.09980  -1.08073  -1.06881  -1.06650
 Alpha  occ. eigenvalues --   -1.05145  -1.03882  -1.02276  -0.92864  -0.91560
 Alpha  occ. eigenvalues --   -0.90688  -0.90278  -0.89910  -0.89375  -0.89072
 Alpha  occ. eigenvalues --   -0.88131  -0.87962  -0.87175  -0.86270  -0.86108
 Alpha  occ. eigenvalues --   -0.85134  -0.84421  -0.83472  -0.83007  -0.82646
 Alpha  occ. eigenvalues --   -0.81786  -0.81177  -0.80649  -0.79952  -0.78337
 Alpha  occ. eigenvalues --   -0.78103  -0.77091  -0.76512  -0.76452  -0.76328
 Alpha  occ. eigenvalues --   -0.74934  -0.74778  -0.73968  -0.73427  -0.72471
 Alpha  occ. eigenvalues --   -0.71958  -0.71100  -0.70124  -0.69597  -0.67708
 Alpha  occ. eigenvalues --   -0.67493  -0.66962  -0.66218  -0.65905  -0.64876
 Alpha  occ. eigenvalues --   -0.64100  -0.62763  -0.62671  -0.61877  -0.61555
 Alpha  occ. eigenvalues --   -0.61169  -0.60600  -0.59935  -0.59441  -0.59157
 Alpha  occ. eigenvalues --   -0.58689  -0.58544  -0.58076  -0.57615  -0.56909
 Alpha  occ. eigenvalues --   -0.56331  -0.55980  -0.55826  -0.55396  -0.54939
 Alpha  occ. eigenvalues --   -0.54637  -0.54364  -0.53953  -0.53419  -0.53257
 Alpha  occ. eigenvalues --   -0.52907  -0.52509  -0.52265  -0.52074  -0.51659
 Alpha  occ. eigenvalues --   -0.51379  -0.51189  -0.50838  -0.50752  -0.50679
 Alpha  occ. eigenvalues --   -0.50430  -0.50228  -0.50070  -0.49782  -0.49627
 Alpha  occ. eigenvalues --   -0.49315  -0.49048  -0.48940  -0.48731  -0.48541
 Alpha  occ. eigenvalues --   -0.48493  -0.48339  -0.48114  -0.47857  -0.47508
 Alpha  occ. eigenvalues --   -0.47305  -0.46773  -0.46626  -0.46283  -0.46160
 Alpha  occ. eigenvalues --   -0.45874  -0.45714  -0.45535  -0.45377  -0.45086
 Alpha  occ. eigenvalues --   -0.44835  -0.44777  -0.44307  -0.44288  -0.44057
 Alpha  occ. eigenvalues --   -0.44025  -0.43860  -0.43703  -0.43273  -0.43136
 Alpha  occ. eigenvalues --   -0.43063  -0.42767  -0.42668  -0.42530  -0.42462
 Alpha  occ. eigenvalues --   -0.42211  -0.41737  -0.41427  -0.41311  -0.41154
 Alpha  occ. eigenvalues --   -0.41000  -0.40907  -0.40790  -0.40650  -0.40390
 Alpha  occ. eigenvalues --   -0.39867  -0.39719  -0.39363  -0.39236  -0.38690
 Alpha  occ. eigenvalues --   -0.38312  -0.38303  -0.38115  -0.38052  -0.37685
 Alpha  occ. eigenvalues --   -0.37324  -0.37112  -0.37042  -0.36499  -0.36456
 Alpha  occ. eigenvalues --   -0.36307  -0.36090  -0.35965  -0.35822  -0.35695
 Alpha  occ. eigenvalues --   -0.35327  -0.34987  -0.34366  -0.33950  -0.33399
 Alpha  occ. eigenvalues --   -0.33336  -0.32649  -0.32302  -0.30718  -0.30173
 Alpha  occ. eigenvalues --   -0.30019  -0.29688  -0.28209  -0.27127  -0.22894
 Alpha  occ. eigenvalues --   -0.21272
 Alpha virt. eigenvalues --   -0.05665  -0.02884   0.01329   0.04551   0.05688
 Alpha virt. eigenvalues --    0.06217   0.06367   0.06881   0.07252   0.07589
 Alpha virt. eigenvalues --    0.09272   0.10571   0.11355   0.11761   0.11795

 Mulliken charges:
               1
     1  Mg   0.842001
     2  C    0.092991
     3  C   -0.154459
     4  C   -0.187388
     5  C   -0.164688
     6  N   -0.607489
     7  C    0.285722
     8  C   -0.168723
     9  C   -0.175095
    10  C    0.332272
    11  C   -0.313643
    12  C   -0.156629
    13  C   -0.268363
    14  C    0.604635
    15  O   -0.470886
    16  O   -0.497262
    17  N   -0.735890
    18  C    0.351424
    19  C   -0.062294
    20  C    0.001113
    21  C    0.359582
    22  C   -0.347766
    23  C   -0.067505
    24  C   -0.262306
    25  N   -0.713684
    26  C    0.298653
    27  C    0.070320
    28  C    0.102366
    29  C    0.257464
    30  C   -0.369807
    31  C   -0.282333
    32  C   -0.308996
    33  N   -0.736012
    34  C    0.245174
    35  C    0.031775
    36  C   -0.015788
    37  C    0.289512
    38  C   -0.377370
    39  C    0.381697
    40  O   -0.466070
    41  C   -0.329372
    42  C    0.609086
    43  O   -0.521509
    44  O   -0.412587
    45  C   -0.089183
    46  C    0.032518
    47  C   -0.118205
    48  C    0.111876
    49  C   -0.385037
    50  C   -0.211237
    51  C   -0.195272
    52  C   -0.139242
    53  C   -0.102045
    54  C   -0.312505
    55  C   -0.167699
    56  C   -0.168935
    57  C   -0.167934
    58  C   -0.071322
    59  C   -0.309014
    60  C   -0.162377
    61  C   -0.166557
    62  C   -0.138111
    63  C   -0.057611
    64  C   -0.289675
    65  C   -0.307540
    66  H    0.040889
    67  H    0.101441
    68  H    0.095488
    69  H    0.120058
    70  H    0.100189
    71  H    0.108645
    72  H    0.121248
    73  H    0.130850
    74  H    0.110177
    75  H    0.121829
    76  H    0.148117
    77  H    0.133179
    78  H    0.129654
    79  H    0.131493
    80  H    0.122773
    81  H    0.086751
    82  H    0.105921
    83  H    0.096237
    84  H    0.048827
    85  H    0.131285
    86  H    0.098001
    87  H    0.104144
    88  H    0.098913
    89  H    0.109161
    90  H    0.118414
    91  H    0.090131
    92  H    0.115289
    93  H    0.149737
    94  H    0.124072
    95  H    0.172046
    96  H    0.136389
    97  H    0.154835
    98  H    0.144044
    99  H    0.107966
   100  H    0.091168
   101  H    0.087653
   102  H    0.121345
   103  H    0.117808
   104  H    0.130243
   105  H    0.109957
   106  H    0.092365
   107  H    0.103794
   108  H    0.096346
   109  H    0.103988
   110  H    0.073981
   111  H    0.068318
   112  H    0.086753
   113  H    0.115048
   114  H    0.099150
   115  H    0.082761
   116  H    0.083772
   117  H    0.103464
   118  H    0.095314
   119  H    0.076240
   120  H    0.105590
   121  H    0.078635
   122  H    0.078446
   123  H    0.101055
   124  H    0.114181
   125  H    0.088342
   126  H    0.065204
   127  H    0.091519
   128  H    0.073175
   129  H    0.091193
   130  H    0.041901
   131  H    0.072778
   132  H    0.073931
   133  H    0.110166
   134  H    0.084435
   135  H    0.122578
   136  H    0.074531
   137  H    0.117914
 Sum of Mulliken charges =   0.00000

 Dipole moment (field-independent basis, Debye):
    X=              2.4452    Y=              2.7454    Z=              1.0938  Tot=              3.8357
 Quadrupole moment (field-independent basis, Debye-Ang):
   XX=           -339.4012   YY=           -388.1721   ZZ=           -399.9526
   XY=             -7.5462   XZ=              7.1018   YZ=             -5.5799

 Normal termination of Gaussian 09 at Thu Jun 27 00:50:46 2019.
