 Gaussian 09, Revision D.01,
 Gaussian 09:  ES64L-G09RevD.01 24-Apr-2013

 -------------------------------------
 # td=(NStates=1) CAM-B3LYP/6-31G(d,p)
 -------------------------------------

 --
 TD
 --
 Symbolic Z-matrix:
 Charge =  0 Multiplicity = 1

                         Standard orientation:
 ---------------------------------------------------------------------
 Center     Atomic      Atomic             Coordinates (Angstroms)
 Number     Number       Type             X           Y           Z
 ---------------------------------------------------------------------
      1         12           0       -7.214603    0.459082    0.055352
      2          6           0       -4.810471   -1.957816    0.438258
      3          6           0       -4.827019    2.833366    1.073497
      4          6           0       -9.473295    3.093436   -0.361137
      5          6           0       -9.604280   -1.732049   -0.830112
      6          7           0       -5.058184    0.364031    0.732256
      7          6           0       -4.264885   -0.691146    0.750596
      8          6           0       -2.804652   -0.398744    1.264265
      9          6           0       -3.002062    1.121115    1.697846
     10          6           0       -4.358310    1.449387    1.098689
     11          6           0       -2.885426    1.296363    3.327565
     12          6           0       -1.781971   -0.533363    0.096857
     13          6           0       -0.386389   -0.404099    0.512659
     14          6           0        0.571779   -0.780514   -0.613706
     15          8           0        0.194806   -1.242637   -1.713339
     16          8           0        1.816832   -0.508819   -0.358841
     17          7           0       -7.111600    2.593662    0.275230
     18          6           0       -6.064409    3.385695    0.749451
     19          6           0       -6.459109    4.783149    0.870358
     20          6           0       -7.692259    4.821452    0.418639
     21          6           0       -8.169825    3.501523    0.079883
     22          6           0       -5.587414    5.869925    1.279296
     23          6           0       -8.644936    6.026223    0.338855
     24          6           0       -8.372438    7.323249    0.185368
     25          7           0       -9.155676    0.708661   -0.550938
     26          6           0       -9.890983    1.805700   -0.716353
     27          6           0      -11.254649    1.462817   -1.064894
     28          6           0      -11.274473    0.096443   -1.216229
     29          6           0       -9.903187   -0.377297   -0.787908
     30          6           0      -12.413612    2.398332   -1.285999
     31          6           0      -12.356927   -0.718162   -1.616908
     32          6           0      -12.262473   -1.097966   -3.135731
     33          7           0       -7.213033   -1.429477   -0.166391
     34          6           0       -8.265052   -2.210163   -0.578212
     35          6           0       -7.718541   -3.687684   -0.490333
     36          6           0       -6.483665   -3.501666    0.003644
     37          6           0       -6.207898   -2.246936    0.037042
     38          6           0       -8.531593   -4.825540   -0.892458
     39          6           0       -5.357603   -4.357809    0.176618
     40          8           0       -5.228174   -5.571408    0.200674
     41          6           0       -4.213271   -3.316087    0.546949
     42          6           0       -3.575442   -3.637255    1.881342
     43          8           0       -3.799773   -3.057950    2.927438
     44          8           0       -2.757756   -4.706147    1.776370
     45          6           0       -2.137235   -5.121642    2.995861
     46          6           0        2.819129   -0.623363   -1.356945
     47          6           0        4.121315   -0.490964   -0.611236
     48          6           0        5.110078    0.368578   -0.952541
     49          6           0        5.114915    1.144059   -2.296397
     50          6           0        6.332429    0.400865   -0.254536
     51          6           0        7.580007   -0.162106   -1.051001
     52          6           0        8.808385   -0.077926   -0.193257
     53          6           0       10.225661   -0.500103   -0.884292
     54          6           0       10.238804   -1.939750   -1.349643
     55          6           0       11.382549   -0.296503    0.077955
     56          6           0       12.821348   -0.421169   -0.539727
     57          6           0       14.030785   -0.157060    0.342312
     58          6           0       15.331654   -0.130674   -0.430196
     59          6           0       15.583146   -1.477416   -0.957723
     60          6           0       16.435935    0.349188    0.544087
     61          6           0       17.747653    0.559022   -0.120978
     62          6           0       18.895723    1.221070    0.755528
     63          6           0       20.343431    1.360598    0.187483
     64          6           0       20.359555    2.067914   -1.078289
     65          6           0       21.149644    1.927014    1.255883
     66          1           0       -4.045446    3.472280    1.358687
     67          1           0      -10.190638    3.869711   -0.420915
     68          1           0      -10.364848   -2.432931   -1.358000
     69          1           0       -2.348633   -1.022813    2.182212
     70          1           0       -2.206845    1.724427    1.220496
     71          1           0       -1.841107    1.210987    3.779393
     72          1           0       -3.220115    2.305019    3.432072
     73          1           0       -3.665122    0.707219    3.842914
     74          1           0       -1.916144   -1.397582   -0.244396
     75          1           0       -2.206264    0.084372   -0.692995
     76          1           0       -0.026314    0.643531    0.943238
     77          1           0       -0.259183   -1.100690    1.394218
     78          1           0       -5.102607    6.203622    0.440645
     79          1           0       -6.054441    6.724471    1.917188
     80          1           0       -4.750157    5.614852    2.067870
     81          1           0       -9.769549    5.772823    0.369869
     82          1           0       -9.080741    8.093020    0.254225
     83          1           0       -7.281132    7.563370   -0.017657
     84          1           0      -12.295001    2.935209   -2.172720
     85          1           0      -13.272556    1.861603   -1.599239
     86          1           0      -12.315617    3.203083   -0.408815
     87          1           0      -12.375979   -1.807647   -1.203309
     88          1           0      -13.272948   -0.255256   -1.413056
     89          1           0      -13.141436   -1.690218   -3.333932
     90          1           0      -12.612540   -0.243031   -3.665348
     91          1           0      -11.317837   -1.361690   -3.298400
     92          1           0       -8.678085   -4.751306   -1.896393
     93          1           0       -8.065960   -5.725204   -0.761711
     94          1           0       -9.510284   -4.983307   -0.465089
     95          1           0       -3.367927   -3.579586   -0.366770
     96          1           0       -1.724818   -4.242339    3.466901
     97          1           0       -2.864579   -5.447197    3.829011
     98          1           0       -1.403073   -5.873874    2.777074
     99          1           0        2.564337   -1.597162   -1.869609
    100          1           0        2.642823    0.021354   -2.303905
    101          1           0        4.411897   -0.876548    0.297776
    102          1           0        4.189775    1.189443   -2.812986
    103          1           0        5.227668    2.257709   -2.001918
    104          1           0        6.047094    0.772963   -2.926829
    105          1           0        6.443067    1.411147   -0.032420
    106          1           0        6.297442   -0.262523    0.621850
    107          1           0        7.331219   -1.282916   -1.175440
    108          1           0        7.620117    0.404525   -1.998205
    109          1           0        8.719962    0.988133    0.381180
    110          1           0        8.891847   -0.858957    0.643097
    111          1           0       10.445839    0.000005   -1.712870
    112          1           0        9.295152   -2.138417   -1.944850
    113          1           0       11.069740   -2.171359   -1.963572
    114          1           0       10.226822   -2.598359   -0.610672
    115          1           0       11.310035    0.655272    0.760898
    116          1           0       11.284279   -1.071733    0.932066
    117          1           0       12.885522   -1.549427   -0.840154
    118          1           0       12.583596    0.119311   -1.473645
    119          1           0       13.898677    0.874791    0.821144
    120          1           0       14.074762   -0.974323    1.125984
    121          1           0       15.290425    0.551805   -1.231502
    122          1           0       15.613727   -2.159863   -0.249135
    123          1           0       15.206482   -1.885065   -1.807896
    124          1           0       16.611779   -1.591168   -1.358725
    125          1           0       16.077337    1.201642    1.094316
    126          1           0       16.505811   -0.323055    1.319240
    127          1           0       18.278154   -0.376592   -0.468337
    128          1           0       17.626152    1.296155   -1.019577
    129          1           0       18.645099    2.276597    0.927433
    130          1           0       18.926357    0.759979    1.586075
    131          1           0       20.274806    0.235234   -0.127326
    132          1           0       19.701220    2.979260   -1.069034
    133          1           0       21.323447    2.456430   -1.398757
    134          1           0       19.784299    1.482114   -1.777080
    135          1           0       21.080828    1.368055    2.169645
    136          1           0       22.243644    2.132015    0.731342
    137          1           0       20.624888    2.976115    1.531132
 ---------------------------------------------------------------------

 SCF Done:  E(RCAM-B3LYP) =  -2932.69025267     A.U. after   18 cycles

 Excitation energies and oscillator strengths:

 Excited State   1:      Singlet-A      1.9936 eV  621.91 nm  f=0.2150  <S**2>=0.000
     240 -> 243        0.26914
     241 -> 242        0.65139
 This state for optimization and/or second-order correction.
 Total Energy, E(TD-HF/TD-KS) =  -2932.61698935
 Copying the excited state density for this state as the 1-particle RhoCI density.

 The electronic state is 1-A.
 Alpha  occ. eigenvalues --  -46.85044 -19.26728 -19.25987 -19.20655 -19.20466
 Alpha  occ. eigenvalues --  -19.19817 -14.42111 -14.39574 -14.39301 -14.39247
 Alpha  occ. eigenvalues --  -10.39031 -10.38846 -10.34964 -10.33108 -10.31246
 Alpha  occ. eigenvalues --  -10.30801 -10.30504 -10.29709 -10.29697 -10.29640
 Alpha  occ. eigenvalues --  -10.28905 -10.28887 -10.28775 -10.28555 -10.28261
 Alpha  occ. eigenvalues --  -10.28254 -10.28103 -10.28044 -10.27875 -10.27873
 Alpha  occ. eigenvalues --  -10.27453 -10.27051 -10.27047 -10.26944 -10.26892
 Alpha  occ. eigenvalues --  -10.26855 -10.26700 -10.26551 -10.26487 -10.26408
 Alpha  occ. eigenvalues --  -10.26357 -10.26116 -10.26005 -10.25939 -10.25867
 Alpha  occ. eigenvalues --  -10.25813 -10.25809 -10.25793 -10.25648 -10.25613
 Alpha  occ. eigenvalues --  -10.25487 -10.25323 -10.25321 -10.25310 -10.25159
 Alpha  occ. eigenvalues --  -10.24973 -10.24094 -10.24017 -10.23841 -10.23750
 Alpha  occ. eigenvalues --  -10.23664 -10.23559 -10.23310 -10.23132 -10.21934
 Alpha  occ. eigenvalues --   -3.14080  -1.88773  -1.88328  -1.88260  -1.19637
 Alpha  occ. eigenvalues --   -1.17786  -1.10866  -1.08649  -1.07341  -1.05979
 Alpha  occ. eigenvalues --   -1.04826  -1.04178  -1.02047  -0.92913  -0.92495
 Alpha  occ. eigenvalues --   -0.91703  -0.90472  -0.90260  -0.89763  -0.89464
 Alpha  occ. eigenvalues --   -0.88931  -0.88375  -0.87758  -0.86726  -0.86037
 Alpha  occ. eigenvalues --   -0.84906  -0.84141  -0.83790  -0.83293  -0.82622
 Alpha  occ. eigenvalues --   -0.82008  -0.81538  -0.80617  -0.80448  -0.78504
 Alpha  occ. eigenvalues --   -0.77600  -0.77412  -0.77047  -0.76811  -0.76493
 Alpha  occ. eigenvalues --   -0.76078  -0.75219  -0.75059  -0.73998  -0.72458
 Alpha  occ. eigenvalues --   -0.71574  -0.70786  -0.70097  -0.69499  -0.68649
 Alpha  occ. eigenvalues --   -0.66647  -0.66146  -0.65142  -0.64921  -0.64458
 Alpha  occ. eigenvalues --   -0.64212  -0.64146  -0.63650  -0.63467  -0.62143
 Alpha  occ. eigenvalues --   -0.62099  -0.60899  -0.60529  -0.59824  -0.59152
 Alpha  occ. eigenvalues --   -0.58867  -0.58330  -0.57938  -0.56990  -0.56431
 Alpha  occ. eigenvalues --   -0.56131  -0.55835  -0.55609  -0.55417  -0.54805
 Alpha  occ. eigenvalues --   -0.54455  -0.54386  -0.54323  -0.53962  -0.53848
 Alpha  occ. eigenvalues --   -0.53539  -0.53081  -0.52485  -0.52436  -0.52033
 Alpha  occ. eigenvalues --   -0.51725  -0.51639  -0.51464  -0.51218  -0.50723
 Alpha  occ. eigenvalues --   -0.50594  -0.50322  -0.50090  -0.50013  -0.49874
 Alpha  occ. eigenvalues --   -0.49473  -0.49304  -0.48963  -0.48817  -0.48665
 Alpha  occ. eigenvalues --   -0.48614  -0.48148  -0.47688  -0.47486  -0.47175
 Alpha  occ. eigenvalues --   -0.47037  -0.46873  -0.46682  -0.46502  -0.46106
 Alpha  occ. eigenvalues --   -0.46042  -0.45714  -0.45568  -0.45450  -0.45290
 Alpha  occ. eigenvalues --   -0.45130  -0.44917  -0.44517  -0.44377  -0.44075
 Alpha  occ. eigenvalues --   -0.43906  -0.43756  -0.43723  -0.43370  -0.43197
 Alpha  occ. eigenvalues --   -0.43134  -0.43018  -0.42979  -0.42588  -0.42538
 Alpha  occ. eigenvalues --   -0.42172  -0.41983  -0.41935  -0.41728  -0.41365
 Alpha  occ. eigenvalues --   -0.41306  -0.41251  -0.40737  -0.40713  -0.40321
 Alpha  occ. eigenvalues --   -0.40089  -0.39926  -0.39832  -0.39375  -0.39301
 Alpha  occ. eigenvalues --   -0.38972  -0.38940  -0.38938  -0.38625  -0.38193
 Alpha  occ. eigenvalues --   -0.37876  -0.37549  -0.37483  -0.36915  -0.36880
 Alpha  occ. eigenvalues --   -0.36552  -0.36258  -0.35737  -0.35447  -0.35331
 Alpha  occ. eigenvalues --   -0.35202  -0.34907  -0.34170  -0.33608  -0.33399
 Alpha  occ. eigenvalues --   -0.33106  -0.32328  -0.32271  -0.30409  -0.30120
 Alpha  occ. eigenvalues --   -0.29627  -0.29204  -0.28435  -0.27700  -0.22475
 Alpha  occ. eigenvalues --   -0.20531
 Alpha virt. eigenvalues --   -0.06094  -0.02795   0.01812   0.04294   0.05443
 Alpha virt. eigenvalues --    0.05733   0.06333   0.06492   0.06680   0.07367
 Alpha virt. eigenvalues --    0.08021   0.10447   0.10991   0.11729   0.12176

 Mulliken charges:
               1
     1  Mg   0.860003
     2  C    0.065688
     3  C   -0.208268
     4  C   -0.180435
     5  C   -0.178370
     6  N   -0.593422
     7  C    0.295311
     8  C   -0.165009
     9  C   -0.148026
    10  C    0.314947
    11  C   -0.314697
    12  C   -0.129748
    13  C   -0.277499
    14  C    0.610262
    15  O   -0.509490
    16  O   -0.435631
    17  N   -0.694884
    18  C    0.305908
    19  C    0.076112
    20  C    0.002304
    21  C    0.293342
    22  C   -0.398145
    23  C   -0.064484
    24  C   -0.248340
    25  N   -0.710094
    26  C    0.311236
    27  C    0.004607
    28  C    0.059651
    29  C    0.320999
    30  C   -0.360715
    31  C   -0.298922
    32  C   -0.305400
    33  N   -0.764271
    34  C    0.227655
    35  C   -0.001997
    36  C    0.064151
    37  C    0.299799
    38  C   -0.390126
    39  C    0.372301
    40  O   -0.456173
    41  C   -0.362087
    42  C    0.641783
    43  O   -0.482965
    44  O   -0.445352
    45  C   -0.085232
    46  C   -0.004204
    47  C   -0.106299
    48  C    0.108928
    49  C   -0.353883
    50  C   -0.228798
    51  C   -0.175884
    52  C   -0.159977
    53  C   -0.072523
    54  C   -0.318438
    55  C   -0.173601
    56  C   -0.178773
    57  C   -0.170867
    58  C   -0.051224
    59  C   -0.315880
    60  C   -0.168632
    61  C   -0.188189
    62  C   -0.179137
    63  C   -0.046672
    64  C   -0.295759
    65  C   -0.288496
    66  H    0.070573
    67  H    0.073526
    68  H    0.104600
    69  H    0.108693
    70  H    0.104139
    71  H    0.108170
    72  H    0.111112
    73  H    0.132714
    74  H    0.129401
    75  H    0.111235
    76  H    0.117714
    77  H    0.130943
    78  H    0.145115
    79  H    0.122308
    80  H    0.101279
    81  H    0.083652
    82  H    0.110467
    83  H    0.095249
    84  H    0.133446
    85  H    0.113052
    86  H    0.108825
    87  H    0.097636
    88  H    0.104730
    89  H    0.105659
    90  H    0.105598
    91  H    0.122651
    92  H    0.136587
    93  H    0.145198
    94  H    0.126385
    95  H    0.137635
    96  H    0.124734
    97  H    0.121038
    98  H    0.128183
    99  H    0.130952
   100  H    0.122019
   101  H    0.079479
   102  H    0.115055
   103  H    0.098749
   104  H    0.113901
   105  H    0.107422
   106  H    0.099396
   107  H    0.099084
   108  H    0.100398
   109  H    0.073619
   110  H    0.089817
   111  H    0.093073
   112  H    0.088753
   113  H    0.112645
   114  H    0.112573
   115  H    0.070681
   116  H    0.065300
   117  H    0.085952
   118  H    0.091109
   119  H    0.079872
   120  H    0.091200
   121  H    0.090123
   122  H    0.107392
   123  H    0.112924
   124  H    0.082748
   125  H    0.094396
   126  H    0.094208
   127  H    0.088287
   128  H    0.078786
   129  H    0.074016
   130  H    0.093851
   131  H    0.074667
   132  H    0.082052
   133  H    0.099449
   134  H    0.107018
   135  H    0.113691
   136  H    0.079779
   137  H    0.085348
 Sum of Mulliken charges =   0.00000

 Dipole moment (field-independent basis, Debye):
    X=              2.0815    Y=              4.2391    Z=              0.1033  Tot=              4.7237
 Quadrupole moment (field-independent basis, Debye-Ang):
   XX=           -345.7785   YY=           -394.3693   ZZ=           -395.7038
   XY=            -24.6313   XZ=             16.5820   YZ=             -0.3862

 Normal termination of Gaussian 09 at Fri Jun 28 23:23:39 2019.
