 Gaussian 09, Revision D.01,
 Gaussian 09:  ES64L-G09RevD.01 24-Apr-2013

 -------------------------------------
 # td=(NStates=1) CAM-B3LYP/6-31G(d,p)
 -------------------------------------

 --
 TD
 --
 Symbolic Z-matrix:
 Charge =  0 Multiplicity = 1

                         Standard orientation:
 ---------------------------------------------------------------------
 Center     Atomic      Atomic             Coordinates (Angstroms)
 Number     Number       Type             X           Y           Z
 ---------------------------------------------------------------------
      1         12           0       -7.121032    0.639764    0.053970
      2          6           0       -4.793621   -1.938172    0.580413
      3          6           0       -4.801490    2.878844    1.063147
      4          6           0       -9.523748    3.031858   -0.244165
      5          6           0       -9.456729   -1.808404   -0.951471
      6          7           0       -5.073992    0.464433    0.708212
      7          6           0       -4.322909   -0.689556    0.907499
      8          6           0       -2.855735   -0.276163    1.275116
      9          6           0       -3.022004    1.152763    1.713935
     10          6           0       -4.358320    1.574843    1.111501
     11          6           0       -3.005291    1.349352    3.219580
     12          6           0       -1.794205   -0.498265    0.169204
     13          6           0       -0.363589   -0.233782    0.594850
     14          6           0        0.552667   -0.553102   -0.577395
     15          8           0        0.358941   -0.916197   -1.705777
     16          8           0        1.845409   -0.433655   -0.096130
     17          7           0       -7.152620    2.569637    0.346689
     18          6           0       -6.069331    3.308733    0.779043
     19          6           0       -6.538716    4.684519    0.894282
     20          6           0       -7.817310    4.704875    0.514388
     21          6           0       -8.258162    3.308353    0.173662
     22          6           0       -5.610436    5.776593    1.345652
     23          6           0       -8.658706    5.892832    0.338707
     24          6           0       -8.304522    7.136463    0.028999
     25          7           0       -9.130556    0.651074   -0.614951
     26          6           0       -9.936188    1.820208   -0.703535
     27          6           0      -11.223670    1.406107   -1.166119
     28          6           0      -11.192028    0.002886   -1.334463
     29          6           0       -9.915791   -0.401795   -0.889736
     30          6           0      -12.314614    2.339231   -1.415501
     31          6           0      -12.360159   -0.855580   -1.825440
     32          6           0      -12.230935   -1.336101   -3.341266
     33          7           0       -7.176266   -1.431594   -0.196544
     34          6           0       -8.190099   -2.270543   -0.576355
     35          6           0       -7.731637   -3.592383   -0.628354
     36          6           0       -6.392904   -3.545054   -0.078807
     37          6           0       -6.157464   -2.166578    0.183041
     38          6           0       -8.522572   -4.857613   -0.991758
     39          6           0       -5.201457   -4.364629    0.154795
     40          8           0       -4.968175   -5.597026    0.034019
     41          6           0       -4.083614   -3.280208    0.611446
     42          6           0       -3.499478   -3.696961    1.949814
     43          8           0       -3.659372   -3.082263    3.022946
     44          8           0       -2.826891   -4.790706    1.805556
     45          6           0       -2.154059   -5.181082    3.127494
     46          6           0        2.761307   -0.603114   -1.130342
     47          6           0        4.115118   -0.240657   -0.445657
     48          6           0        5.111968    0.548564   -0.904165
     49          6           0        5.091482    1.369292   -2.155325
     50          6           0        6.444359    0.608598   -0.129219
     51          6           0        7.591078    0.048477   -0.881822
     52          6           0        8.884180   -0.051824   -0.015211
     53          6           0       10.087382   -0.585572   -0.820432
     54          6           0        9.999166   -2.023142   -1.154604
     55          6           0       11.439277   -0.281415   -0.055939
     56          6           0       12.729250   -0.544971   -0.713692
     57          6           0       13.860017   -0.216374    0.112070
     58          6           0       15.372355   -0.328876   -0.599306
     59          6           0       15.586641   -1.769074   -1.045432
     60          6           0       16.424709    0.284289    0.360082
     61          6           0       17.810765    0.332598   -0.233403
     62          6           0       18.692983    1.261057    0.628519
     63          6           0       20.219464    1.397436    0.156338
     64          6           0       20.277321    2.226663   -1.165565
     65          6           0       21.071697    1.836442    1.322060
     66          1           0       -3.915421    3.493716    1.386592
     67          1           0      -10.258363    3.891604   -0.345907
     68          1           0      -10.041130   -2.500974   -1.385098
     69          1           0       -2.676398   -0.862413    2.065875
     70          1           0       -2.257506    1.778143    1.188865
     71          1           0       -2.134591    1.078118    3.651243
     72          1           0       -3.455937    2.328117    3.524556
     73          1           0       -3.899844    0.814261    3.654950
     74          1           0       -1.824120   -1.321715   -0.293631
     75          1           0       -2.074693    0.003006   -0.755909
     76          1           0       -0.174574    0.919132    0.967496
     77          1           0       -0.019057   -0.987983    1.419356
     78          1           0       -4.975036    6.309808    0.616942
     79          1           0       -6.255271    6.505505    1.869218
     80          1           0       -4.974303    5.562297    2.325835
     81          1           0       -9.677567    5.883643    0.588088
     82          1           0       -9.054164    8.034096   -0.127381
     83          1           0       -7.281906    7.374461   -0.448795
     84          1           0      -12.172943    3.228417   -2.167277
     85          1           0      -13.279853    1.795967   -1.635030
     86          1           0      -12.692826    3.222009   -0.464794
     87          1           0      -12.530749   -1.796863   -1.032955
     88          1           0      -13.340576   -0.367412   -1.682707
     89          1           0      -13.120047   -1.895863   -3.514848
     90          1           0      -12.150552   -0.399779   -3.902044
     91          1           0      -11.152341   -1.856049   -3.456553
     92          1           0       -8.989269   -4.791340   -2.049945
     93          1           0       -8.012036   -5.843066   -1.006454
     94          1           0       -9.333055   -5.352528   -0.241082
     95          1           0       -3.505654   -3.284774   -0.109208
     96          1           0       -1.667334   -4.288250    3.335067
     97          1           0       -3.008507   -5.556916    3.586088
     98          1           0       -1.432292   -5.837847    2.850202
     99          1           0        2.677707   -1.597142   -1.259459
    100          1           0        2.434295    0.036160   -1.882057
    101          1           0        4.458306   -0.845245    0.487092
    102          1           0        3.948334    1.294414   -2.471780
    103          1           0        5.463893    2.464620   -2.161683
    104          1           0        5.760033    0.859344   -2.733924
    105          1           0        6.582981    1.627200    0.283212
    106          1           0        6.449675    0.192763    0.908056
    107          1           0        7.228176   -0.936670   -1.264564
    108          1           0        7.843281    0.830367   -1.807853
    109          1           0        9.130459    1.139646    0.218272
    110          1           0        8.705175   -0.652890    0.906537
    111          1           0       10.273550   -0.013258   -1.771711
    112          1           0        9.047721   -2.071585   -1.822705
    113          1           0       10.823823   -2.317569   -1.796254
    114          1           0        9.926248   -2.958390   -0.365094
    115          1           0       11.321715    0.925835    0.149495
    116          1           0       11.286938   -0.703276    0.955413
    117          1           0       12.598822   -1.653355   -1.100523
    118          1           0       12.792013    0.058853   -1.583495
    119          1           0       13.937405    0.647894    0.656235
    120          1           0       14.065233   -0.799926    1.253479
    121          1           0       15.155611    0.208431   -1.549410
    122          1           0       15.596445   -2.425181   -0.122943
    123          1           0       14.736459   -2.173428   -1.563734
    124          1           0       16.570687   -1.949118   -1.606961
    125          1           0       16.218968    1.228876    0.635301
    126          1           0       16.406513   -0.342592    1.196793
    127          1           0       18.211533   -0.529415   -0.589166
    128          1           0       17.486356    0.731882   -1.394379
    129          1           0       18.360736    2.358335    0.786999
    130          1           0       18.885251    0.793600    1.618027
    131          1           0       20.562680    0.377461   -0.048650
    132          1           0       19.663423    3.230278   -0.949308
    133          1           0       21.374475    2.533151   -1.461145
    134          1           0       19.578821    1.796110   -1.914362
    135          1           0       20.861893    1.289253    2.342732
    136          1           0       22.247053    1.629518    1.327108
    137          1           0       21.082212    2.997935    1.402322
 ---------------------------------------------------------------------

 SCF Done:  E(RCAM-B3LYP) =  -2932.63349427     A.U. after   18 cycles

 Excitation energies and oscillator strengths:

 Excited State   1:      Singlet-A      2.0427 eV  606.97 nm  f=0.2246  <S**2>=0.000
     240 -> 243        0.24004
     241 -> 242        0.65508
 This state for optimization and/or second-order correction.
 Total Energy, E(TD-HF/TD-KS) =  -2932.55842735
 Copying the excited state density for this state as the 1-particle RhoCI density.

 The electronic state is 1-A.
 Alpha  occ. eigenvalues --  -46.84243 -19.26323 -19.24843 -19.22443 -19.20199
 Alpha  occ. eigenvalues --  -19.19515 -14.41609 -14.39734 -14.39321 -14.38884
 Alpha  occ. eigenvalues --  -10.39642 -10.38604 -10.35449 -10.31064 -10.30637
 Alpha  occ. eigenvalues --  -10.30582 -10.30528 -10.30186 -10.30052 -10.29635
 Alpha  occ. eigenvalues --  -10.29049 -10.28965 -10.28936 -10.28800 -10.28513
 Alpha  occ. eigenvalues --  -10.28221 -10.28103 -10.28096 -10.27820 -10.27591
 Alpha  occ. eigenvalues --  -10.27437 -10.27392 -10.27254 -10.27227 -10.27073
 Alpha  occ. eigenvalues --  -10.27033 -10.26781 -10.26717 -10.26700 -10.26628
 Alpha  occ. eigenvalues --  -10.26619 -10.26569 -10.26562 -10.26516 -10.26363
 Alpha  occ. eigenvalues --  -10.26352 -10.26343 -10.26336 -10.26312 -10.26310
 Alpha  occ. eigenvalues --  -10.26274 -10.26271 -10.26133 -10.26095 -10.26087
 Alpha  occ. eigenvalues --  -10.25949 -10.25920 -10.25751 -10.25705 -10.25601
 Alpha  occ. eigenvalues --  -10.25594 -10.25534 -10.25378 -10.24716 -10.23731
 Alpha  occ. eigenvalues --   -3.13269  -1.87985  -1.87494  -1.87452  -1.19211
 Alpha  occ. eigenvalues --   -1.18404  -1.10453  -1.08159  -1.06858  -1.05045
 Alpha  occ. eigenvalues --   -1.04347  -1.02739  -1.02060  -0.92456  -0.91296
 Alpha  occ. eigenvalues --   -0.90873  -0.90331  -0.89534  -0.89358  -0.89235
 Alpha  occ. eigenvalues --   -0.87842  -0.87526  -0.87158  -0.86976  -0.86325
 Alpha  occ. eigenvalues --   -0.85532  -0.84512  -0.83897  -0.83400  -0.82445
 Alpha  occ. eigenvalues --   -0.82095  -0.81643  -0.80657  -0.79991  -0.77923
 Alpha  occ. eigenvalues --   -0.77847  -0.77299  -0.76196  -0.75768  -0.74896
 Alpha  occ. eigenvalues --   -0.74866  -0.74546  -0.74313  -0.73613  -0.72970
 Alpha  occ. eigenvalues --   -0.72063  -0.71021  -0.68926  -0.68796  -0.68158
 Alpha  occ. eigenvalues --   -0.66862  -0.66569  -0.65652  -0.65167  -0.64509
 Alpha  occ. eigenvalues --   -0.64364  -0.63361  -0.63284  -0.62296  -0.62198
 Alpha  occ. eigenvalues --   -0.61612  -0.60784  -0.60380  -0.59793  -0.58932
 Alpha  occ. eigenvalues --   -0.58854  -0.58749  -0.58577  -0.58144  -0.57575
 Alpha  occ. eigenvalues --   -0.57380  -0.56506  -0.55506  -0.54906  -0.54620
 Alpha  occ. eigenvalues --   -0.54507  -0.54207  -0.53947  -0.53558  -0.53197
 Alpha  occ. eigenvalues --   -0.52759  -0.52561  -0.52244  -0.51981  -0.51877
 Alpha  occ. eigenvalues --   -0.51616  -0.51358  -0.51041  -0.50807  -0.50447
 Alpha  occ. eigenvalues --   -0.50304  -0.50150  -0.49688  -0.49483  -0.49404
 Alpha  occ. eigenvalues --   -0.49339  -0.49086  -0.48829  -0.48656  -0.48524
 Alpha  occ. eigenvalues --   -0.48148  -0.47975  -0.47766  -0.47287  -0.47184
 Alpha  occ. eigenvalues --   -0.46884  -0.46767  -0.46643  -0.46523  -0.46062
 Alpha  occ. eigenvalues --   -0.45980  -0.45773  -0.45501  -0.44982  -0.44836
 Alpha  occ. eigenvalues --   -0.44719  -0.44587  -0.43968  -0.43779  -0.43596
 Alpha  occ. eigenvalues --   -0.43458  -0.43320  -0.43184  -0.43108  -0.42811
 Alpha  occ. eigenvalues --   -0.42754  -0.42655  -0.42423  -0.42292  -0.42253
 Alpha  occ. eigenvalues --   -0.42098  -0.41800  -0.41662  -0.41576  -0.41131
 Alpha  occ. eigenvalues --   -0.41114  -0.40876  -0.40650  -0.40616  -0.39939
 Alpha  occ. eigenvalues --   -0.39910  -0.39758  -0.39567  -0.39382  -0.39123
 Alpha  occ. eigenvalues --   -0.38869  -0.38535  -0.38272  -0.38159  -0.37454
 Alpha  occ. eigenvalues --   -0.37331  -0.36852  -0.36643  -0.36392  -0.36298
 Alpha  occ. eigenvalues --   -0.36212  -0.35880  -0.35793  -0.35793  -0.35343
 Alpha  occ. eigenvalues --   -0.35064  -0.34875  -0.34526  -0.34038  -0.33088
 Alpha  occ. eigenvalues --   -0.33012  -0.32591  -0.32431  -0.31449  -0.29716
 Alpha  occ. eigenvalues --   -0.29587  -0.29179  -0.28612  -0.27187  -0.23608
 Alpha  occ. eigenvalues --   -0.21440
 Alpha virt. eigenvalues --   -0.06715  -0.03635   0.01394   0.04360   0.05428
 Alpha virt. eigenvalues --    0.06027   0.06628   0.06751   0.07196   0.07440
 Alpha virt. eigenvalues --    0.08769   0.10435   0.10895   0.10951   0.11297

 Mulliken charges:
               1
     1  Mg   0.822332
     2  C    0.008871
     3  C   -0.202874
     4  C   -0.160483
     5  C   -0.126934
     6  N   -0.640400
     7  C    0.267503
     8  C   -0.116915
     9  C   -0.151824
    10  C    0.333267
    11  C   -0.311781
    12  C   -0.170103
    13  C   -0.255581
    14  C    0.606178
    15  O   -0.467451
    16  O   -0.490591
    17  N   -0.792620
    18  C    0.342828
    19  C    0.035110
    20  C   -0.013837
    21  C    0.378194
    22  C   -0.385148
    23  C   -0.080438
    24  C   -0.250052
    25  N   -0.689024
    26  C    0.282912
    27  C    0.051311
    28  C    0.035589
    29  C    0.279447
    30  C   -0.379165
    31  C   -0.249179
    32  C   -0.297950
    33  N   -0.708626
    34  C    0.274695
    35  C    0.043862
    36  C   -0.022032
    37  C    0.331773
    38  C   -0.386086
    39  C    0.338395
    40  O   -0.481561
    41  C   -0.260841
    42  C    0.616106
    43  O   -0.522418
    44  O   -0.448994
    45  C   -0.076934
    46  C    0.042495
    47  C   -0.145787
    48  C    0.097910
    49  C   -0.346054
    50  C   -0.224800
    51  C   -0.161336
    52  C   -0.162675
    53  C   -0.058200
    54  C   -0.301664
    55  C   -0.168262
    56  C   -0.163148
    57  C   -0.161359
    58  C   -0.082050
    59  C   -0.302153
    60  C   -0.158265
    61  C   -0.170111
    62  C   -0.178052
    63  C   -0.050459
    64  C   -0.301814
    65  C   -0.311157
    66  H    0.097838
    67  H    0.103133
    68  H    0.091916
    69  H    0.123481
    70  H    0.096796
    71  H    0.124754
    72  H    0.107293
    73  H    0.122496
    74  H    0.120266
    75  H    0.115162
    76  H    0.126896
    77  H    0.138703
    78  H    0.128344
    79  H    0.125049
    80  H    0.097605
    81  H    0.099137
    82  H    0.097686
    83  H    0.095688
    84  H    0.118617
    85  H    0.110863
    86  H    0.053880
    87  H    0.076179
    88  H    0.106915
    89  H    0.119173
    90  H    0.121276
    91  H    0.095695
    92  H    0.110498
    93  H    0.150034
    94  H    0.111110
    95  H    0.155621
    96  H    0.147897
    97  H    0.162372
    98  H    0.135052
    99  H    0.125622
   100  H    0.123009
   101  H    0.084466
   102  H    0.091803
   103  H    0.109302
   104  H    0.139820
   105  H    0.096874
   106  H    0.088778
   107  H    0.104690
   108  H    0.068892
   109  H    0.071863
   110  H    0.099847
   111  H    0.086483
   112  H    0.090102
   113  H    0.106973
   114  H    0.085076
   115  H    0.048104
   116  H    0.091558
   117  H    0.088391
   118  H    0.107788
   119  H    0.110030
   120  H    0.026851
   121  H    0.078612
   122  H    0.090697
   123  H    0.108692
   124  H    0.089027
   125  H    0.106724
   126  H    0.100980
   127  H    0.111559
   128  H    0.044123
   129  H    0.090476
   130  H    0.095874
   131  H    0.090388
   132  H    0.074019
   133  H    0.097595
   134  H    0.116906
   135  H    0.093420
   136  H    0.083178
   137  H    0.092391
 Sum of Mulliken charges =   0.00000

 Dipole moment (field-independent basis, Debye):
    X=              1.5690    Y=              3.5993    Z=              0.7360  Tot=              3.9948
 Quadrupole moment (field-independent basis, Debye-Ang):
   XX=           -364.5353   YY=           -392.2910   ZZ=           -398.2360
   XY=            -21.3534   XZ=             13.0068   YZ=             -5.3246

 Normal termination of Gaussian 09 at Fri Jun 28 10:21:48 2019.
