 Gaussian 09, Revision D.01,
 Gaussian 09:  ES64L-G09RevD.01 24-Apr-2013

 -------------------------------------
 # td=(NStates=1) CAM-B3LYP/6-31G(d,p)
 -------------------------------------

 --
 TD
 --
 Symbolic Z-matrix:
 Charge =  0 Multiplicity = 1

                         Standard orientation:
 ---------------------------------------------------------------------
 Center     Atomic      Atomic             Coordinates (Angstroms)
 Number     Number       Type             X           Y           Z
 ---------------------------------------------------------------------
      1         12           0       -7.199541    0.580763    0.220557
      2          6           0       -4.843572   -1.930294    0.463418
      3          6           0       -4.873237    2.788259    1.236109
      4          6           0       -9.464251    3.052727   -0.248335
      5          6           0       -9.602653   -1.758514   -0.709078
      6          7           0       -4.973481    0.480289    0.617915
      7          6           0       -4.323067   -0.698413    0.861244
      8          6           0       -2.908766   -0.318807    1.209867
      9          6           0       -2.922102    1.116778    1.638254
     10          6           0       -4.258712    1.580604    1.158394
     11          6           0       -2.887602    1.234646    3.199843
     12          6           0       -1.891363   -0.448887    0.008886
     13          6           0       -0.397512   -0.423463    0.474615
     14          6           0        0.450170   -0.749213   -0.655308
     15          8           0        0.185143   -0.974044   -1.853861
     16          8           0        1.771302   -0.472287   -0.303305
     17          7           0       -7.134452    2.523605    0.362150
     18          6           0       -6.021455    3.296158    0.780062
     19          6           0       -6.463484    4.712015    0.804860
     20          6           0       -7.856399    4.804438    0.417265
     21          6           0       -8.210455    3.464577    0.245801
     22          6           0       -5.668945    5.912680    1.326168
     23          6           0       -8.680758    5.961870    0.258275
     24          6           0       -8.117170    7.149152   -0.012462
     25          7           0       -9.220377    0.602297   -0.378759
     26          6           0       -9.991801    1.717415   -0.515127
     27          6           0      -11.271390    1.459288   -1.015710
     28          6           0      -11.410305    0.108369   -1.108871
     29          6           0      -10.026981   -0.443948   -0.807539
     30          6           0      -12.407819    2.476784   -1.398921
     31          6           0      -12.470839   -0.730653   -1.740023
     32          6           0      -12.426295   -1.107258   -3.167887
     33          7           0       -7.224731   -1.336797   -0.119029
     34          6           0       -8.256177   -2.234275   -0.390383
     35          6           0       -7.877933   -3.614377   -0.501348
     36          6           0       -6.494274   -3.514104   -0.167109
     37          6           0       -6.155474   -2.199456    0.122056
     38          6           0       -8.657329   -4.776477   -0.867339
     39          6           0       -5.315200   -4.327039    0.069619
     40          8           0       -5.026198   -5.541781    0.038273
     41          6           0       -4.166324   -3.361718    0.556903
     42          6           0       -3.554099   -3.755630    1.903775
     43          8           0       -3.806857   -3.227598    3.003931
     44          8           0       -2.528246   -4.626096    1.708499
     45          6           0       -2.004325   -5.229452    2.895013
     46          6           0        2.932615   -0.827158   -1.295273
     47          6           0        4.203301   -0.533102   -0.613465
     48          6           0        5.136828    0.367029   -0.996855
     49          6           0        5.009351    1.279124   -2.219540
     50          6           0        6.397423    0.442899   -0.183263
     51          6           0        7.608588   -0.050950   -0.979870
     52          6           0        8.904731    0.003721   -0.198040
     53          6           0       10.126283   -0.365058   -0.964591
     54          6           0       10.052583   -1.855462   -1.495896
     55          6           0       11.347635   -0.277782   -0.096828
     56          6           0       12.692438   -0.465947   -0.753568
     57          6           0       13.960521   -0.056292    0.153545
     58          6           0       15.349398   -0.180313   -0.465922
     59          6           0       15.724416   -1.682484   -0.849991
     60          6           0       16.452340    0.341341    0.429698
     61          6           0       17.887619    0.324498   -0.134447
     62          6           0       18.856235    1.118009    0.836604
     63          6           0       20.365886    1.360322    0.252139
     64          6           0       20.354933    2.222985   -0.973733
     65          6           0       21.229915    1.856654    1.457377
     66          1           0       -4.118702    3.528438    1.319013
     67          1           0      -10.239387    3.917909   -0.470286
     68          1           0      -10.149450   -2.484058   -1.067488
     69          1           0       -2.373570   -1.033973    1.946780
     70          1           0       -1.864219    1.667625    1.356198
     71          1           0       -1.869662    0.867832    3.624833
     72          1           0       -2.945956    2.386164    3.466201
     73          1           0       -3.728995    0.787688    3.694965
     74          1           0       -2.062175   -1.337312   -0.512613
     75          1           0       -1.862002    0.325425   -0.655170
     76          1           0       -0.287891    0.728485    0.795216
     77          1           0       -0.218088   -1.116194    1.333507
     78          1           0       -5.203369    6.592183    0.407046
     79          1           0       -6.332139    6.429648    1.769491
     80          1           0       -4.622444    5.537238    1.791842
     81          1           0       -9.772887    5.792403    0.327462
     82          1           0       -8.936745    8.081989    0.128853
     83          1           0       -7.087766    7.308913   -0.207318
     84          1           0      -12.320355    2.907813   -2.263891
     85          1           0      -13.298424    1.926521   -1.550077
     86          1           0      -12.428995    3.114142   -0.328368
     87          1           0      -12.450181   -1.616492   -0.944227
     88          1           0      -13.419530   -0.362204   -1.424231
     89          1           0      -13.113883   -1.594212   -3.652392
     90          1           0      -12.174134   -0.224943   -3.859073
     91          1           0      -11.542612   -1.794255   -3.314055
     92          1           0       -9.291608   -4.674196   -1.988891
     93          1           0       -8.044723   -5.689116   -0.912473
     94          1           0       -9.306791   -5.091896   -0.002353
     95          1           0       -3.310423   -3.447655   -0.157287
     96          1           0       -1.431811   -4.557478    3.712681
     97          1           0       -2.892105   -5.489366    3.488069
     98          1           0       -1.353929   -6.327271    2.571887
     99          1           0        2.718280   -1.948668   -1.623369
    100          1           0        2.421885   -0.034017   -2.116302
    101          1           0        4.352413   -0.990975    0.375332
    102          1           0        4.078217    1.258439   -2.717761
    103          1           0        5.061044    2.321913   -2.057894
    104          1           0        5.957745    0.819166   -2.784846
    105          1           0        6.580123    1.341321    0.260858
    106          1           0        6.435239   -0.309875    0.620619
    107          1           0        7.357388   -1.027721   -1.108738
    108          1           0        7.668411    0.580054   -1.970268
    109          1           0        9.059103    1.022586    0.228183
    110          1           0        8.802446   -0.449857    0.789265
    111          1           0       10.375626    0.191479   -1.682751
    112          1           0        9.108602   -1.991434   -2.231617
    113          1           0       10.897396   -2.305041   -2.019177
    114          1           0        9.864158   -2.465665   -0.659242
    115          1           0       11.454398    0.903896    0.282702
    116          1           0       11.148919   -1.025345    0.789945
    117          1           0       13.016538   -1.435147   -1.238353
    118          1           0       12.764844    0.304266   -1.699919
    119          1           0       13.924505    0.931944    0.450455
    120          1           0       14.067175   -0.692449    0.904281
    121          1           0       15.354427    0.488613   -1.260175
    122          1           0       15.839178   -2.367779    0.047367
    123          1           0       14.932275   -2.320090   -1.516296
    124          1           0       16.655019   -1.789858   -1.463194
    125          1           0       16.189759    1.425925    0.460245
    126          1           0       16.580243   -0.058354    1.474302
    127          1           0       18.211913   -0.727286   -0.210259
    128          1           0       17.916170    0.783199   -1.262335
    129          1           0       18.450702    2.117191    1.123115
    130          1           0       18.784683    0.627990    1.795534
    131          1           0       20.956673    0.230284    0.125214
    132          1           0       20.078964    3.156609   -0.738962
    133          1           0       21.368766    2.616589   -1.369153
    134          1           0       19.736036    1.929446   -1.768410
    135          1           0       21.228527    1.260033    2.243287
    136          1           0       22.182022    2.275535    1.199079
    137          1           0       20.988945    2.757951    1.736058
 ---------------------------------------------------------------------

 SCF Done:  E(RCAM-B3LYP) =  -2932.55166061     A.U. after   18 cycles

 Excitation energies and oscillator strengths:

 Excited State   1:      Singlet-A      1.9673 eV  630.24 nm  f=0.2450  <S**2>=0.000
     240 -> 242       -0.12492
     240 -> 243        0.25257
     241 -> 242        0.64045
 This state for optimization and/or second-order correction.
 Total Energy, E(TD-HF/TD-KS) =  -2932.47936545
 Copying the excited state density for this state as the 1-particle RhoCI density.

 The electronic state is 1-A.
 Alpha  occ. eigenvalues --  -46.83827 -19.26810 -19.23354 -19.20780 -19.20364
 Alpha  occ. eigenvalues --  -19.19466 -14.41514 -14.39615 -14.39586 -14.39468
 Alpha  occ. eigenvalues --  -10.39664 -10.38661 -10.34770 -10.33620 -10.33617
 Alpha  occ. eigenvalues --  -10.31388 -10.30632 -10.30514 -10.29856 -10.29606
 Alpha  occ. eigenvalues --  -10.29512 -10.29224 -10.29158 -10.28706 -10.28527
 Alpha  occ. eigenvalues --  -10.28494 -10.28492 -10.28470 -10.28440 -10.28416
 Alpha  occ. eigenvalues --  -10.28213 -10.28130 -10.28019 -10.27870 -10.27697
 Alpha  occ. eigenvalues --  -10.27517 -10.27315 -10.27110 -10.27094 -10.27083
 Alpha  occ. eigenvalues --  -10.26990 -10.26953 -10.26918 -10.26718 -10.26681
 Alpha  occ. eigenvalues --  -10.26540 -10.26361 -10.26301 -10.26185 -10.26029
 Alpha  occ. eigenvalues --  -10.25829 -10.25602 -10.25598 -10.25512 -10.25319
 Alpha  occ. eigenvalues --  -10.25284 -10.25195 -10.25150 -10.25092 -10.25058
 Alpha  occ. eigenvalues --  -10.24976 -10.24484 -10.23819 -10.23356 -10.21790
 Alpha  occ. eigenvalues --   -3.13001  -1.87678  -1.87249  -1.87202  -1.17467
 Alpha  occ. eigenvalues --   -1.13733  -1.08562  -1.07691  -1.05142  -1.03751
 Alpha  occ. eigenvalues --   -1.03048  -1.02489  -1.01127  -0.92241  -0.91928
 Alpha  occ. eigenvalues --   -0.90655  -0.90385  -0.89871  -0.89678  -0.89132
 Alpha  occ. eigenvalues --   -0.88518  -0.87662  -0.87515  -0.87330  -0.86049
 Alpha  occ. eigenvalues --   -0.85247  -0.84162  -0.83561  -0.83144  -0.82473
 Alpha  occ. eigenvalues --   -0.81420  -0.80770  -0.80275  -0.79422  -0.78551
 Alpha  occ. eigenvalues --   -0.78307  -0.78012  -0.77607  -0.76518  -0.75511
 Alpha  occ. eigenvalues --   -0.75050  -0.74832  -0.74063  -0.73187  -0.72831
 Alpha  occ. eigenvalues --   -0.72368  -0.70922  -0.70594  -0.68864  -0.67944
 Alpha  occ. eigenvalues --   -0.67161  -0.66842  -0.65667  -0.65513  -0.64487
 Alpha  occ. eigenvalues --   -0.63652  -0.63450  -0.62970  -0.62497  -0.61892
 Alpha  occ. eigenvalues --   -0.61481  -0.60706  -0.60162  -0.59696  -0.58694
 Alpha  occ. eigenvalues --   -0.58634  -0.58184  -0.57509  -0.56314  -0.56045
 Alpha  occ. eigenvalues --   -0.55865  -0.55632  -0.55123  -0.54706  -0.54543
 Alpha  occ. eigenvalues --   -0.54332  -0.54082  -0.53190  -0.53028  -0.52926
 Alpha  occ. eigenvalues --   -0.52630  -0.52594  -0.52336  -0.52221  -0.51855
 Alpha  occ. eigenvalues --   -0.51705  -0.51405  -0.50838  -0.50255  -0.50084
 Alpha  occ. eigenvalues --   -0.49866  -0.49822  -0.49749  -0.49582  -0.49475
 Alpha  occ. eigenvalues --   -0.49242  -0.48939  -0.48807  -0.48660  -0.48181
 Alpha  occ. eigenvalues --   -0.47905  -0.47826  -0.47366  -0.47176  -0.46925
 Alpha  occ. eigenvalues --   -0.46648  -0.46608  -0.46523  -0.46315  -0.46247
 Alpha  occ. eigenvalues --   -0.45793  -0.45649  -0.45284  -0.45077  -0.44801
 Alpha  occ. eigenvalues --   -0.44349  -0.44180  -0.43968  -0.43862  -0.43758
 Alpha  occ. eigenvalues --   -0.43685  -0.43585  -0.43412  -0.43035  -0.42714
 Alpha  occ. eigenvalues --   -0.42543  -0.42313  -0.42018  -0.41930  -0.41812
 Alpha  occ. eigenvalues --   -0.41762  -0.41409  -0.41301  -0.41061  -0.40852
 Alpha  occ. eigenvalues --   -0.40762  -0.40653  -0.40560  -0.40469  -0.40416
 Alpha  occ. eigenvalues --   -0.40147  -0.40041  -0.39731  -0.39626  -0.39589
 Alpha  occ. eigenvalues --   -0.39013  -0.38566  -0.38231  -0.38175  -0.38082
 Alpha  occ. eigenvalues --   -0.37906  -0.37539  -0.37354  -0.37163  -0.36985
 Alpha  occ. eigenvalues --   -0.36245  -0.35918  -0.35898  -0.35615  -0.35508
 Alpha  occ. eigenvalues --   -0.35316  -0.34901  -0.34096  -0.33917  -0.33439
 Alpha  occ. eigenvalues --   -0.33235  -0.32752  -0.32410  -0.30807  -0.29676
 Alpha  occ. eigenvalues --   -0.29527  -0.29332  -0.28931  -0.27140  -0.23115
 Alpha  occ. eigenvalues --   -0.21459
 Alpha virt. eigenvalues --   -0.07211  -0.03581   0.00783   0.03206   0.04527
 Alpha virt. eigenvalues --    0.05140   0.05217   0.05674   0.06326   0.07136
 Alpha virt. eigenvalues --    0.08000   0.10318   0.10662   0.11369   0.11494

 Mulliken charges:
               1
     1  Mg   0.840706
     2  C    0.038683
     3  C   -0.193646
     4  C   -0.199781
     5  C   -0.139762
     6  N   -0.610293
     7  C    0.295758
     8  C   -0.141651
     9  C   -0.152231
    10  C    0.331107
    11  C   -0.298200
    12  C   -0.174649
    13  C   -0.270782
    14  C    0.615060
    15  O   -0.492073
    16  O   -0.530345
    17  N   -0.726820
    18  C    0.342136
    19  C   -0.042061
    20  C    0.066581
    21  C    0.278384
    22  C   -0.347620
    23  C   -0.060519
    24  C   -0.242503
    25  N   -0.667606
    26  C    0.307163
    27  C    0.013578
    28  C    0.000029
    29  C    0.275565
    30  C   -0.333231
    31  C   -0.235465
    32  C   -0.298332
    33  N   -0.720355
    34  C    0.221264
    35  C    0.104487
    36  C   -0.003901
    37  C    0.296866
    38  C   -0.398328
    39  C    0.346376
    40  O   -0.491277
    41  C   -0.299239
    42  C    0.625598
    43  O   -0.487810
    44  O   -0.433844
    45  C   -0.074606
    46  C    0.005336
    47  C   -0.127848
    48  C    0.115455
    49  C   -0.343658
    50  C   -0.232714
    51  C   -0.175725
    52  C   -0.183709
    53  C   -0.017258
    54  C   -0.325539
    55  C   -0.152051
    56  C   -0.183562
    57  C   -0.154097
    58  C   -0.066510
    59  C   -0.324178
    60  C   -0.171931
    61  C   -0.175329
    62  C   -0.180094
    63  C   -0.034292
    64  C   -0.317983
    65  C   -0.314983
    66  H    0.078449
    67  H    0.083200
    68  H    0.070696
    69  H    0.108234
    70  H    0.089640
    71  H    0.100497
    72  H    0.088486
    73  H    0.136130
    74  H    0.126209
    75  H    0.124750
    76  H    0.129862
    77  H    0.138963
    78  H    0.090721
    79  H    0.143332
    80  H    0.103228
    81  H    0.105719
    82  H    0.083528
    83  H    0.117884
    84  H    0.138045
    85  H    0.116601
    86  H    0.099008
    87  H    0.090335
    88  H    0.109362
    89  H    0.125789
    90  H    0.100198
    91  H    0.102084
    92  H    0.098765
    93  H    0.154903
    94  H    0.134528
    95  H    0.163192
    96  H    0.113825
    97  H    0.137646
    98  H    0.101623
    99  H    0.126339
   100  H    0.130146
   101  H    0.102089
   102  H    0.119787
   103  H    0.125821
   104  H    0.108638
   105  H    0.108956
   106  H    0.097444
   107  H    0.119525
   108  H    0.080902
   109  H    0.084897
   110  H    0.091217
   111  H    0.090687
   112  H    0.078896
   113  H    0.109929
   114  H    0.107056
   115  H    0.059683
   116  H    0.075021
   117  H    0.097412
   118  H    0.057236
   119  H    0.089249
   120  H    0.102194
   121  H    0.092692
   122  H    0.098843
   123  H    0.070793
   124  H    0.108675
   125  H    0.084014
   126  H    0.085099
   127  H    0.102616
   128  H    0.064401
   129  H    0.087493
   130  H    0.093360
   131  H    0.046010
   132  H    0.116607
   133  H    0.086970
   134  H    0.115871
   135  H    0.113153
   136  H    0.089211
   137  H    0.103895
 Sum of Mulliken charges =   0.00000

 Dipole moment (field-independent basis, Debye):
    X=              0.4773    Y=              5.5044    Z=              0.8602  Tot=              5.5916
 Quadrupole moment (field-independent basis, Debye-Ang):
   XX=           -318.2315   YY=           -389.5979   ZZ=           -400.0200
   XY=             -9.3515   XZ=             19.9615   YZ=             -3.1234

 Normal termination of Gaussian 09 at Sun Jun 30 10:54:43 2019.
