 Gaussian 09, Revision D.01,
 Gaussian 09:  ES64L-G09RevD.01 24-Apr-2013

 -------------------------------------
 # td=(NStates=1) CAM-B3LYP/6-31G(d,p)
 -------------------------------------

 --
 TD
 --
 Symbolic Z-matrix:
 Charge =  0 Multiplicity = 1

                         Standard orientation:
 ---------------------------------------------------------------------
 Center     Atomic      Atomic             Coordinates (Angstroms)
 Number     Number       Type             X           Y           Z
 ---------------------------------------------------------------------
      1         12           0       -7.096658    0.524439    0.160844
      2          6           0       -4.767201   -1.966132    0.476703
      3          6           0       -4.870174    2.844028    1.114925
      4          6           0       -9.510367    3.116476   -0.145198
      5          6           0       -9.664032   -1.853959   -0.706521
      6          7           0       -5.097890    0.450879    0.648068
      7          6           0       -4.310446   -0.782636    0.764285
      8          6           0       -2.901506   -0.422957    1.279505
      9          6           0       -3.029083    1.083991    1.582430
     10          6           0       -4.394514    1.470567    1.132959
     11          6           0       -2.921678    1.440128    3.070053
     12          6           0       -1.814584   -0.670488    0.214824
     13          6           0       -0.333737   -0.343423    0.559068
     14          6           0        0.587092   -0.734221   -0.495181
     15          8           0        0.345582   -0.970697   -1.632471
     16          8           0        1.914184   -0.460503   -0.080912
     17          7           0       -7.191028    2.643373    0.368089
     18          6           0       -6.099613    3.335729    0.733929
     19          6           0       -6.477460    4.753305    0.789362
     20          6           0       -7.746116    4.828231    0.395978
     21          6           0       -8.261755    3.507980    0.151527
     22          6           0       -5.438325    5.827053    1.200939
     23          6           0       -8.611397    6.032132    0.151324
     24          6           0       -8.204945    7.206729   -0.017108
     25          7           0       -9.227493    0.686502   -0.491958
     26          6           0       -9.995713    1.796687   -0.483449
     27          6           0      -11.317570    1.484340   -1.016401
     28          6           0      -11.298933    0.059586   -1.231592
     29          6           0      -10.005604   -0.439154   -0.830491
     30          6           0      -12.409974    2.489355   -1.300321
     31          6           0      -12.354007   -0.709668   -1.590923
     32          6           0      -12.343455   -1.142549   -3.070643
     33          7           0       -7.201412   -1.492158   -0.161245
     34          6           0       -8.295399   -2.272503   -0.581735
     35          6           0       -7.880468   -3.727565   -0.445917
     36          6           0       -6.509330   -3.541235   -0.139266
     37          6           0       -6.229852   -2.224029   -0.016657
     38          6           0       -8.653656   -4.829089   -0.902537
     39          6           0       -5.315714   -4.402107    0.063473
     40          8           0       -5.322537   -5.612366    0.103210
     41          6           0       -4.109758   -3.300618    0.419478
     42          6           0       -3.569152   -3.616399    1.754217
     43          8           0       -3.646235   -2.948958    2.801364
     44          8           0       -2.725987   -4.733585    1.727861
     45          6           0       -1.991699   -5.046242    3.016434
     46          6           0        2.908513   -0.643813   -1.218880
     47          6           0        4.227114   -0.401082   -0.376868
     48          6           0        5.159708    0.375078   -1.020085
     49          6           0        5.140571    1.169228   -2.256291
     50          6           0        6.537016    0.557744   -0.218168
     51          6           0        7.702434   -0.157683   -0.938266
     52          6           0        8.899896   -0.236841   -0.147061
     53          6           0       10.183622   -0.650557   -0.914414
     54          6           0       10.042505   -2.064032   -1.370994
     55          6           0       11.388045   -0.408397    0.091432
     56          6           0       12.758230   -0.551663   -0.662165
     57          6           0       13.917579   -0.038385    0.209595
     58          6           0       15.292604   -0.179568   -0.568424
     59          6           0       15.698979   -1.548124   -0.967210
     60          6           0       16.384019    0.485792    0.377098
     61          6           0       17.828011    0.682988   -0.274584
     62          6           0       18.710944    1.281272    0.749950
     63          6           0       20.195254    1.317241    0.265302
     64          6           0       20.277170    2.124737   -0.960951
     65          6           0       21.249603    1.858310    1.268303
     66          1           0       -4.142566    3.555216    1.452969
     67          1           0      -10.203538    3.930973   -0.461029
     68          1           0      -10.500611   -2.483112   -1.001504
     69          1           0       -2.775884   -0.692166    2.264215
     70          1           0       -2.355809    1.585344    1.070359
     71          1           0       -2.052553    1.255019    3.403758
     72          1           0       -3.226789    2.318311    3.447738
     73          1           0       -3.432087    0.766076    3.649232
     74          1           0       -2.017021   -1.673283   -0.244541
     75          1           0       -2.201904   -0.060638   -0.787445
     76          1           0       -0.148712    0.758755    0.815531
     77          1           0        0.042978   -0.997129    1.465167
     78          1           0       -4.954187    6.068581    0.388398
     79          1           0       -5.802496    6.958520    1.535270
     80          1           0       -4.567667    5.446957    1.974321
     81          1           0       -9.608592    5.775468    0.389808
     82          1           0       -9.009624    8.035765   -0.088348
     83          1           0       -7.227473    7.434955   -0.614731
     84          1           0      -12.115794    3.271831   -2.122839
     85          1           0      -13.446556    2.044471   -1.595246
     86          1           0      -12.579876    3.293995   -0.315339
     87          1           0      -12.242787   -1.667982   -0.972267
     88          1           0      -13.308638   -0.328577   -1.497428
     89          1           0      -13.301333   -1.730935   -3.195029
     90          1           0      -12.198467   -0.083951   -3.659765
     91          1           0      -11.489159   -1.843378   -3.310534
     92          1           0       -8.858453   -4.907388   -2.038395
     93          1           0       -7.933338   -5.638466   -0.608042
     94          1           0       -9.553893   -5.085885   -0.465007
     95          1           0       -3.429136   -3.437873   -0.387691
     96          1           0       -1.831305   -4.048040    3.328230
     97          1           0       -2.816302   -5.568796    3.695392
     98          1           0       -1.062304   -5.798960    2.869828
     99          1           0        2.824453   -1.790680   -1.503825
    100          1           0        2.553163   -0.024403   -2.096766
    101          1           0        4.333140   -0.819083    0.580668
    102          1           0        4.150903    1.199587   -2.906149
    103          1           0        5.260802    2.089195   -2.119256
    104          1           0        5.687119    0.625715   -3.067937
    105          1           0        6.757447    1.628926   -0.138499
    106          1           0        6.271533    0.187271    0.661554
    107          1           0        7.415249   -1.046659   -1.205574
    108          1           0        8.028546    0.165361   -1.935215
    109          1           0        9.171875    0.610173    0.233695
    110          1           0        8.734827   -0.678667    0.782639
    111          1           0       10.240100   -0.001394   -1.739044
    112          1           0        9.305448   -2.255290   -2.238214
    113          1           0       11.040758   -2.663619   -1.684958
    114          1           0       10.020520   -2.639240   -0.169551
    115          1           0       11.362647    0.689942    0.320988
    116          1           0       11.270947   -1.071919    1.098491
    117          1           0       12.813049   -1.669393   -0.657654
    118          1           0       12.807422   -0.058680   -1.622318
    119          1           0       13.811490    1.163089    0.552525
    120          1           0       13.739559   -0.590161    1.277406
    121          1           0       15.142644    0.494249   -1.391687
    122          1           0       15.538217   -2.236565   -0.211495
    123          1           0       14.965819   -2.037835   -1.592301
    124          1           0       16.737671   -1.721119   -1.460132
    125          1           0       15.793395    1.284613    0.792802
    126          1           0       16.515570    0.059675    1.473348
    127          1           0       18.092471   -0.477591   -0.256929
    128          1           0       17.867754    1.219144   -1.326703
    129          1           0       18.278394    2.281113    0.998806
    130          1           0       18.746325    0.626497    1.570248
    131          1           0       20.553834    0.252821    0.033697
    132          1           0       19.995222    3.077925   -0.562449
    133          1           0       21.282858    2.201499   -1.392929
    134          1           0       19.728708    1.656959   -1.858695
    135          1           0       21.177491    1.243823    2.148388
    136          1           0       22.115017    1.938820    0.994909
    137          1           0       21.173913    2.786110    1.621123
 ---------------------------------------------------------------------

 SCF Done:  E(RCAM-B3LYP) =  -2932.48841384     A.U. after   17 cycles

 Excitation energies and oscillator strengths:

 Excited State   1:      Singlet-A      2.1521 eV  576.12 nm  f=0.2424  <S**2>=0.000
     240 -> 243        0.21693
     241 -> 242        0.66421
 This state for optimization and/or second-order correction.
 Total Energy, E(TD-HF/TD-KS) =  -2932.40932685
 Copying the excited state density for this state as the 1-particle RhoCI density.

 The electronic state is 1-A.
 Alpha  occ. eigenvalues --  -46.85630 -19.24817 -19.24171 -19.21482 -19.21447
 Alpha  occ. eigenvalues --  -19.20902 -14.41830 -14.40149 -14.38846 -14.38425
 Alpha  occ. eigenvalues --  -10.39593 -10.38585 -10.35998 -10.32804 -10.32645
 Alpha  occ. eigenvalues --  -10.31948 -10.30277 -10.30006 -10.29878 -10.29575
 Alpha  occ. eigenvalues --  -10.29319 -10.29202 -10.29176 -10.28984 -10.28917
 Alpha  occ. eigenvalues --  -10.28824 -10.28530 -10.28335 -10.28307 -10.27922
 Alpha  occ. eigenvalues --  -10.27671 -10.27647 -10.27587 -10.27327 -10.27321
 Alpha  occ. eigenvalues --  -10.26877 -10.26872 -10.26782 -10.26576 -10.26529
 Alpha  occ. eigenvalues --  -10.26483 -10.26392 -10.26381 -10.26273 -10.26130
 Alpha  occ. eigenvalues --  -10.26051 -10.25906 -10.25690 -10.25662 -10.25489
 Alpha  occ. eigenvalues --  -10.25456 -10.25418 -10.25232 -10.25227 -10.24975
 Alpha  occ. eigenvalues --  -10.24962 -10.24690 -10.24376 -10.24234 -10.23744
 Alpha  occ. eigenvalues --  -10.23626 -10.23217 -10.22764 -10.21793 -10.20984
 Alpha  occ. eigenvalues --   -3.14339  -1.89078  -1.88545  -1.88515  -1.16750
 Alpha  occ. eigenvalues --   -1.15064  -1.11831  -1.07635  -1.06779  -1.06376
 Alpha  occ. eigenvalues --   -1.03809  -1.02840  -1.01164  -0.92493  -0.91651
 Alpha  occ. eigenvalues --   -0.90680  -0.90189  -0.90071  -0.89591  -0.89383
 Alpha  occ. eigenvalues --   -0.88472  -0.88364  -0.87664  -0.87266  -0.86067
 Alpha  occ. eigenvalues --   -0.85034  -0.84471  -0.83396  -0.83042  -0.82459
 Alpha  occ. eigenvalues --   -0.81291  -0.80917  -0.80592  -0.80377  -0.79384
 Alpha  occ. eigenvalues --   -0.77955  -0.77451  -0.76597  -0.76490  -0.76006
 Alpha  occ. eigenvalues --   -0.75327  -0.74331  -0.73841  -0.73275  -0.72352
 Alpha  occ. eigenvalues --   -0.71584  -0.70268  -0.69017  -0.68648  -0.67802
 Alpha  occ. eigenvalues --   -0.67398  -0.66646  -0.65880  -0.64478  -0.64421
 Alpha  occ. eigenvalues --   -0.64002  -0.62844  -0.62823  -0.61862  -0.61775
 Alpha  occ. eigenvalues --   -0.61352  -0.61096  -0.60018  -0.59551  -0.59227
 Alpha  occ. eigenvalues --   -0.58828  -0.58432  -0.57821  -0.57514  -0.56841
 Alpha  occ. eigenvalues --   -0.56033  -0.55711  -0.55232  -0.54922  -0.54607
 Alpha  occ. eigenvalues --   -0.54437  -0.53684  -0.53483  -0.53338  -0.52713
 Alpha  occ. eigenvalues --   -0.52574  -0.52500  -0.52422  -0.52170  -0.51813
 Alpha  occ. eigenvalues --   -0.51536  -0.51114  -0.50863  -0.50574  -0.50567
 Alpha  occ. eigenvalues --   -0.50386  -0.50266  -0.50020  -0.49811  -0.49726
 Alpha  occ. eigenvalues --   -0.49545  -0.49139  -0.49102  -0.49040  -0.48761
 Alpha  occ. eigenvalues --   -0.48695  -0.48296  -0.47954  -0.47679  -0.47403
 Alpha  occ. eigenvalues --   -0.46911  -0.46880  -0.46599  -0.46513  -0.46112
 Alpha  occ. eigenvalues --   -0.46005  -0.45688  -0.45548  -0.45147  -0.45127
 Alpha  occ. eigenvalues --   -0.44845  -0.44525  -0.44360  -0.44165  -0.44148
 Alpha  occ. eigenvalues --   -0.43990  -0.43924  -0.43594  -0.43370  -0.43166
 Alpha  occ. eigenvalues --   -0.43080  -0.42858  -0.42393  -0.42343  -0.42239
 Alpha  occ. eigenvalues --   -0.41883  -0.41817  -0.41652  -0.41430  -0.41234
 Alpha  occ. eigenvalues --   -0.41187  -0.40873  -0.40802  -0.40649  -0.40207
 Alpha  occ. eigenvalues --   -0.39997  -0.39878  -0.39494  -0.39109  -0.38792
 Alpha  occ. eigenvalues --   -0.38724  -0.38620  -0.37673  -0.37345  -0.37318
 Alpha  occ. eigenvalues --   -0.37220  -0.36996  -0.36731  -0.36509  -0.36192
 Alpha  occ. eigenvalues --   -0.36159  -0.36054  -0.35656  -0.35107  -0.35103
 Alpha  occ. eigenvalues --   -0.35034  -0.34682  -0.34218  -0.33759  -0.33633
 Alpha  occ. eigenvalues --   -0.32355  -0.32206  -0.32115  -0.31319  -0.29914
 Alpha  occ. eigenvalues --   -0.29599  -0.29410  -0.28549  -0.26067  -0.24042
 Alpha  occ. eigenvalues --   -0.21383
 Alpha virt. eigenvalues --   -0.05942  -0.02731   0.02181   0.04232   0.05234
 Alpha virt. eigenvalues --    0.05615   0.05796   0.06531   0.06783   0.07037
 Alpha virt. eigenvalues --    0.08306   0.10459   0.10819   0.11121   0.11550

 Mulliken charges:
               1
     1  Mg   0.825033
     2  C    0.064977
     3  C   -0.224629
     4  C   -0.201731
     5  C   -0.121498
     6  N   -0.667831
     7  C    0.256650
     8  C   -0.114845
     9  C   -0.156348
    10  C    0.385320
    11  C   -0.335242
    12  C   -0.184835
    13  C   -0.263127
    14  C    0.616713
    15  O   -0.448431
    16  O   -0.533100
    17  N   -0.745049
    18  C    0.374241
    19  C    0.014202
    20  C   -0.016963
    21  C    0.349286
    22  C   -0.369174
    23  C   -0.005483
    24  C   -0.269521
    25  N   -0.674444
    26  C    0.293541
    27  C    0.033440
    28  C    0.072281
    29  C    0.251809
    30  C   -0.370980
    31  C   -0.289130
    32  C   -0.293359
    33  N   -0.700731
    34  C    0.174115
    35  C    0.042599
    36  C   -0.035836
    37  C    0.375071
    38  C   -0.400292
    39  C    0.360980
    40  O   -0.438911
    41  C   -0.356289
    42  C    0.659579
    43  O   -0.491102
    44  O   -0.505291
    45  C   -0.075935
    46  C    0.013625
    47  C   -0.130413
    48  C    0.087724
    49  C   -0.343551
    50  C   -0.219612
    51  C   -0.172389
    52  C   -0.147107
    53  C   -0.069713
    54  C   -0.274084
    55  C   -0.192506
    56  C   -0.171711
    57  C   -0.178515
    58  C   -0.039172
    59  C   -0.317111
    60  C   -0.183190
    61  C   -0.173969
    62  C   -0.155231
    63  C   -0.068866
    64  C   -0.294534
    65  C   -0.305195
    66  H    0.064202
    67  H    0.086938
    68  H    0.108881
    69  H    0.140933
    70  H    0.113049
    71  H    0.114640
    72  H    0.123056
    73  H    0.127987
    74  H    0.117446
    75  H    0.098597
    76  H    0.151547
    77  H    0.132859
    78  H    0.150403
    79  H    0.105206
    80  H    0.097722
    81  H    0.098606
    82  H    0.090590
    83  H    0.102198
    84  H    0.113330
    85  H    0.107707
    86  H    0.080969
    87  H    0.089620
    88  H    0.113730
    89  H    0.099391
    90  H    0.094356
    91  H    0.102807
    92  H    0.126543
    93  H    0.145233
    94  H    0.131171
    95  H    0.179117
    96  H    0.149956
    97  H    0.125218
    98  H    0.123487
    99  H    0.111888
   100  H    0.139471
   101  H    0.111244
   102  H    0.078987
   103  H    0.134395
   104  H    0.128302
   105  H    0.093984
   106  H    0.102251
   107  H    0.109434
   108  H    0.079015
   109  H    0.090699
   110  H    0.082271
   111  H    0.090129
   112  H    0.105752
   113  H    0.082151
   114  H    0.051694
   115  H    0.092495
   116  H    0.080839
   117  H    0.104026
   118  H    0.099183
   119  H    0.060867
   120  H    0.069291
   121  H    0.095750
   122  H    0.112405
   123  H    0.094533
   124  H    0.100354
   125  H    0.079886
   126  H    0.067158
   127  H    0.089305
   128  H    0.093055
   129  H    0.089557
   130  H    0.099435
   131  H    0.071094
   132  H    0.103548
   133  H    0.090063
   134  H    0.088698
   135  H    0.090879
   136  H    0.105064
   137  H    0.099142
 Sum of Mulliken charges =   0.00000

 Dipole moment (field-independent basis, Debye):
    X=              2.4613    Y=              3.9546    Z=              0.1074  Tot=              4.6593
 Quadrupole moment (field-independent basis, Debye-Ang):
   XX=           -364.9956   YY=           -396.1839   ZZ=           -394.2925
   XY=            -11.3946   XZ=              8.9145   YZ=             -3.7296

 Normal termination of Gaussian 09 at Mon Jul  1 11:09:47 2019.
