 Gaussian 09, Revision D.01,
 Gaussian 09:  ES64L-G09RevD.01 24-Apr-2013

 -------------------------------------
 # td=(NStates=1) CAM-B3LYP/6-31G(d,p)
 -------------------------------------

 --
 TD
 --
 Symbolic Z-matrix:
 Charge =  0 Multiplicity = 1

                         Standard orientation:
 ---------------------------------------------------------------------
 Center     Atomic      Atomic             Coordinates (Angstroms)
 Number     Number       Type             X           Y           Z
 ---------------------------------------------------------------------
      1         12           0       -7.132075    0.619508    0.047176
      2          6           0       -4.901583   -1.963577    0.593710
      3          6           0       -4.867841    2.771152    1.215956
      4          6           0       -9.354841    3.083488   -0.325779
      5          6           0       -9.540015   -1.758662   -0.925626
      6          7           0       -5.104770    0.406691    0.868808
      7          6           0       -4.314779   -0.665763    0.810934
      8          6           0       -2.977244   -0.368060    1.340855
      9          6           0       -2.982189    1.122374    1.716793
     10          6           0       -4.391667    1.481318    1.282007
     11          6           0       -2.884810    1.270576    3.243937
     12          6           0       -1.942930   -0.640036    0.169853
     13          6           0       -0.432243   -0.505571    0.591690
     14          6           0        0.497454   -0.713167   -0.680116
     15          8           0        0.189731   -1.103990   -1.733468
     16          8           0        1.775753   -0.521949   -0.259197
     17          7           0       -7.141646    2.625530    0.378822
     18          6           0       -6.138412    3.377872    0.884638
     19          6           0       -6.450865    4.792835    0.873537
     20          6           0       -7.765645    4.864174    0.575500
     21          6           0       -8.150655    3.563181    0.126633
     22          6           0       -5.558156    5.829266    1.364246
     23          6           0       -8.632723    6.022400    0.309967
     24          6           0       -8.270854    7.318864    0.033975
     25          7           0       -9.086835    0.701909   -0.513428
     26          6           0       -9.779760    1.778462   -0.719604
     27          6           0      -11.207487    1.433705   -1.078636
     28          6           0      -11.194877    0.077918   -1.217777
     29          6           0       -9.894155   -0.454000   -0.886553
     30          6           0      -12.288135    2.507110   -1.403392
     31          6           0      -12.407269   -0.743535   -1.732080
     32          6           0      -12.329643   -1.299381   -3.185205
     33          7           0       -7.161238   -1.421407   -0.225366
     34          6           0       -8.227140   -2.285266   -0.663252
     35          6           0       -7.771685   -3.615848   -0.624019
     36          6           0       -6.445048   -3.531664   -0.140334
     37          6           0       -6.168911   -2.142678    0.092510
     38          6           0       -8.476060   -4.856918   -1.030285
     39          6           0       -5.224469   -4.311840    0.016416
     40          8           0       -5.055599   -5.493654   -0.096919
     41          6           0       -4.075026   -3.335579    0.585723
     42          6           0       -3.562306   -3.702070    1.957365
     43          8           0       -3.800618   -3.095726    3.009392
     44          8           0       -2.702562   -4.692934    1.914455
     45          6           0       -2.337241   -5.256227    3.234927
     46          6           0        2.787733   -0.536137   -1.324661
     47          6           0        4.141504   -0.491052   -0.768433
     48          6           0        5.128695    0.385396   -0.960829
     49          6           0        5.132126    1.347257   -2.260389
     50          6           0        6.328134    0.470422   -0.160466
     51          6           0        7.620301   -0.000493   -0.899852
     52          6           0        8.922239   -0.126807   -0.058326
     53          6           0       10.165163   -0.503815   -0.738990
     54          6           0       10.259617   -1.802031   -1.303317
     55          6           0       11.387878   -0.224547    0.035107
     56          6           0       12.751046   -0.376429   -0.692234
     57          6           0       14.002426   -0.143558    0.140821
     58          6           0       15.312578   -0.113001   -0.567620
     59          6           0       15.714232   -1.554778   -1.084130
     60          6           0       16.369749    0.222519    0.434823
     61          6           0       17.777293    0.363094   -0.219953
     62          6           0       18.717747    1.168656    0.684462
     63          6           0       20.243798    1.274311    0.269191
     64          6           0       20.410162    2.120823   -1.056993
     65          6           0       21.126202    1.879530    1.428014
     66          1           0       -4.282316    3.489793    1.504524
     67          1           0      -10.097611    3.928728   -0.369661
     68          1           0      -10.143688   -2.592988   -1.480957
     69          1           0       -2.788826   -1.118379    2.152326
     70          1           0       -2.201895    1.641696    1.145390
     71          1           0       -1.867536    0.915152    3.505293
     72          1           0       -3.105933    2.320681    3.424378
     73          1           0       -3.724172    0.590916    3.711783
     74          1           0       -2.373423   -1.683537   -0.309558
     75          1           0       -2.086866   -0.038075   -0.473738
     76          1           0       -0.097029    0.450776    1.103878
     77          1           0       -0.320222   -1.220451    1.285351
     78          1           0       -4.906606    6.104107    0.480897
     79          1           0       -6.179512    6.482391    1.694377
     80          1           0       -4.932108    5.455741    2.295539
     81          1           0       -9.742085    5.813235    0.395925
     82          1           0       -9.179593    8.028295   -0.238890
     83          1           0       -7.258234    7.410724   -0.237171
     84          1           0      -11.856391    3.179546   -2.142035
     85          1           0      -13.187582    2.010699   -1.964605
     86          1           0      -12.803651    2.717570   -0.402349
     87          1           0      -12.402863   -1.623985   -1.231782
     88          1           0      -13.522593   -0.308524   -1.582853
     89          1           0      -13.410262   -1.798730   -3.311908
     90          1           0      -12.093706   -0.427232   -3.691846
     91          1           0      -11.405011   -1.876759   -3.197405
     92          1           0       -8.573294   -5.003073   -2.202440
     93          1           0       -8.046218   -5.905932   -0.483178
     94          1           0       -9.597381   -4.829777   -0.880405
     95          1           0       -3.318397   -3.425079   -0.186538
     96          1           0       -1.785187   -4.523964    3.878255
     97          1           0       -3.113866   -5.883011    3.768249
     98          1           0       -1.756370   -6.157102    3.183696
     99          1           0        2.855658   -1.410322   -1.992705
    100          1           0        2.589475    0.328777   -1.971920
    101          1           0        4.143720   -1.018122    0.025468
    102          1           0        3.929803    1.672309   -2.488918
    103          1           0        5.625186    2.173789   -2.009983
    104          1           0        5.501321    0.853500   -3.167977
    105          1           0        6.423202    1.518533    0.048129
    106          1           0        6.181998   -0.225689    0.706708
    107          1           0        7.464873   -0.859758   -1.604033
    108          1           0        7.922447    0.730199   -1.984943
    109          1           0        8.968120    0.893135    0.477119
    110          1           0        8.753475   -0.748261    0.763217
    111          1           0       10.055723    0.111528   -1.524858
    112          1           0        9.318530   -1.837895   -2.043744
    113          1           0       11.044252   -2.098172   -1.939985
    114          1           0       10.030597   -2.437062   -0.511330
    115          1           0       11.320065    0.784820    0.672116
    116          1           0       11.389573   -1.030922    0.823331
    117          1           0       12.798840   -1.292281   -1.209866
    118          1           0       12.867765    0.242432   -1.547728
    119          1           0       13.752196    0.888660    0.458329
    120          1           0       14.002485   -0.551775    1.252040
    121          1           0       15.353493    0.430910   -1.492048
    122          1           0       15.958188   -2.322704   -0.256940
    123          1           0       14.990908   -2.070826   -1.681000
    124          1           0       16.577208   -1.487214   -1.704744
    125          1           0       15.937758    1.139289    0.872526
    126          1           0       16.493028   -0.455403    1.278143
    127          1           0       18.263257   -0.645833   -0.324170
    128          1           0       17.696621    0.930572   -1.210216
    129          1           0       18.100744    2.069684    0.796810
    130          1           0       18.878786    0.674647    1.588158
    131          1           0       20.464660    0.432997   -0.015734
    132          1           0       20.037240    3.137764   -0.673606
    133          1           0       21.349376    2.346995   -1.480257
    134          1           0       19.672663    1.702267   -1.632275
    135          1           0       21.176468    1.199186    2.272576
    136          1           0       22.230642    1.986156    0.981113
    137          1           0       20.736312    2.738226    1.680134
 ---------------------------------------------------------------------

 SCF Done:  E(RCAM-B3LYP) =  -2932.59044978     A.U. after   17 cycles

 Excitation energies and oscillator strengths:

 Excited State   1:      Singlet-A      2.0682 eV  599.49 nm  f=0.3229  <S**2>=0.000
     240 -> 242       -0.15023
     240 -> 243        0.20698
     241 -> 242        0.64462
     241 -> 243        0.11983
 This state for optimization and/or second-order correction.
 Total Energy, E(TD-HF/TD-KS) =  -2932.51444568
 Copying the excited state density for this state as the 1-particle RhoCI density.

 The electronic state is 1-A.
 Alpha  occ. eigenvalues --  -46.84810 -19.26970 -19.26083 -19.21682 -19.19604
 Alpha  occ. eigenvalues --  -19.19239 -14.41256 -14.40017 -14.39493 -14.38555
 Alpha  occ. eigenvalues --  -10.39222 -10.38858 -10.34064 -10.31888 -10.31409
 Alpha  occ. eigenvalues --  -10.30529 -10.30168 -10.29920 -10.29800 -10.29351
 Alpha  occ. eigenvalues --  -10.29178 -10.28692 -10.28651 -10.28591 -10.28499
 Alpha  occ. eigenvalues --  -10.28167 -10.28015 -10.27777 -10.27617 -10.27614
 Alpha  occ. eigenvalues --  -10.27516 -10.27421 -10.27410 -10.27379 -10.27354
 Alpha  occ. eigenvalues --  -10.27317 -10.27266 -10.26806 -10.26717 -10.26543
 Alpha  occ. eigenvalues --  -10.26527 -10.26434 -10.26413 -10.26398 -10.26386
 Alpha  occ. eigenvalues --  -10.26122 -10.25931 -10.25752 -10.25668 -10.25655
 Alpha  occ. eigenvalues --  -10.25452 -10.25448 -10.25337 -10.24746 -10.24340
 Alpha  occ. eigenvalues --  -10.24314 -10.24294 -10.24157 -10.24025 -10.23977
 Alpha  occ. eigenvalues --  -10.23941 -10.23839 -10.23777 -10.23398 -10.23144
 Alpha  occ. eigenvalues --   -3.13755  -1.88470  -1.87984  -1.87929  -1.18824
 Alpha  occ. eigenvalues --   -1.18286  -1.10904  -1.10645  -1.07137  -1.05241
 Alpha  occ. eigenvalues --   -1.04214  -1.03866  -1.02747  -0.93142  -0.91363
 Alpha  occ. eigenvalues --   -0.90977  -0.90789  -0.90572  -0.89715  -0.88990
 Alpha  occ. eigenvalues --   -0.88374  -0.88090  -0.87140  -0.86844  -0.85998
 Alpha  occ. eigenvalues --   -0.85244  -0.84445  -0.83765  -0.83055  -0.82895
 Alpha  occ. eigenvalues --   -0.81649  -0.81270  -0.80467  -0.79930  -0.78880
 Alpha  occ. eigenvalues --   -0.77611  -0.77407  -0.76823  -0.76220  -0.75834
 Alpha  occ. eigenvalues --   -0.75456  -0.74854  -0.74618  -0.73603  -0.72064
 Alpha  occ. eigenvalues --   -0.71412  -0.70980  -0.69877  -0.68857  -0.68066
 Alpha  occ. eigenvalues --   -0.67144  -0.66962  -0.65923  -0.65408  -0.64693
 Alpha  occ. eigenvalues --   -0.64601  -0.64042  -0.63879  -0.63825  -0.63654
 Alpha  occ. eigenvalues --   -0.62000  -0.61248  -0.60204  -0.60144  -0.58957
 Alpha  occ. eigenvalues --   -0.58645  -0.58124  -0.57674  -0.56888  -0.56704
 Alpha  occ. eigenvalues --   -0.55704  -0.55432  -0.55395  -0.55170  -0.54765
 Alpha  occ. eigenvalues --   -0.54621  -0.54388  -0.54234  -0.53750  -0.53301
 Alpha  occ. eigenvalues --   -0.53269  -0.52536  -0.52452  -0.52254  -0.52002
 Alpha  occ. eigenvalues --   -0.51588  -0.51398  -0.51329  -0.50891  -0.50746
 Alpha  occ. eigenvalues --   -0.50679  -0.50451  -0.50044  -0.49749  -0.49637
 Alpha  occ. eigenvalues --   -0.49229  -0.48988  -0.48697  -0.48594  -0.48533
 Alpha  occ. eigenvalues --   -0.48389  -0.47969  -0.47926  -0.47585  -0.47454
 Alpha  occ. eigenvalues --   -0.47333  -0.46866  -0.46709  -0.46474  -0.46169
 Alpha  occ. eigenvalues --   -0.45918  -0.45701  -0.45466  -0.45437  -0.45219
 Alpha  occ. eigenvalues --   -0.44780  -0.44589  -0.44369  -0.44173  -0.43965
 Alpha  occ. eigenvalues --   -0.43904  -0.43623  -0.43561  -0.43235  -0.43217
 Alpha  occ. eigenvalues --   -0.43054  -0.42854  -0.42738  -0.42384  -0.42169
 Alpha  occ. eigenvalues --   -0.42024  -0.41563  -0.41515  -0.41368  -0.41089
 Alpha  occ. eigenvalues --   -0.40922  -0.40871  -0.40794  -0.40621  -0.40293
 Alpha  occ. eigenvalues --   -0.40164  -0.40085  -0.40042  -0.39586  -0.39449
 Alpha  occ. eigenvalues --   -0.39344  -0.39012  -0.38466  -0.38192  -0.37751
 Alpha  occ. eigenvalues --   -0.37666  -0.36942  -0.36913  -0.36737  -0.36680
 Alpha  occ. eigenvalues --   -0.36514  -0.36284  -0.35980  -0.35857  -0.35738
 Alpha  occ. eigenvalues --   -0.35682  -0.35191  -0.34466  -0.34176  -0.33844
 Alpha  occ. eigenvalues --   -0.33380  -0.32755  -0.32177  -0.30908  -0.29669
 Alpha  occ. eigenvalues --   -0.29052  -0.28626  -0.28480  -0.28189  -0.23278
 Alpha  occ. eigenvalues --   -0.20686
 Alpha virt. eigenvalues --   -0.06468  -0.02670   0.01886   0.03934   0.05435
 Alpha virt. eigenvalues --    0.05745   0.06351   0.06972   0.07257   0.07606
 Alpha virt. eigenvalues --    0.08554   0.10327   0.10880   0.11286   0.11396

 Mulliken charges:
               1
     1  Mg   0.824407
     2  C    0.033523
     3  C   -0.171456
     4  C   -0.188824
     5  C   -0.176977
     6  N   -0.613480
     7  C    0.299326
     8  C   -0.187095
     9  C   -0.136983
    10  C    0.324572
    11  C   -0.291266
    12  C   -0.151611
    13  C   -0.283420
    14  C    0.600904
    15  O   -0.425287
    16  O   -0.493401
    17  N   -0.690010
    18  C    0.309228
    19  C   -0.004951
    20  C    0.041716
    21  C    0.291653
    22  C   -0.354438
    23  C   -0.089761
    24  C   -0.248359
    25  N   -0.677023
    26  C    0.304674
    27  C   -0.008377
    28  C    0.018004
    29  C    0.291077
    30  C   -0.366331
    31  C   -0.246673
    32  C   -0.299376
    33  N   -0.751652
    34  C    0.211614
    35  C    0.067015
    36  C   -0.030608
    37  C    0.387805
    38  C   -0.387844
    39  C    0.339894
    40  O   -0.450219
    41  C   -0.329800
    42  C    0.650604
    43  O   -0.494927
    44  O   -0.436392
    45  C   -0.089659
    46  C    0.026868
    47  C   -0.128507
    48  C    0.101294
    49  C   -0.341330
    50  C   -0.218476
    51  C   -0.175468
    52  C   -0.171291
    53  C   -0.042735
    54  C   -0.296308
    55  C   -0.168665
    56  C   -0.188284
    57  C   -0.178722
    58  C   -0.053063
    59  C   -0.323516
    60  C   -0.163784
    61  C   -0.200141
    62  C   -0.182195
    63  C   -0.058844
    64  C   -0.314035
    65  C   -0.305011
    66  H    0.035098
    67  H    0.078112
    68  H    0.103490
    69  H    0.136173
    70  H    0.111158
    71  H    0.109311
    72  H    0.107188
    73  H    0.123986
    74  H    0.091168
    75  H    0.111560
    76  H    0.122671
    77  H    0.150991
    78  H    0.126286
    79  H    0.134218
    80  H    0.110187
    81  H    0.096005
    82  H    0.109425
    83  H    0.110494
    84  H    0.137388
    85  H    0.103126
    86  H    0.131530
    87  H    0.117703
    88  H    0.082947
    89  H    0.100392
    90  H    0.122273
    91  H    0.105155
    92  H    0.116788
    93  H    0.130999
    94  H    0.110364
    95  H    0.165167
    96  H    0.136933
    97  H    0.126562
    98  H    0.124476
    99  H    0.133553
   100  H    0.107258
   101  H    0.081188
   102  H    0.072048
   103  H    0.121095
   104  H    0.131773
   105  H    0.116594
   106  H    0.106337
   107  H    0.107576
   108  H    0.025862
   109  H    0.086809
   110  H    0.092699
   111  H    0.093485
   112  H    0.065258
   113  H    0.121698
   114  H    0.104520
   115  H    0.066337
   116  H    0.080245
   117  H    0.096170
   118  H    0.092274
   119  H    0.088565
   120  H    0.079694
   121  H    0.097224
   122  H    0.084842
   123  H    0.093251
   124  H    0.106996
   125  H    0.082457
   126  H    0.102447
   127  H    0.094667
   128  H    0.087814
   129  H    0.087444
   130  H    0.093647
   131  H    0.092363
   132  H    0.080074
   133  H    0.104663
   134  H    0.103959
   135  H    0.098742
   136  H    0.079885
   137  H    0.121563
 Sum of Mulliken charges =   0.00000

 Dipole moment (field-independent basis, Debye):
    X=              1.3098    Y=              5.0656    Z=              0.2366  Tot=              5.2376
 Quadrupole moment (field-independent basis, Debye-Ang):
   XX=           -354.4786   YY=           -391.0941   ZZ=           -396.6736
   XY=            -32.1931   XZ=             12.5532   YZ=             -7.6634

 Normal termination of Gaussian 09 at Mon Jul  1 11:08:01 2019.
