 Gaussian 09, Revision D.01,
 Gaussian 09:  ES64L-G09RevD.01 24-Apr-2013

 -------------------------------------
 # td=(NStates=1) CAM-B3LYP/6-31G(d,p)
 -------------------------------------

 --
 TD
 --
 Symbolic Z-matrix:
 Charge =  0 Multiplicity = 1

                         Standard orientation:
 ---------------------------------------------------------------------
 Center     Atomic      Atomic             Coordinates (Angstroms)
 Number     Number       Type             X           Y           Z
 ---------------------------------------------------------------------
      1         12           0       -7.148701    0.612928    0.102777
      2          6           0       -4.932049   -1.908386    0.507802
      3          6           0       -4.750279    2.841415    1.081610
      4          6           0       -9.397636    3.145726   -0.290422
      5          6           0       -9.518153   -1.708660   -0.881151
      6          7           0       -5.161719    0.415981    0.746376
      7          6           0       -4.328406   -0.685296    0.826916
      8          6           0       -2.938908   -0.397366    1.309366
      9          6           0       -3.061459    1.050498    1.672597
     10          6           0       -4.383985    1.465510    1.098319
     11          6           0       -3.063389    1.177892    3.145488
     12          6           0       -1.890423   -0.689227    0.171133
     13          6           0       -0.413969   -0.232539    0.538326
     14          6           0        0.440138   -0.567821   -0.556404
     15          8           0        0.203220   -1.024139   -1.693983
     16          8           0        1.775158   -0.371621   -0.172970
     17          7           0       -7.128358    2.680828    0.405392
     18          6           0       -6.049963    3.376063    0.778804
     19          6           0       -6.380851    4.808114    0.858636
     20          6           0       -7.680582    4.816155    0.457322
     21          6           0       -8.143589    3.462812    0.166722
     22          6           0       -5.453864    5.791182    1.387597
     23          6           0       -8.603057    6.096963    0.443896
     24          6           0       -8.235230    7.336109    0.065181
     25          7           0       -9.077954    0.697240   -0.538955
     26          6           0       -9.893268    1.832483   -0.621207
     27          6           0      -11.246718    1.430683   -1.055073
     28          6           0      -11.218271    0.095166   -1.183777
     29          6           0       -9.879866   -0.384424   -0.887714
     30          6           0      -12.280733    2.378922   -1.422210
     31          6           0      -12.412152   -0.698908   -1.588059
     32          6           0      -12.486605   -0.892609   -3.203338
     33          7           0       -7.175230   -1.390710   -0.130979
     34          6           0       -8.306186   -2.194576   -0.504035
     35          6           0       -7.883203   -3.597688   -0.470324
     36          6           0       -6.531678   -3.543996   -0.129893
     37          6           0       -6.192180   -2.209409    0.035603
     38          6           0       -8.721681   -4.873176   -0.799933
     39          6           0       -5.355182   -4.411994    0.096232
     40          8           0       -5.205211   -5.632110    0.111165
     41          6           0       -4.216612   -3.339203    0.470165
     42          6           0       -3.580185   -3.780495    1.784241
     43          8           0       -3.682633   -3.214690    2.852726
     44          8           0       -2.778547   -4.803990    1.576867
     45          6           0       -2.192319   -5.400149    2.703552
     46          6           0        2.792268   -0.660501   -1.143718
     47          6           0        4.028891   -0.416265   -0.471856
     48          6           0        5.030445    0.360962   -1.005116
     49          6           0        5.054663    1.146896   -2.233434
     50          6           0        6.433097    0.407769   -0.227684
     51          6           0        7.688112   -0.097210   -0.860304
     52          6           0        8.905639    0.021128   -0.077004
     53          6           0       10.274760   -0.435697   -0.912976
     54          6           0       10.026364   -1.896586   -1.457455
     55          6           0       11.418933   -0.278397    0.080755
     56          6           0       12.811432   -0.411022   -0.624154
     57          6           0       14.056378   -0.102632    0.173638
     58          6           0       15.371994   -0.217392   -0.514020
     59          6           0       15.734634   -1.576210   -0.888665
     60          6           0       16.450991    0.312882    0.491235
     61          6           0       17.837014    0.374051   -0.216728
     62          6           0       18.849489    1.245215    0.601422
     63          6           0       20.333276    1.331412    0.197666
     64          6           0       20.478199    2.216772   -1.059828
     65          6           0       21.248173    1.805530    1.346211
     66          1           0       -4.055191    3.595551    1.263292
     67          1           0      -10.210149    3.915658   -0.181495
     68          1           0      -10.240838   -2.420691   -0.955547
     69          1           0       -2.676901   -1.073383    2.134023
     70          1           0       -1.967717    1.646656    1.358164
     71          1           0       -2.071318    0.663749    3.551563
     72          1           0       -3.002344    2.059094    3.617634
     73          1           0       -3.859918    0.643455    3.572344
     74          1           0       -1.875964   -1.823906    0.002814
     75          1           0       -2.311896   -0.236926   -0.995501
     76          1           0       -0.390169    0.839825    0.899827
     77          1           0       -0.184182   -0.788858    1.427774
     78          1           0       -4.365825    5.739653    0.607183
     79          1           0       -6.108277    6.904448    1.361523
     80          1           0       -5.103802    5.651314    2.464534
     81          1           0       -9.691488    5.965788    0.559371
     82          1           0       -9.048028    8.117867   -0.012732
     83          1           0       -7.031351    7.316655   -0.242743
     84          1           0      -12.093850    3.132575   -2.286421
     85          1           0      -13.135051    1.802715   -1.705644
     86          1           0      -12.806168    3.217231   -0.754661
     87          1           0      -12.270100   -1.671111   -1.260834
     88          1           0      -13.355336   -0.327759   -1.183462
     89          1           0      -13.351225   -1.610706   -3.671451
     90          1           0      -12.478152   -0.019123   -3.724528
     91          1           0      -11.531832   -1.513971   -3.383998
     92          1           0       -8.603008   -5.246070   -1.949338
     93          1           0       -8.325741   -5.862523   -0.259664
     94          1           0       -9.990732   -4.512076   -0.278989
     95          1           0       -3.476524   -3.493721   -0.265005
     96          1           0       -1.580656   -4.717007    3.487397
     97          1           0       -2.932192   -5.709746    3.395119
     98          1           0       -1.607864   -6.245840    2.383541
     99          1           0        2.814562   -1.658009   -1.443911
    100          1           0        2.648489   -0.073392   -2.111793
    101          1           0        4.376057   -1.046459    0.419088
    102          1           0        3.942772    1.143924   -2.693930
    103          1           0        5.344712    2.088933   -2.289203
    104          1           0        5.750737    0.566336   -3.026330
    105          1           0        6.597980    1.429937    0.024437
    106          1           0        6.230024   -0.196607    0.749811
    107          1           0        7.726323   -0.968489   -1.199885
    108          1           0        7.955741    0.517578   -1.764587
    109          1           0        9.065539    1.092925    0.225315
    110          1           0        8.917221   -0.750850    0.726471
    111          1           0       10.402242    0.415260   -1.637656
    112          1           0        9.048251   -2.073415   -2.073150
    113          1           0       10.828235   -2.362156   -1.964117
    114          1           0        9.870695   -2.665867   -0.685417
    115          1           0       11.367294    0.723890    0.369904
    116          1           0       11.480829   -0.957383    1.020848
    117          1           0       12.841872   -1.514508   -0.952487
    118          1           0       12.742370    0.283978   -1.499639
    119          1           0       14.108887    0.952749    0.770563
    120          1           0       14.031653   -0.993567    1.060393
    121          1           0       15.454031    0.385182   -1.382949
    122          1           0       15.645710   -2.297770   -0.017804
    123          1           0       15.034875   -2.028566   -1.690791
    124          1           0       16.742499   -1.900864   -1.329856
    125          1           0       16.100786    1.311396    0.755740
    126          1           0       16.544123   -0.360519    1.387910
    127          1           0       18.309167   -0.666709   -0.260071
    128          1           0       17.717378    0.828664   -1.354181
    129          1           0       18.318382    2.208071    0.792092
    130          1           0       18.843416    0.911981    1.654615
    131          1           0       20.612453    0.430719    0.007165
    132          1           0       20.135318    3.093957   -0.752823
    133          1           0       21.510973    2.264326   -1.356136
    134          1           0       19.782479    1.727996   -1.694289
    135          1           0       21.173003    1.151082    2.252603
    136          1           0       22.203230    2.053552    1.144225
    137          1           0       20.751259    2.864915    1.625408
 ---------------------------------------------------------------------

 SCF Done:  E(RCAM-B3LYP) =  -2932.63624563     A.U. after   18 cycles

 Excitation energies and oscillator strengths:

 Excited State   1:      Singlet-A      2.1010 eV  590.13 nm  f=0.2230  <S**2>=0.000
     240 -> 243        0.26140
     241 -> 242        0.64819
 This state for optimization and/or second-order correction.
 Total Energy, E(TD-HF/TD-KS) =  -2932.55903639
 Copying the excited state density for this state as the 1-particle RhoCI density.

 The electronic state is 1-A.
 Alpha  occ. eigenvalues --  -46.84610 -19.26864 -19.25075 -19.21389 -19.20758
 Alpha  occ. eigenvalues --  -19.20345 -14.42500 -14.39937 -14.39462 -14.39161
 Alpha  occ. eigenvalues --  -10.39682 -10.38839 -10.35559 -10.31815 -10.31428
 Alpha  occ. eigenvalues --  -10.31347 -10.31220 -10.30526 -10.30311 -10.30257
 Alpha  occ. eigenvalues --  -10.29839 -10.29800 -10.29362 -10.29185 -10.29130
 Alpha  occ. eigenvalues --  -10.29003 -10.28794 -10.28733 -10.28023 -10.27973
 Alpha  occ. eigenvalues --  -10.27919 -10.27884 -10.27858 -10.27808 -10.27692
 Alpha  occ. eigenvalues --  -10.27641 -10.27581 -10.27250 -10.27036 -10.26877
 Alpha  occ. eigenvalues --  -10.26844 -10.26810 -10.26657 -10.26463 -10.26422
 Alpha  occ. eigenvalues --  -10.26321 -10.26151 -10.26064 -10.26038 -10.25944
 Alpha  occ. eigenvalues --  -10.25827 -10.25716 -10.25665 -10.25459 -10.25300
 Alpha  occ. eigenvalues --  -10.25219 -10.25128 -10.25122 -10.25068 -10.25049
 Alpha  occ. eigenvalues --  -10.24751 -10.24418 -10.24117 -10.23019 -10.22266
 Alpha  occ. eigenvalues --   -3.13671  -1.88381  -1.87909  -1.87849  -1.19776
 Alpha  occ. eigenvalues --   -1.16099  -1.10326  -1.09229  -1.07520  -1.06147
 Alpha  occ. eigenvalues --   -1.05325  -1.04241  -1.02030  -0.91798  -0.91347
 Alpha  occ. eigenvalues --   -0.91146  -0.90764  -0.89405  -0.89323  -0.88818
 Alpha  occ. eigenvalues --   -0.88692  -0.88419  -0.88045  -0.87399  -0.86748
 Alpha  occ. eigenvalues --   -0.85801  -0.84410  -0.83613  -0.82788  -0.82552
 Alpha  occ. eigenvalues --   -0.81983  -0.81680  -0.80588  -0.79806  -0.78536
 Alpha  occ. eigenvalues --   -0.77380  -0.76581  -0.76124  -0.75940  -0.75831
 Alpha  occ. eigenvalues --   -0.75381  -0.74670  -0.74414  -0.72973  -0.72186
 Alpha  occ. eigenvalues --   -0.71795  -0.70542  -0.70191  -0.69070  -0.67887
 Alpha  occ. eigenvalues --   -0.66375  -0.65452  -0.65420  -0.64722  -0.64648
 Alpha  occ. eigenvalues --   -0.64323  -0.63511  -0.63138  -0.62621  -0.62559
 Alpha  occ. eigenvalues --   -0.62209  -0.61191  -0.60557  -0.59694  -0.59584
 Alpha  occ. eigenvalues --   -0.59232  -0.58381  -0.57707  -0.57572  -0.57130
 Alpha  occ. eigenvalues --   -0.56642  -0.55934  -0.55650  -0.55613  -0.55128
 Alpha  occ. eigenvalues --   -0.54664  -0.54503  -0.54137  -0.53525  -0.52794
 Alpha  occ. eigenvalues --   -0.52667  -0.52417  -0.52337  -0.52244  -0.51608
 Alpha  occ. eigenvalues --   -0.51424  -0.51295  -0.50855  -0.50774  -0.50389
 Alpha  occ. eigenvalues --   -0.50248  -0.49759  -0.49736  -0.49604  -0.49265
 Alpha  occ. eigenvalues --   -0.49054  -0.48899  -0.48796  -0.48611  -0.47960
 Alpha  occ. eigenvalues --   -0.47894  -0.47772  -0.47693  -0.47130  -0.46952
 Alpha  occ. eigenvalues --   -0.46766  -0.46560  -0.46536  -0.46076  -0.45788
 Alpha  occ. eigenvalues --   -0.45633  -0.45277  -0.45034  -0.44809  -0.44601
 Alpha  occ. eigenvalues --   -0.44454  -0.44326  -0.44189  -0.44108  -0.43808
 Alpha  occ. eigenvalues --   -0.43741  -0.43470  -0.43368  -0.43313  -0.43167
 Alpha  occ. eigenvalues --   -0.42997  -0.42548  -0.42399  -0.42342  -0.42240
 Alpha  occ. eigenvalues --   -0.42143  -0.42112  -0.41877  -0.41740  -0.41365
 Alpha  occ. eigenvalues --   -0.41183  -0.41023  -0.40708  -0.40496  -0.40018
 Alpha  occ. eigenvalues --   -0.39691  -0.39591  -0.39417  -0.39405  -0.39281
 Alpha  occ. eigenvalues --   -0.39115  -0.38841  -0.38624  -0.38368  -0.38167
 Alpha  occ. eigenvalues --   -0.37781  -0.37295  -0.37198  -0.37013  -0.36785
 Alpha  occ. eigenvalues --   -0.36398  -0.36344  -0.35884  -0.35610  -0.35449
 Alpha  occ. eigenvalues --   -0.35298  -0.35272  -0.34741  -0.33959  -0.33838
 Alpha  occ. eigenvalues --   -0.33453  -0.33118  -0.32675  -0.31035  -0.29972
 Alpha  occ. eigenvalues --   -0.29843  -0.29112  -0.28583  -0.28234  -0.23373
 Alpha  occ. eigenvalues --   -0.21463
 Alpha virt. eigenvalues --   -0.06382  -0.03238   0.01284   0.03766   0.04431
 Alpha virt. eigenvalues --    0.05603   0.06107   0.06197   0.06723   0.06924
 Alpha virt. eigenvalues --    0.08039   0.08594   0.10258   0.10503   0.11136

 Mulliken charges:
               1
     1  Mg   0.821304
     2  C    0.035802
     3  C   -0.195868
     4  C   -0.177983
     5  C   -0.129035
     6  N   -0.634803
     7  C    0.305073
     8  C   -0.140125
     9  C   -0.143030
    10  C    0.370337
    11  C   -0.289952
    12  C   -0.175155
    13  C   -0.275321
    14  C    0.638477
    15  O   -0.486881
    16  O   -0.502791
    17  N   -0.719298
    18  C    0.297576
    19  C    0.086449
    20  C   -0.056178
    21  C    0.371231
    22  C   -0.366188
    23  C   -0.070557
    24  C   -0.253169
    25  N   -0.701586
    26  C    0.257868
    27  C    0.069789
    28  C    0.027795
    29  C    0.295690
    30  C   -0.397364
    31  C   -0.254241
    32  C   -0.306945
    33  N   -0.732578
    34  C    0.234116
    35  C    0.022676
    36  C    0.021904
    37  C    0.320173
    38  C   -0.337065
    39  C    0.365538
    40  O   -0.465673
    41  C   -0.342155
    42  C    0.620023
    43  O   -0.486296
    44  O   -0.414551
    45  C   -0.090169
    46  C    0.025643
    47  C   -0.130630
    48  C    0.117641
    49  C   -0.350356
    50  C   -0.216395
    51  C   -0.138835
    52  C   -0.182672
    53  C   -0.064835
    54  C   -0.335434
    55  C   -0.162563
    56  C   -0.180533
    57  C   -0.145942
    58  C   -0.038690
    59  C   -0.309378
    60  C   -0.170849
    61  C   -0.173824
    62  C   -0.190075
    63  C   -0.059880
    64  C   -0.296294
    65  C   -0.308261
    66  H    0.073365
    67  H    0.098066
    68  H    0.082589
    69  H    0.148078
    70  H    0.071725
    71  H    0.078751
    72  H    0.119932
    73  H    0.132829
    74  H    0.118321
    75  H    0.092567
    76  H    0.146835
    77  H    0.161016
    78  H    0.080182
    79  H    0.094695
    80  H    0.133229
    81  H    0.090283
    82  H    0.117110
    83  H    0.105049
    84  H    0.118625
    85  H    0.116057
    86  H    0.099484
    87  H    0.110780
    88  H    0.112119
    89  H    0.081626
    90  H    0.128211
    91  H    0.100238
    92  H    0.129475
    93  H    0.143396
    94  H    0.063638
    95  H    0.164286
    96  H    0.101750
    97  H    0.136385
    98  H    0.128842
    99  H    0.130065
   100  H    0.113368
   101  H    0.092000
   102  H    0.083017
   103  H    0.133235
   104  H    0.107305
   105  H    0.102139
   106  H    0.075833
   107  H    0.096785
   108  H    0.071646
   109  H    0.079073
   110  H    0.088576
   111  H    0.087834
   112  H    0.097097
   113  H    0.112173
   114  H    0.106723
   115  H    0.099812
   116  H    0.081468
   117  H    0.092621
   118  H    0.080482
   119  H    0.067657
   120  H    0.051317
   121  H    0.095701
   122  H    0.089847
   123  H    0.084570
   124  H    0.102042
   125  H    0.091135
   126  H    0.096457
   127  H    0.092764
   128  H    0.067943
   129  H    0.079805
   130  H    0.083896
   131  H    0.095336
   132  H    0.111353
   133  H    0.096349
   134  H    0.102550
   135  H    0.096050
   136  H    0.111301
   137  H    0.068440
 Sum of Mulliken charges =   0.00000

 Dipole moment (field-independent basis, Debye):
    X=              1.0554    Y=              3.5097    Z=              0.7130  Tot=              3.7337
 Quadrupole moment (field-independent basis, Debye-Ang):
   XX=           -347.8076   YY=           -393.6606   ZZ=           -401.5222
   XY=            -28.2739   XZ=              5.1932   YZ=             -1.7701

 Normal termination of Gaussian 09 at Fri Jun 28 00:41:29 2019.
