 Gaussian 09, Revision D.01,
 Gaussian 09:  ES64L-G09RevD.01 24-Apr-2013

 -------------------------------------
 # td=(NStates=1) CAM-B3LYP/6-31G(d,p)
 -------------------------------------

 --
 TD
 --
 Symbolic Z-matrix:
 Charge =  0 Multiplicity = 1

                         Standard orientation:
 ---------------------------------------------------------------------
 Center     Atomic      Atomic             Coordinates (Angstroms)
 Number     Number       Type             X           Y           Z
 ---------------------------------------------------------------------
      1         12           0       -7.125419    0.626915    0.148408
      2          6           0       -4.868521   -1.937528    0.440421
      3          6           0       -4.903433    2.807144    1.277230
      4          6           0       -9.356272    3.048199   -0.405874
      5          6           0       -9.487493   -1.735301   -0.944789
      6          7           0       -5.062533    0.447501    0.753559
      7          6           0       -4.308923   -0.724921    0.883765
      8          6           0       -2.877679   -0.394788    1.364832
      9          6           0       -2.958468    1.019108    1.717416
     10          6           0       -4.401879    1.460545    1.186281
     11          6           0       -2.881152    1.256411    3.297267
     12          6           0       -1.994200   -0.601770    0.153198
     13          6           0       -0.543523   -0.494396    0.510980
     14          6           0        0.495486   -0.552589   -0.519746
     15          8           0        0.226401   -0.974688   -1.675045
     16          8           0        1.754440   -0.552488   -0.156241
     17          7           0       -7.085110    2.594382    0.383848
     18          6           0       -6.032415    3.390169    0.827401
     19          6           0       -6.468420    4.800985    0.874818
     20          6           0       -7.667195    4.841264    0.339041
     21          6           0       -8.119676    3.441812    0.047771
     22          6           0       -5.580350    5.917601    1.447428
     23          6           0       -8.600033    6.046344    0.270158
     24          6           0       -8.288731    7.339597    0.025055
     25          7           0       -9.169219    0.635705   -0.479330
     26          6           0       -9.870047    1.755744   -0.645604
     27          6           0      -11.253568    1.423228   -1.101295
     28          6           0      -11.220098    0.175048   -1.252106
     29          6           0       -9.914045   -0.359219   -0.933277
     30          6           0      -12.362167    2.567863   -1.309302
     31          6           0      -12.444948   -0.731522   -1.729852
     32          6           0      -12.325105   -1.190088   -3.160566
     33          7           0       -7.271943   -1.336175   -0.160573
     34          6           0       -8.339790   -2.220150   -0.545405
     35          6           0       -7.912269   -3.554041   -0.403412
     36          6           0       -6.624146   -3.559779   -0.107388
     37          6           0       -6.227250   -2.206961    0.133017
     38          6           0       -8.758900   -4.777388   -0.918703
     39          6           0       -5.338022   -4.434046    0.149697
     40          8           0       -5.188654   -5.599453    0.161024
     41          6           0       -4.235301   -3.295669    0.471510
     42          6           0       -3.507115   -3.762726    1.785370
     43          8           0       -3.779158   -3.371082    2.909528
     44          8           0       -2.570287   -4.701191    1.523106
     45          6           0       -2.086608   -5.248645    2.783693
     46          6           0        2.800733   -0.506217   -1.195465
     47          6           0        4.089544   -0.393374   -0.551489
     48          6           0        5.149952    0.325330   -0.967461
     49          6           0        5.177781    1.145783   -2.263970
     50          6           0        6.465035    0.405167   -0.155973
     51          6           0        7.692616   -0.074659   -0.980222
     52          6           0        9.042949   -0.099482   -0.107089
     53          6           0       10.291986   -0.606405   -0.794534
     54          6           0       10.032350   -2.026074   -1.074209
     55          6           0       11.515784   -0.292608    0.017947
     56          6           0       12.807470   -0.517139   -0.657017
     57          6           0       13.978627   -0.214221    0.207916
     58          6           0       15.338814   -0.243148   -0.480188
     59          6           0       15.695341   -1.654626   -1.016549
     60          6           0       16.396277    0.342330    0.436357
     61          6           0       17.743229    0.583948   -0.237174
     62          6           0       18.833972    1.282021    0.691794
     63          6           0       20.256326    1.373070    0.152734
     64          6           0       20.288063    2.269354   -1.091345
     65          6           0       21.120065    1.884453    1.294223
     66          1           0       -4.224975    3.532274    1.704619
     67          1           0      -10.051015    4.023960   -0.537051
     68          1           0      -10.365984   -2.309603   -1.416759
     69          1           0       -2.577514   -1.117562    2.083869
     70          1           0       -2.110567    1.708418    1.407945
     71          1           0       -1.875377    0.967837    3.670993
     72          1           0       -2.930340    2.284288    3.465608
     73          1           0       -3.514776    0.748680    3.674736
     74          1           0       -2.236498   -1.601286   -0.418427
     75          1           0       -2.068166    0.217997   -0.554735
     76          1           0       -0.469752    0.453173    0.942554
     77          1           0       -0.365108   -1.409972    1.245604
     78          1           0       -5.017648    6.236964    0.448227
     79          1           0       -6.252499    6.753411    1.818113
     80          1           0       -4.836910    5.591233    2.172309
     81          1           0       -9.642585    5.712991    0.504813
     82          1           0       -8.965319    8.144352   -0.138193
     83          1           0       -7.249587    7.461334   -0.114106
     84          1           0      -12.123892    3.209588   -2.245740
     85          1           0      -13.177769    2.069490   -1.532562
     86          1           0      -12.600073    3.141451   -0.554409
     87          1           0      -12.739280   -1.555492   -0.914435
     88          1           0      -13.460122   -0.174768   -1.579009
     89          1           0      -13.030627   -1.879990   -3.442787
     90          1           0      -12.109881   -0.345959   -3.869293
     91          1           0      -11.344045   -1.739421   -3.320944
     92          1           0       -8.955553   -4.647608   -2.077680
     93          1           0       -8.183087   -5.771203   -0.989866
     94          1           0       -9.607602   -5.032532   -0.392550
     95          1           0       -3.431387   -3.425631   -0.337966
     96          1           0       -1.288294   -4.528253    3.187647
     97          1           0       -2.855811   -5.309932    3.583181
     98          1           0       -1.738970   -6.213746    2.693119
     99          1           0        2.826064   -1.406892   -1.808684
    100          1           0        2.573041    0.400319   -2.099258
    101          1           0        4.072223   -0.845478    0.450487
    102          1           0        4.220377    1.079786   -2.900530
    103          1           0        5.423392    1.985055   -2.073514
    104          1           0        5.807043    0.614393   -2.966118
    105          1           0        6.742489    1.360478    0.201342
    106          1           0        6.462037   -0.129453    0.719777
    107          1           0        7.575040   -0.869695   -1.206323
    108          1           0        7.968241    0.642540   -1.749212
    109          1           0        9.289867    1.010383    0.247045
    110          1           0        8.722412   -0.627794    0.891910
    111          1           0       10.277700    0.022762   -1.758365
    112          1           0        9.265824   -2.324529   -1.669056
    113          1           0       11.052965   -2.530060   -1.783466
    114          1           0        9.981309   -2.481666   -0.114020
    115          1           0       11.477488    0.730775    0.471659
    116          1           0       11.481426   -0.869958    0.972239
    117          1           0       12.672250   -1.580420   -0.910066
    118          1           0       12.759669    0.140946   -1.536539
    119          1           0       13.872243    0.907357    0.411993
    120          1           0       13.875698   -0.726037    1.272816
    121          1           0       15.341297    0.410755   -1.280939
    122          1           0       16.176146   -2.396297   -0.306735
    123          1           0       14.748363   -2.128168   -1.645646
    124          1           0       16.475037   -1.525786   -1.687945
    125          1           0       16.107864    1.399886    0.880270
    126          1           0       16.467336   -0.319302    1.392122
    127          1           0       18.022095   -0.351034   -0.448200
    128          1           0       17.865305    0.982384   -1.202949
    129          1           0       18.389331    2.284058    0.505194
    130          1           0       18.883151    0.878794    1.638208
    131          1           0       20.594987    0.331684   -0.163276
    132          1           0       19.866369    3.260071   -0.829057
    133          1           0       21.320459    2.241321   -1.618412
    134          1           0       19.931277    1.927298   -2.027846
    135          1           0       21.057896    1.280126    2.276104
    136          1           0       22.258189    1.845400    0.918526
    137          1           0       20.853897    2.901636    1.583357
 ---------------------------------------------------------------------

 SCF Done:  E(RCAM-B3LYP) =  -2932.58706220     A.U. after   18 cycles

 Excitation energies and oscillator strengths:

 Excited State   1:      Singlet-A      2.1504 eV  576.57 nm  f=0.2025  <S**2>=0.000
     240 -> 243       -0.27609
     241 -> 242        0.64575
 This state for optimization and/or second-order correction.
 Total Energy, E(TD-HF/TD-KS) =  -2932.50803714
 Copying the excited state density for this state as the 1-particle RhoCI density.

 The electronic state is 1-A.
 Alpha  occ. eigenvalues --  -46.84219 -19.27324 -19.26882 -19.22296 -19.21112
 Alpha  occ. eigenvalues --  -19.18960 -14.42259 -14.39215 -14.38993 -14.38680
 Alpha  occ. eigenvalues --  -10.39729 -10.38689 -10.36794 -10.33526 -10.31847
 Alpha  occ. eigenvalues --  -10.31403 -10.31031 -10.29731 -10.29435 -10.29254
 Alpha  occ. eigenvalues --  -10.28973 -10.28761 -10.28250 -10.28123 -10.28062
 Alpha  occ. eigenvalues --  -10.27947 -10.27792 -10.27744 -10.27679 -10.27596
 Alpha  occ. eigenvalues --  -10.27552 -10.27551 -10.27293 -10.27209 -10.27079
 Alpha  occ. eigenvalues --  -10.26874 -10.26861 -10.26788 -10.26622 -10.26455
 Alpha  occ. eigenvalues --  -10.26270 -10.26245 -10.26042 -10.26028 -10.25848
 Alpha  occ. eigenvalues --  -10.25822 -10.25622 -10.25592 -10.25411 -10.25337
 Alpha  occ. eigenvalues --  -10.25226 -10.25219 -10.25194 -10.25176 -10.24982
 Alpha  occ. eigenvalues --  -10.24902 -10.24858 -10.24648 -10.24558 -10.24555
 Alpha  occ. eigenvalues --  -10.24113 -10.24075 -10.23902 -10.23407 -10.23112
 Alpha  occ. eigenvalues --   -3.13290  -1.87990  -1.87551  -1.87453  -1.18492
 Alpha  occ. eigenvalues --   -1.18419  -1.14524  -1.08966  -1.05956  -1.05569
 Alpha  occ. eigenvalues --   -1.04748  -1.02567  -1.02031  -0.92519  -0.92174
 Alpha  occ. eigenvalues --   -0.91707  -0.90927  -0.90143  -0.88911  -0.88751
 Alpha  occ. eigenvalues --   -0.88315  -0.87661  -0.87170  -0.86725  -0.86300
 Alpha  occ. eigenvalues --   -0.85989  -0.84419  -0.83820  -0.82992  -0.82608
 Alpha  occ. eigenvalues --   -0.82174  -0.81128  -0.80876  -0.80666  -0.78937
 Alpha  occ. eigenvalues --   -0.78229  -0.77374  -0.76617  -0.76081  -0.76079
 Alpha  occ. eigenvalues --   -0.75478  -0.75298  -0.74302  -0.73660  -0.72233
 Alpha  occ. eigenvalues --   -0.71818  -0.71220  -0.69829  -0.68885  -0.68031
 Alpha  occ. eigenvalues --   -0.67825  -0.66635  -0.66174  -0.65104  -0.64482
 Alpha  occ. eigenvalues --   -0.63741  -0.63387  -0.63120  -0.62743  -0.62003
 Alpha  occ. eigenvalues --   -0.61695  -0.61168  -0.59962  -0.59634  -0.59285
 Alpha  occ. eigenvalues --   -0.58590  -0.58169  -0.57561  -0.57074  -0.57035
 Alpha  occ. eigenvalues --   -0.56302  -0.55941  -0.55586  -0.55400  -0.55247
 Alpha  occ. eigenvalues --   -0.55042  -0.54704  -0.54564  -0.54294  -0.53684
 Alpha  occ. eigenvalues --   -0.53278  -0.53167  -0.52932  -0.52485  -0.52069
 Alpha  occ. eigenvalues --   -0.51728  -0.51454  -0.51341  -0.51132  -0.50920
 Alpha  occ. eigenvalues --   -0.50637  -0.50547  -0.50105  -0.49851  -0.49580
 Alpha  occ. eigenvalues --   -0.49432  -0.49330  -0.49183  -0.48897  -0.48732
 Alpha  occ. eigenvalues --   -0.48675  -0.47998  -0.47876  -0.47606  -0.47353
 Alpha  occ. eigenvalues --   -0.47162  -0.46588  -0.46434  -0.46110  -0.46026
 Alpha  occ. eigenvalues --   -0.45943  -0.45687  -0.45495  -0.45377  -0.45163
 Alpha  occ. eigenvalues --   -0.44961  -0.44783  -0.44443  -0.44294  -0.44141
 Alpha  occ. eigenvalues --   -0.44010  -0.43816  -0.43415  -0.43257  -0.43203
 Alpha  occ. eigenvalues --   -0.43069  -0.42975  -0.42861  -0.42640  -0.42477
 Alpha  occ. eigenvalues --   -0.42425  -0.42328  -0.42152  -0.41552  -0.41347
 Alpha  occ. eigenvalues --   -0.41064  -0.40773  -0.40531  -0.40468  -0.40256
 Alpha  occ. eigenvalues --   -0.40011  -0.39607  -0.39434  -0.39261  -0.39096
 Alpha  occ. eigenvalues --   -0.38856  -0.38458  -0.38308  -0.37947  -0.37839
 Alpha  occ. eigenvalues --   -0.37490  -0.37387  -0.37091  -0.37014  -0.36817
 Alpha  occ. eigenvalues --   -0.36514  -0.36366  -0.36227  -0.36162  -0.35133
 Alpha  occ. eigenvalues --   -0.35078  -0.34935  -0.34565  -0.34055  -0.33596
 Alpha  occ. eigenvalues --   -0.33559  -0.32774  -0.31817  -0.31098  -0.30569
 Alpha  occ. eigenvalues --   -0.30250  -0.29590  -0.29286  -0.28570  -0.23456
 Alpha  occ. eigenvalues --   -0.20132
 Alpha virt. eigenvalues --   -0.04780  -0.02970   0.02019   0.04461   0.04695
 Alpha virt. eigenvalues --    0.06153   0.06408   0.06609   0.06721   0.07710
 Alpha virt. eigenvalues --    0.08332   0.11228   0.11317   0.11540   0.12169

 Mulliken charges:
               1
     1  Mg   0.819744
     2  C    0.071177
     3  C   -0.240098
     4  C   -0.201898
     5  C   -0.192433
     6  N   -0.606382
     7  C    0.255934
     8  C   -0.114032
     9  C   -0.174477
    10  C    0.370956
    11  C   -0.288053
    12  C   -0.172842
    13  C   -0.251573
    14  C    0.585609
    15  O   -0.496438
    16  O   -0.465279
    17  N   -0.735622
    18  C    0.322476
    19  C    0.045551
    20  C   -0.021839
    21  C    0.334304
    22  C   -0.359626
    23  C   -0.076252
    24  C   -0.249091
    25  N   -0.658652
    26  C    0.263698
    27  C    0.029973
    28  C   -0.001662
    29  C    0.272025
    30  C   -0.337494
    31  C   -0.236750
    32  C   -0.304957
    33  N   -0.711301
    34  C    0.312023
    35  C   -0.026326
    36  C    0.010409
    37  C    0.252099
    38  C   -0.370581
    39  C    0.414270
    40  O   -0.404898
    41  C   -0.341924
    42  C    0.616531
    43  O   -0.481898
    44  O   -0.445370
    45  C   -0.095791
    46  C    0.039275
    47  C   -0.153350
    48  C    0.096472
    49  C   -0.336221
    50  C   -0.238607
    51  C   -0.126685
    52  C   -0.202625
    53  C   -0.047224
    54  C   -0.275768
    55  C   -0.178571
    56  C   -0.157772
    57  C   -0.164197
    58  C   -0.042998
    59  C   -0.315847
    60  C   -0.171026
    61  C   -0.202390
    62  C   -0.162507
    63  C   -0.049963
    64  C   -0.315333
    65  C   -0.295835
    66  H    0.060450
    67  H    0.079110
    68  H    0.101778
    69  H    0.128110
    70  H    0.103909
    71  H    0.099469
    72  H    0.111096
    73  H    0.128593
    74  H    0.114053
    75  H    0.117747
    76  H    0.123895
    77  H    0.125947
    78  H    0.117637
    79  H    0.128241
    80  H    0.123768
    81  H    0.095931
    82  H    0.117390
    83  H    0.101833
    84  H    0.107636
    85  H    0.118982
    86  H    0.128674
    87  H    0.089656
    88  H    0.089349
    89  H    0.116598
    90  H    0.113375
    91  H    0.096355
    92  H    0.110601
    93  H    0.126334
    94  H    0.131835
    95  H    0.156132
    96  H    0.112280
    97  H    0.148590
    98  H    0.132600
    99  H    0.147354
   100  H    0.092537
   101  H    0.103917
   102  H    0.091407
   103  H    0.124591
   104  H    0.128334
   105  H    0.107235
   106  H    0.103294
   107  H    0.085967
   108  H    0.097369
   109  H    0.064424
   110  H    0.068096
   111  H    0.074001
   112  H    0.123172
   113  H    0.036525
   114  H    0.110910
   115  H    0.081608
   116  H    0.080296
   117  H    0.098494
   118  H    0.088591
   119  H    0.078519
   120  H    0.076297
   121  H    0.097994
   122  H    0.097279
   123  H    0.084421
   124  H    0.111172
   125  H    0.066590
   126  H    0.080102
   127  H    0.098291
   128  H    0.093429
   129  H    0.090452
   130  H    0.091041
   131  H    0.077306
   132  H    0.105168
   133  H    0.080469
   134  H    0.111768
   135  H    0.093617
   136  H    0.080843
   137  H    0.107095
 Sum of Mulliken charges =   0.00000

 Dipole moment (field-independent basis, Debye):
    X=              2.6085    Y=              4.3386    Z=              0.6314  Tot=              5.1016
 Quadrupole moment (field-independent basis, Debye-Ang):
   XX=           -357.0944   YY=           -388.0708   ZZ=           -395.5147
   XY=            -19.4919   XZ=             -0.4410   YZ=             -2.4932

 Normal termination of Gaussian 09 at Fri Jun 28 15:31:31 2019.
