 Gaussian 09, Revision D.01,
 Gaussian 09:  ES64L-G09RevD.01 24-Apr-2013

 -------------------------------------
 # td=(NStates=1) CAM-B3LYP/6-31G(d,p)
 -------------------------------------

 --
 TD
 --
 Symbolic Z-matrix:
 Charge =  0 Multiplicity = 1

                         Standard orientation:
 ---------------------------------------------------------------------
 Center     Atomic      Atomic             Coordinates (Angstroms)
 Number     Number       Type             X           Y           Z
 ---------------------------------------------------------------------
      1         12           0       -7.104270    0.571828    0.108658
      2          6           0       -4.791928   -1.977940    0.487138
      3          6           0       -4.756278    2.743783    1.293878
      4          6           0       -9.405689    3.124400   -0.269996
      5          6           0       -9.541141   -1.650539   -0.831628
      6          7           0       -5.104378    0.478182    0.645886
      7          6           0       -4.356375   -0.716825    0.803418
      8          6           0       -2.912978   -0.399405    1.182776
      9          6           0       -3.038044    1.072092    1.708514
     10          6           0       -4.404212    1.489657    1.240383
     11          6           0       -2.757219    1.244849    3.244216
     12          6           0       -1.941748   -0.533013    0.036890
     13          6           0       -0.478798   -0.540456    0.424771
     14          6           0        0.598593   -0.660958   -0.608251
     15          8           0        0.234041   -1.042337   -1.728581
     16          8           0        1.835379   -0.528920   -0.312224
     17          7           0       -7.111259    2.576625    0.499596
     18          6           0       -6.071871    3.367128    0.906899
     19          6           0       -6.388645    4.707310    0.938630
     20          6           0       -7.741750    4.774960    0.495558
     21          6           0       -8.188856    3.517279    0.210822
     22          6           0       -5.524159    5.883411    1.385124
     23          6           0       -8.691572    5.988047    0.237326
     24          6           0       -8.185393    7.303167    0.013912
     25          7           0       -9.103921    0.680160   -0.516128
     26          6           0       -9.918998    1.866267   -0.574234
     27          6           0      -11.186020    1.515435   -1.061784
     28          6           0      -11.268872    0.148111   -1.276342
     29          6           0       -9.880478   -0.318359   -0.954616
     30          6           0      -12.206237    2.483320   -1.420190
     31          6           0      -12.563739   -0.722528   -1.708364
     32          6           0      -12.309221   -0.973851   -3.257925
     33          7           0       -7.268582   -1.403840   -0.089299
     34          6           0       -8.392499   -2.226594   -0.479485
     35          6           0       -7.833355   -3.570921   -0.434458
     36          6           0       -6.505245   -3.564996   -0.034222
     37          6           0       -6.231906   -2.194774    0.103091
     38          6           0       -8.727275   -4.786933   -0.680403
     39          6           0       -5.344171   -4.409151    0.196835
     40          8           0       -5.273417   -5.576932    0.106442
     41          6           0       -4.162208   -3.361221    0.429942
     42          6           0       -3.611970   -3.674238    1.837505
     43          8           0       -3.901662   -3.242314    2.967223
     44          8           0       -2.572048   -4.662774    1.751037
     45          6           0       -2.094289   -5.165764    2.967564
     46          6           0        2.850766   -0.849787   -1.337316
     47          6           0        4.155051   -0.556350   -0.626733
     48          6           0        5.151203    0.214331   -1.080060
     49          6           0        5.066179    1.054243   -2.390473
     50          6           0        6.439329    0.396962   -0.324184
     51          6           0        7.741705   -0.187753   -0.938531
     52          6           0        8.939385   -0.156835   -0.132629
     53          6           0       10.155996   -0.542446   -0.951947
     54          6           0       10.292935   -2.016131   -1.463480
     55          6           0       11.388580   -0.235326   -0.022237
     56          6           0       12.802970   -0.439405   -0.671351
     57          6           0       13.902865   -0.110883    0.253618
     58          6           0       15.270919   -0.128152   -0.428324
     59          6           0       15.668230   -1.541801   -0.868797
     60          6           0       16.444780    0.334656    0.515346
     61          6           0       17.790343    0.456343   -0.180223
     62          6           0       18.750850    1.237765    0.715255
     63          6           0       20.143846    1.415170    0.298084
     64          6           0       20.304372    2.263394   -0.968923
     65          6           0       21.189957    1.972280    1.303743
     66          1           0       -4.062145    3.440963    1.641975
     67          1           0       -9.977927    3.908381   -0.592094
     68          1           0      -10.279947   -2.484614   -1.148867
     69          1           0       -2.508680   -0.934800    2.049618
     70          1           0       -2.422912    1.782087    1.190838
     71          1           0       -1.980984    0.766534    3.700772
     72          1           0       -2.799649    2.257834    3.669523
     73          1           0       -3.513624    0.642747    3.611283
     74          1           0       -2.115041   -1.629679   -0.534062
     75          1           0       -2.133306    0.307878   -0.826828
     76          1           0       -0.162475    0.526388    0.900008
     77          1           0       -0.287307   -1.163779    1.442547
     78          1           0       -4.760125    6.573492    0.897001
     79          1           0       -6.133273    6.830440    1.584524
     80          1           0       -5.065678    5.380070    2.179251
     81          1           0       -9.800061    5.904150    0.063115
     82          1           0       -8.903861    8.219339   -0.077661
     83          1           0       -7.199425    7.693867   -0.001039
     84          1           0      -11.854546    3.099342   -2.298932
     85          1           0      -13.285851    2.171623   -1.393541
     86          1           0      -12.270914    3.332519   -0.629367
     87          1           0      -12.969307   -1.619346   -1.301386
     88          1           0      -13.447812   -0.061994   -1.737009
     89          1           0      -13.295051   -1.434012   -3.714563
     90          1           0      -11.851612   -0.381964   -4.027292
     91          1           0      -11.591806   -1.934876   -3.413810
     92          1           0       -9.152485   -4.859198   -1.630438
     93          1           0       -8.214163   -5.754192   -0.672909
     94          1           0       -9.691191   -4.968379   -0.076571
     95          1           0       -3.377255   -3.494912   -0.348109
     96          1           0       -1.704873   -4.314601    3.534742
     97          1           0       -3.124400   -5.730539    3.377274
     98          1           0       -1.354263   -5.955157    2.707607
     99          1           0        2.868525   -1.887378   -1.763939
    100          1           0        2.491509   -0.274955   -2.201222
    101          1           0        4.310986   -0.809367    0.511985
    102          1           0        4.061916    1.062422   -2.729777
    103          1           0        5.139938    2.053545   -2.185265
    104          1           0        5.675282    0.761971   -3.203732
    105          1           0        6.538132    1.373553    0.027884
    106          1           0        6.244844   -0.043859    0.704707
    107          1           0        7.427039   -1.052911   -1.322661
    108          1           0        8.009798    0.357545   -1.832932
    109          1           0        9.034425    1.047230   -0.038146
    110          1           0        8.917188   -0.704348    0.738550
    111          1           0       10.207287    0.123105   -1.835330
    112          1           0        9.320440   -2.168581   -1.933994
    113          1           0       10.996926   -2.250531   -2.325127
    114          1           0       10.418085   -2.671770   -0.665563
    115          1           0       11.440000    0.699568    0.429895
    116          1           0       11.432550   -0.874972    0.928122
    117          1           0       13.031201   -1.467607   -0.945762
    118          1           0       12.932876    0.078911   -1.605267
    119          1           0       13.784663    0.876833    0.621122
    120          1           0       13.974652   -0.806407    1.140205
    121          1           0       15.357476    0.484413   -1.324813
    122          1           0       15.685950   -2.081028    0.162107
    123          1           0       14.858924   -2.006395   -1.413000
    124          1           0       16.484893   -1.483550   -1.544965
    125          1           0       16.110749    1.343008    0.997718
    126          1           0       16.778269   -0.365726    1.479478
    127          1           0       18.388241   -0.488823   -0.405208
    128          1           0       17.731254    0.912118   -1.119173
    129          1           0       18.459913    2.132119    1.127277
    130          1           0       18.644055    0.904995    1.576584
    131          1           0       20.397963    0.292454    0.058148
    132          1           0       20.020393    3.310196   -0.776281
    133          1           0       21.374121    2.251173   -1.331084
    134          1           0       19.554569    1.984887   -1.742515
    135          1           0       21.231978    1.260205    2.096331
    136          1           0       22.128873    1.992174    1.012985
    137          1           0       20.801644    3.100400    1.626809
 ---------------------------------------------------------------------

 SCF Done:  E(RCAM-B3LYP) =  -2932.65949001     A.U. after   15 cycles

 Excitation energies and oscillator strengths:

 Excited State   1:      Singlet-A      2.0948 eV  591.87 nm  f=0.2854  <S**2>=0.000
     240 -> 242       -0.20549
     240 -> 243       -0.18936
     241 -> 242        0.62822
     241 -> 243       -0.11633
 This state for optimization and/or second-order correction.
 Total Energy, E(TD-HF/TD-KS) =  -2932.58250792
 Copying the excited state density for this state as the 1-particle RhoCI density.

 The electronic state is 1-A.
 Alpha  occ. eigenvalues --  -46.83410 -19.27099 -19.24354 -19.22178 -19.21775
 Alpha  occ. eigenvalues --  -19.18548 -14.40528 -14.40057 -14.39599 -14.38683
 Alpha  occ. eigenvalues --  -10.40094 -10.38510 -10.36429 -10.33429 -10.31356
 Alpha  occ. eigenvalues --  -10.31169 -10.30351 -10.30182 -10.30002 -10.29754
 Alpha  occ. eigenvalues --  -10.29630 -10.29611 -10.29549 -10.29421 -10.28957
 Alpha  occ. eigenvalues --  -10.28859 -10.28762 -10.28739 -10.28662 -10.28132
 Alpha  occ. eigenvalues --  -10.27828 -10.27802 -10.27659 -10.27635 -10.27546
 Alpha  occ. eigenvalues --  -10.27427 -10.27203 -10.27091 -10.26994 -10.26951
 Alpha  occ. eigenvalues --  -10.26872 -10.26843 -10.26722 -10.26608 -10.26427
 Alpha  occ. eigenvalues --  -10.26237 -10.26200 -10.25832 -10.25794 -10.25544
 Alpha  occ. eigenvalues --  -10.25486 -10.25469 -10.24866 -10.24816 -10.24634
 Alpha  occ. eigenvalues --  -10.24359 -10.24349 -10.24233 -10.24212 -10.24055
 Alpha  occ. eigenvalues --  -10.24031 -10.24000 -10.23941 -10.23823 -10.21398
 Alpha  occ. eigenvalues --   -3.12534  -1.87238  -1.86777  -1.86717  -1.19846
 Alpha  occ. eigenvalues --   -1.15626  -1.14844  -1.07585  -1.07045  -1.04392
 Alpha  occ. eigenvalues --   -1.02755  -1.02461  -1.01403  -0.92684  -0.91837
 Alpha  occ. eigenvalues --   -0.91031  -0.90018  -0.89733  -0.89439  -0.89047
 Alpha  occ. eigenvalues --   -0.88355  -0.87548  -0.87418  -0.86601  -0.85916
 Alpha  occ. eigenvalues --   -0.85431  -0.84492  -0.83881  -0.83240  -0.82069
 Alpha  occ. eigenvalues --   -0.81935  -0.80759  -0.80622  -0.79944  -0.78419
 Alpha  occ. eigenvalues --   -0.78134  -0.77488  -0.76595  -0.75683  -0.75583
 Alpha  occ. eigenvalues --   -0.75328  -0.75269  -0.75129  -0.74059  -0.73377
 Alpha  occ. eigenvalues --   -0.71942  -0.70743  -0.69967  -0.69615  -0.68514
 Alpha  occ. eigenvalues --   -0.67701  -0.66772  -0.65471  -0.65368  -0.65040
 Alpha  occ. eigenvalues --   -0.64096  -0.63777  -0.63549  -0.63233  -0.61840
 Alpha  occ. eigenvalues --   -0.61734  -0.61126  -0.60348  -0.59819  -0.59347
 Alpha  occ. eigenvalues --   -0.58564  -0.58345  -0.57873  -0.57472  -0.56606
 Alpha  occ. eigenvalues --   -0.56263  -0.55884  -0.55629  -0.54995  -0.54673
 Alpha  occ. eigenvalues --   -0.54451  -0.54002  -0.53557  -0.53548  -0.53103
 Alpha  occ. eigenvalues --   -0.52570  -0.52187  -0.51924  -0.51727  -0.51653
 Alpha  occ. eigenvalues --   -0.51542  -0.51453  -0.51165  -0.50885  -0.50718
 Alpha  occ. eigenvalues --   -0.50613  -0.50203  -0.50035  -0.49832  -0.49615
 Alpha  occ. eigenvalues --   -0.49466  -0.49098  -0.49021  -0.48636  -0.48552
 Alpha  occ. eigenvalues --   -0.48370  -0.48189  -0.47758  -0.47613  -0.47360
 Alpha  occ. eigenvalues --   -0.47220  -0.47125  -0.46935  -0.46337  -0.45892
 Alpha  occ. eigenvalues --   -0.45701  -0.45680  -0.45470  -0.45288  -0.45166
 Alpha  occ. eigenvalues --   -0.45121  -0.44796  -0.44596  -0.43917  -0.43864
 Alpha  occ. eigenvalues --   -0.43743  -0.43441  -0.43225  -0.43101  -0.42896
 Alpha  occ. eigenvalues --   -0.42738  -0.42709  -0.42678  -0.42490  -0.42384
 Alpha  occ. eigenvalues --   -0.42105  -0.41850  -0.41761  -0.41619  -0.41017
 Alpha  occ. eigenvalues --   -0.40692  -0.40538  -0.40388  -0.40194  -0.39923
 Alpha  occ. eigenvalues --   -0.39774  -0.39676  -0.39483  -0.39468  -0.39407
 Alpha  occ. eigenvalues --   -0.38854  -0.38597  -0.38159  -0.38093  -0.37907
 Alpha  occ. eigenvalues --   -0.37502  -0.37395  -0.36894  -0.36746  -0.36712
 Alpha  occ. eigenvalues --   -0.36521  -0.35611  -0.35597  -0.35414  -0.35394
 Alpha  occ. eigenvalues --   -0.34737  -0.34731  -0.34086  -0.33821  -0.33812
 Alpha  occ. eigenvalues --   -0.33629  -0.32017  -0.31814  -0.31639  -0.31009
 Alpha  occ. eigenvalues --   -0.30350  -0.30292  -0.28362  -0.26605  -0.23382
 Alpha  occ. eigenvalues --   -0.22358
 Alpha virt. eigenvalues --   -0.07504  -0.03180   0.01679   0.03624   0.05125
 Alpha virt. eigenvalues --    0.05995   0.06477   0.06677   0.06912   0.07747
 Alpha virt. eigenvalues --    0.08101   0.10768   0.11064   0.11702   0.11785

 Mulliken charges:
               1
     1  Mg   0.811236
     2  C    0.046525
     3  C   -0.220334
     4  C   -0.151136
     5  C   -0.166082
     6  N   -0.667733
     7  C    0.305552
     8  C   -0.157167
     9  C   -0.163716
    10  C    0.410879
    11  C   -0.326037
    12  C   -0.131842
    13  C   -0.256292
    14  C    0.605136
    15  O   -0.508681
    16  O   -0.447510
    17  N   -0.717709
    18  C    0.317165
    19  C    0.001676
    20  C    0.014557
    21  C    0.286645
    22  C   -0.365417
    23  C   -0.099514
    24  C   -0.239885
    25  N   -0.663661
    26  C    0.277609
    27  C    0.056162
    28  C    0.014945
    29  C    0.278647
    30  C   -0.398906
    31  C   -0.227630
    32  C   -0.317605
    33  N   -0.764425
    34  C    0.308869
    35  C   -0.013764
    36  C    0.041664
    37  C    0.329770
    38  C   -0.402788
    39  C    0.381937
    40  O   -0.407827
    41  C   -0.330751
    42  C    0.619952
    43  O   -0.471472
    44  O   -0.484101
    45  C   -0.056393
    46  C    0.004307
    47  C   -0.147325
    48  C    0.105008
    49  C   -0.364828
    50  C   -0.234613
    51  C   -0.166499
    52  C   -0.149634
    53  C   -0.070695
    54  C   -0.316557
    55  C   -0.178982
    56  C   -0.180317
    57  C   -0.168049
    58  C   -0.086887
    59  C   -0.297506
    60  C   -0.164843
    61  C   -0.176530
    62  C   -0.142374
    63  C   -0.064298
    64  C   -0.298015
    65  C   -0.296078
    66  H    0.064860
    67  H    0.083770
    68  H    0.100653
    69  H    0.118087
    70  H    0.112897
    71  H    0.115607
    72  H    0.108994
    73  H    0.130187
    74  H    0.095499
    75  H    0.105829
    76  H    0.100624
    77  H    0.120627
    78  H    0.113618
    79  H    0.108133
    80  H    0.123921
    81  H    0.110995
    82  H    0.090641
    83  H    0.112805
    84  H    0.128705
    85  H    0.119454
    86  H    0.098461
    87  H    0.128691
    88  H    0.116485
    89  H    0.079446
    90  H    0.134456
    91  H    0.073738
    92  H    0.131811
    93  H    0.141594
    94  H    0.120768
    95  H    0.174861
    96  H    0.124050
    97  H    0.100493
    98  H    0.121521
    99  H    0.141928
   100  H    0.147338
   101  H    0.099837
   102  H    0.104829
   103  H    0.126826
   104  H    0.123716
   105  H    0.104382
   106  H    0.075688
   107  H    0.106677
   108  H    0.089932
   109  H    0.080998
   110  H    0.099815
   111  H    0.083906
   112  H    0.097088
   113  H    0.106695
   114  H    0.114354
   115  H    0.095012
   116  H    0.073659
   117  H    0.095827
   118  H    0.088240
   119  H    0.089163
   120  H    0.083528
   121  H    0.086936
   122  H    0.091582
   123  H    0.093609
   124  H    0.109532
   125  H    0.079679
   126  H    0.066643
   127  H    0.092438
   128  H    0.097972
   129  H    0.074675
   130  H    0.086021
   131  H    0.054385
   132  H    0.095297
   133  H    0.094899
   134  H    0.089579
   135  H    0.099388
   136  H    0.117386
   137  H    0.072426
 Sum of Mulliken charges =   0.00000

 Dipole moment (field-independent basis, Debye):
    X=              0.1482    Y=              3.5653    Z=             -0.8608  Tot=              3.6707
 Quadrupole moment (field-independent basis, Debye-Ang):
   XX=           -337.7525   YY=           -390.7140   ZZ=           -399.8793
   XY=            -12.9151   XZ=             16.8923   YZ=             -0.1695

 Normal termination of Gaussian 09 at Sun Jun 30 10:18:27 2019.
