 Gaussian 09, Revision D.01,
 Gaussian 09:  ES64L-G09RevD.01 24-Apr-2013

 -------------------------------------
 # td=(NStates=1) CAM-B3LYP/6-31G(d,p)
 -------------------------------------

 --
 TD
 --
 Symbolic Z-matrix:
 Charge =  0 Multiplicity = 1

                         Standard orientation:
 ---------------------------------------------------------------------
 Center     Atomic      Atomic             Coordinates (Angstroms)
 Number     Number       Type             X           Y           Z
 ---------------------------------------------------------------------
      1         12           0       -7.219379    0.560711    0.177809
      2          6           0       -4.860676   -2.018015    0.593571
      3          6           0       -4.857747    2.792675    1.220018
      4          6           0       -9.507643    3.014576   -0.342751
      5          6           0       -9.487465   -1.813517   -0.885089
      6          7           0       -5.174879    0.369415    0.820981
      7          6           0       -4.355569   -0.764882    0.819685
      8          6           0       -2.941549   -0.378323    1.221537
      9          6           0       -3.055832    1.048408    1.759656
     10          6           0       -4.467326    1.479131    1.276381
     11          6           0       -2.813965    1.201527    3.289546
     12          6           0       -1.862233   -0.496701    0.073030
     13          6           0       -0.476918   -0.385619    0.584662
     14          6           0        0.508148   -0.524961   -0.662199
     15          8           0        0.255200   -0.899835   -1.782159
     16          8           0        1.819061   -0.292820   -0.141824
     17          7           0       -7.151662    2.575585    0.349645
     18          6           0       -6.157154    3.288539    0.804422
     19          6           0       -6.494201    4.758056    0.856075
     20          6           0       -7.769380    4.812726    0.294061
     21          6           0       -8.204378    3.478515    0.066194
     22          6           0       -5.678187    5.876252    1.421376
     23          6           0       -8.657311    5.980867    0.179463
     24          6           0       -8.366947    7.308436    0.109007
     25          7           0       -9.101688    0.610746   -0.507516
     26          6           0       -9.939925    1.741415   -0.672029
     27          6           0      -11.231428    1.373040   -1.044439
     28          6           0      -11.207752   -0.010806   -1.248800
     29          6           0       -9.892400   -0.493241   -0.887618
     30          6           0      -12.268545    2.396898   -1.366332
     31          6           0      -12.352253   -0.849263   -1.678281
     32          6           0      -12.354562   -0.974377   -3.276674
     33          7           0       -7.294717   -1.467542   -0.097636
     34          6           0       -8.240316   -2.299357   -0.523178
     35          6           0       -7.813203   -3.654668   -0.543546
     36          6           0       -6.478808   -3.593755   -0.289805
     37          6           0       -6.202559   -2.214012    0.169975
     38          6           0       -8.506747   -4.886575   -0.996304
     39          6           0       -5.301237   -4.426000    0.115910
     40          8           0       -5.137577   -5.616872    0.213921
     41          6           0       -4.195052   -3.317057    0.594041
     42          6           0       -3.453742   -3.721129    1.912332
     43          8           0       -3.676852   -3.150118    2.994219
     44          8           0       -2.531324   -4.649451    1.654739
     45          6           0       -1.897264   -5.195596    2.823243
     46          6           0        2.803610   -0.655010   -1.094585
     47          6           0        4.082815   -0.329161   -0.408582
     48          6           0        5.097405    0.341667   -0.877765
     49          6           0        4.993320    1.293160   -2.089307
     50          6           0        6.440274    0.535183   -0.117485
     51          6           0        7.680094    0.023424   -1.068055
     52          6           0        8.944400    0.013264   -0.251495
     53          6           0       10.178595   -0.502888   -0.933456
     54          6           0       10.125346   -1.919734   -1.328796
     55          6           0       11.395661   -0.204847   -0.135240
     56          6           0       12.748807   -0.283253   -0.821813
     57          6           0       13.888078    0.006879    0.175445
     58          6           0       15.334395   -0.124531   -0.561358
     59          6           0       15.529959   -1.627982   -1.024579
     60          6           0       16.320072    0.426576    0.442212
     61          6           0       17.786262    0.446935   -0.128702
     62          6           0       18.863136    1.059150    0.795895
     63          6           0       20.241431    1.141769    0.277807
     64          6           0       20.389217    2.061133   -1.039519
     65          6           0       21.226432    1.721747    1.280257
     66          1           0       -4.274513    3.437708    1.590624
     67          1           0      -10.261478    3.699989   -0.492834
     68          1           0      -10.296034   -2.629571   -1.095493
     69          1           0       -2.532885   -1.009880    2.047318
     70          1           0       -2.381181    1.721590    1.234529
     71          1           0       -1.739692    0.786261    3.603457
     72          1           0       -2.936469    2.179070    3.555593
     73          1           0       -3.670534    0.813598    3.983126
     74          1           0       -1.830658   -1.407059   -0.542487
     75          1           0       -1.943526    0.335800   -0.594809
     76          1           0       -0.065380    0.610720    1.008701
     77          1           0       -0.335300   -1.338570    1.281752
     78          1           0       -5.346468    6.761242    0.698871
     79          1           0       -6.173363    6.651290    2.262158
     80          1           0       -4.617052    5.254661    1.887404
     81          1           0       -9.733029    5.644366    0.306651
     82          1           0       -9.118483    7.978069   -0.023488
     83          1           0       -7.348195    7.723711   -0.199403
     84          1           0      -12.038988    2.991559   -2.251240
     85          1           0      -13.428339    2.070416   -1.749880
     86          1           0      -12.455840    3.190738   -0.549266
     87          1           0      -12.401907   -1.883493   -1.365673
     88          1           0      -13.173224   -0.375451   -1.397215
     89          1           0      -13.113088   -1.835943   -3.593918
     90          1           0      -12.418104    0.018029   -3.850532
     91          1           0      -11.543376   -1.462328   -3.392259
     92          1           0       -8.889324   -4.769576   -1.992907
     93          1           0       -7.779062   -5.687872   -0.985263
     94          1           0       -9.408570   -4.899703   -0.456323
     95          1           0       -3.475982   -3.230648   -0.202816
     96          1           0       -1.485927   -4.327342    3.491390
     97          1           0       -2.648308   -5.577212    3.564003
     98          1           0       -1.246237   -5.806237    2.587208
     99          1           0        3.060121   -1.732422   -1.342204
    100          1           0        2.626079   -0.055914   -2.022856
    101          1           0        4.245355   -0.897886    0.458502
    102          1           0        3.984616    1.706025   -2.367044
    103          1           0        5.548021    2.273214   -1.864315
    104          1           0        5.549220    0.811250   -2.941954
    105          1           0        6.960520    1.619145    0.300424
    106          1           0        6.504190   -0.007596    0.762257
    107          1           0        7.369259   -0.850993   -1.532308
    108          1           0        7.703041    0.570263   -2.073679
    109          1           0        8.870618    1.016975    0.097141
    110          1           0        8.947178   -0.559024    0.622662
    111          1           0       10.244833    0.140183   -1.790854
    112          1           0        9.129171   -2.040901   -1.812953
    113          1           0       11.040653   -2.074363   -2.246071
    114          1           0       10.130728   -2.661434   -0.536226
    115          1           0       11.504771    0.880657    0.432691
    116          1           0       11.291736   -1.001791    0.720309
    117          1           0       12.789189   -1.209718   -1.569406
    118          1           0       12.691206    0.589460   -1.696002
    119          1           0       14.012124    0.929522    0.557163
    120          1           0       13.784523   -0.650413    1.101021
    121          1           0       15.198932    0.506958   -1.507950
    122          1           0       15.561601   -2.272202    0.013212
    123          1           0       14.809166   -2.090648   -1.638394
    124          1           0       16.456722   -1.810530   -1.500259
    125          1           0       16.094522    1.416216    0.944737
    126          1           0       16.378535   -0.156910    1.422322
    127          1           0       18.027002   -0.586599   -0.292071
    128          1           0       17.869182    1.079854   -1.065545
    129          1           0       18.584543    2.165016    1.103670
    130          1           0       18.907307    0.438299    1.727685
    131          1           0       20.611509    0.182582   -0.153974
    132          1           0       20.154376    3.030812   -0.654416
    133          1           0       21.394610    2.129619   -1.568705
    134          1           0       19.940437    1.667892   -1.825423
    135          1           0       21.286652    1.130440    2.365053
    136          1           0       22.416613    1.662603    0.811619
    137          1           0       20.933634    2.871104    1.443858
 ---------------------------------------------------------------------

 SCF Done:  E(RCAM-B3LYP) =  -2932.64720032     A.U. after   15 cycles

 Excitation energies and oscillator strengths:

 Excited State   1:      Singlet-A      2.0304 eV  610.64 nm  f=0.2701  <S**2>=0.000
     240 -> 243        0.24082
     241 -> 242        0.65931
 This state for optimization and/or second-order correction.
 Total Energy, E(TD-HF/TD-KS) =  -2932.57258507
 Copying the excited state density for this state as the 1-particle RhoCI density.

 The electronic state is 1-A.
 Alpha  occ. eigenvalues --  -46.83945 -19.27895 -19.26611 -19.23519 -19.21565
 Alpha  occ. eigenvalues --  -19.21180 -14.41399 -14.39987 -14.39455 -14.39056
 Alpha  occ. eigenvalues --  -10.40585 -10.40060 -10.36339 -10.31873 -10.31019
 Alpha  occ. eigenvalues --  -10.30888 -10.30708 -10.30528 -10.30300 -10.29889
 Alpha  occ. eigenvalues --  -10.29621 -10.29468 -10.28829 -10.28633 -10.28398
 Alpha  occ. eigenvalues --  -10.28292 -10.28200 -10.28178 -10.28170 -10.28162
 Alpha  occ. eigenvalues --  -10.27835 -10.27711 -10.27689 -10.27581 -10.27467
 Alpha  occ. eigenvalues --  -10.27274 -10.27202 -10.27159 -10.27099 -10.26993
 Alpha  occ. eigenvalues --  -10.26670 -10.26549 -10.26505 -10.26449 -10.26441
 Alpha  occ. eigenvalues --  -10.26440 -10.26408 -10.26215 -10.26114 -10.26108
 Alpha  occ. eigenvalues --  -10.26008 -10.25699 -10.25538 -10.25407 -10.25350
 Alpha  occ. eigenvalues --  -10.25188 -10.25180 -10.25167 -10.25003 -10.24869
 Alpha  occ. eigenvalues --  -10.24764 -10.24639 -10.24353 -10.23859 -10.23496
 Alpha  occ. eigenvalues --   -3.13046  -1.87750  -1.87270  -1.87245  -1.18777
 Alpha  occ. eigenvalues --   -1.17695  -1.12270  -1.10780  -1.08638  -1.05359
 Alpha  occ. eigenvalues --   -1.04138  -1.01998  -1.01276  -0.92728  -0.91745
 Alpha  occ. eigenvalues --   -0.90424  -0.89794  -0.89594  -0.89240  -0.88681
 Alpha  occ. eigenvalues --   -0.88417  -0.88146  -0.87953  -0.87155  -0.85577
 Alpha  occ. eigenvalues --   -0.84792  -0.84097  -0.83470  -0.82634  -0.82449
 Alpha  occ. eigenvalues --   -0.82288  -0.80913  -0.80440  -0.79369  -0.78393
 Alpha  occ. eigenvalues --   -0.77653  -0.77021  -0.76100  -0.75691  -0.75329
 Alpha  occ. eigenvalues --   -0.75049  -0.74961  -0.73830  -0.73046  -0.72580
 Alpha  occ. eigenvalues --   -0.71585  -0.70391  -0.70037  -0.68755  -0.68212
 Alpha  occ. eigenvalues --   -0.67881  -0.66801  -0.65347  -0.65038  -0.64826
 Alpha  occ. eigenvalues --   -0.64682  -0.63114  -0.62967  -0.62666  -0.62252
 Alpha  occ. eigenvalues --   -0.61334  -0.61053  -0.60388  -0.59650  -0.59409
 Alpha  occ. eigenvalues --   -0.58764  -0.58353  -0.57888  -0.57340  -0.56730
 Alpha  occ. eigenvalues --   -0.56314  -0.55900  -0.55494  -0.55176  -0.54912
 Alpha  occ. eigenvalues --   -0.54761  -0.54565  -0.54226  -0.53897  -0.53602
 Alpha  occ. eigenvalues --   -0.53056  -0.52925  -0.52561  -0.52161  -0.51931
 Alpha  occ. eigenvalues --   -0.51679  -0.51234  -0.50778  -0.50733  -0.50651
 Alpha  occ. eigenvalues --   -0.50246  -0.50098  -0.49631  -0.49325  -0.49091
 Alpha  occ. eigenvalues --   -0.48980  -0.48937  -0.48545  -0.48388  -0.48319
 Alpha  occ. eigenvalues --   -0.48084  -0.47823  -0.47612  -0.47355  -0.47050
 Alpha  occ. eigenvalues --   -0.46696  -0.46342  -0.46228  -0.46183  -0.45766
 Alpha  occ. eigenvalues --   -0.45722  -0.45613  -0.45452  -0.45288  -0.45064
 Alpha  occ. eigenvalues --   -0.44697  -0.44425  -0.44204  -0.44115  -0.43958
 Alpha  occ. eigenvalues --   -0.43751  -0.43746  -0.43288  -0.43046  -0.42843
 Alpha  occ. eigenvalues --   -0.42757  -0.42569  -0.42516  -0.42387  -0.42318
 Alpha  occ. eigenvalues --   -0.42113  -0.41890  -0.41654  -0.41518  -0.41378
 Alpha  occ. eigenvalues --   -0.41114  -0.41052  -0.40911  -0.40792  -0.40452
 Alpha  occ. eigenvalues --   -0.40002  -0.39762  -0.39739  -0.39519  -0.39440
 Alpha  occ. eigenvalues --   -0.39342  -0.39171  -0.38784  -0.38313  -0.38100
 Alpha  occ. eigenvalues --   -0.37450  -0.37233  -0.37040  -0.36940  -0.36744
 Alpha  occ. eigenvalues --   -0.36547  -0.36424  -0.36303  -0.36109  -0.35519
 Alpha  occ. eigenvalues --   -0.35311  -0.34834  -0.34554  -0.34401  -0.33945
 Alpha  occ. eigenvalues --   -0.33534  -0.32719  -0.31577  -0.31360  -0.30672
 Alpha  occ. eigenvalues --   -0.29986  -0.29854  -0.28030  -0.27416  -0.23098
 Alpha  occ. eigenvalues --   -0.21434
 Alpha virt. eigenvalues --   -0.06817  -0.02960   0.01568   0.03899   0.04449
 Alpha virt. eigenvalues --    0.05285   0.06084   0.06590   0.06716   0.07031
 Alpha virt. eigenvalues --    0.08038   0.10551   0.10662   0.11122   0.11368

 Mulliken charges:
               1
     1  Mg   0.819685
     2  C    0.097204
     3  C   -0.127445
     4  C   -0.161666
     5  C   -0.192472
     6  N   -0.649733
     7  C    0.319054
     8  C   -0.165229
     9  C   -0.133526
    10  C    0.317354
    11  C   -0.307945
    12  C   -0.175783
    13  C   -0.254606
    14  C    0.597950
    15  O   -0.438745
    16  O   -0.489729
    17  N   -0.699985
    18  C    0.327178
    19  C    0.031032
    20  C    0.028976
    21  C    0.264067
    22  C   -0.354715
    23  C   -0.076835
    24  C   -0.250518
    25  N   -0.718339
    26  C    0.292750
    27  C    0.066869
    28  C   -0.000151
    29  C    0.315244
    30  C   -0.395857
    31  C   -0.241633
    32  C   -0.306964
    33  N   -0.715735
    34  C    0.319361
    35  C    0.028321
    36  C   -0.062418
    37  C    0.267448
    38  C   -0.366247
    39  C    0.392760
    40  O   -0.443435
    41  C   -0.344087
    42  C    0.625546
    43  O   -0.486631
    44  O   -0.436713
    45  C   -0.069763
    46  C    0.023597
    47  C   -0.148656
    48  C    0.126546
    49  C   -0.363956
    50  C   -0.218003
    51  C   -0.205899
    52  C   -0.154057
    53  C   -0.069282
    54  C   -0.288287
    55  C   -0.137525
    56  C   -0.168790
    57  C   -0.165026
    58  C   -0.055441
    59  C   -0.307420
    60  C   -0.191527
    61  C   -0.180022
    62  C   -0.152079
    63  C   -0.063405
    64  C   -0.311691
    65  C   -0.264071
    66  H    0.028831
    67  H    0.073863
    68  H    0.089997
    69  H    0.124550
    70  H    0.109089
    71  H    0.099235
    72  H    0.119803
    73  H    0.114329
    74  H    0.128481
    75  H    0.116119
    76  H    0.133381
    77  H    0.127578
    78  H    0.115377
    79  H    0.112245
    80  H    0.073640
    81  H    0.093097
    82  H    0.107537
    83  H    0.099203
    84  H    0.137550
    85  H    0.089551
    86  H    0.114501
    87  H    0.103395
    88  H    0.114918
    89  H    0.075447
    90  H    0.107982
    91  H    0.129557
    92  H    0.130070
    93  H    0.150550
    94  H    0.127841
    95  H    0.160017
    96  H    0.116406
    97  H    0.135022
    98  H    0.123082
    99  H    0.120231
   100  H    0.118964
   101  H    0.091508
   102  H    0.112118
   103  H    0.111152
   104  H    0.113187
   105  H    0.069154
   106  H    0.110273
   107  H    0.100032
   108  H    0.084924
   109  H    0.095482
   110  H    0.090142
   111  H    0.085977
   112  H    0.102534
   113  H    0.069827
   114  H    0.110256
   115  H    0.064369
   116  H    0.061347
   117  H    0.083392
   118  H    0.057807
   119  H    0.106124
   120  H    0.085972
   121  H    0.086227
   122  H    0.071400
   123  H    0.114919
   124  H    0.106480
   125  H    0.091951
   126  H    0.086274
   127  H    0.104238
   128  H    0.091690
   129  H    0.066403
   130  H    0.087480
   131  H    0.085835
   132  H    0.101797
   133  H    0.084955
   134  H    0.111479
   135  H    0.075723
   136  H    0.071600
   137  H    0.085635
 Sum of Mulliken charges =   0.00000

 Dipole moment (field-independent basis, Debye):
    X=              0.3863    Y=              2.4303    Z=             -0.1629  Tot=              2.4662
 Quadrupole moment (field-independent basis, Debye-Ang):
   XX=           -366.5708   YY=           -389.7425   ZZ=           -399.9476
   XY=            -22.8515   XZ=              7.6952   YZ=             -1.9092

 Normal termination of Gaussian 09 at Sat Jun 29 12:02:56 2019.
