 Gaussian 09, Revision D.01,
 Gaussian 09:  ES64L-G09RevD.01 24-Apr-2013

 -------------------------------------
 # td=(NStates=1) CAM-B3LYP/6-31G(d,p)
 -------------------------------------

 --
 TD
 --
 Symbolic Z-matrix:
 Charge =  0 Multiplicity = 1

                         Standard orientation:
 ---------------------------------------------------------------------
 Center     Atomic      Atomic             Coordinates (Angstroms)
 Number     Number       Type             X           Y           Z
 ---------------------------------------------------------------------
      1         12           0       -7.147130    0.542710    0.187726
      2          6           0       -4.808329   -1.973560    0.525529
      3          6           0       -4.873151    2.690584    1.150751
      4          6           0       -9.487614    3.126935   -0.214486
      5          6           0       -9.548136   -1.774507   -0.825798
      6          7           0       -5.016122    0.412304    0.755391
      7          6           0       -4.292547   -0.771925    0.803991
      8          6           0       -2.923259   -0.431931    1.312984
      9          6           0       -3.020628    1.063790    1.690398
     10          6           0       -4.346099    1.492221    1.255054
     11          6           0       -2.893683    1.178485    3.211645
     12          6           0       -1.938918   -0.635802    0.109549
     13          6           0       -0.491559   -0.473891    0.628691
     14          6           0        0.538347   -0.648114   -0.500386
     15          8           0        0.266293   -0.921893   -1.654180
     16          8           0        1.770152   -0.584353   -0.078045
     17          7           0       -7.105963    2.585314    0.372206
     18          6           0       -6.097763    3.396028    0.839185
     19          6           0       -6.387394    4.745100    0.770044
     20          6           0       -7.715578    4.885523    0.369175
     21          6           0       -8.186461    3.472278    0.103845
     22          6           0       -5.579968    5.909330    1.319381
     23          6           0       -8.558032    6.079536    0.345195
     24          6           0       -8.251976    7.353536    0.200401
     25          7           0       -9.171808    0.700807   -0.436825
     26          6           0       -9.984331    1.804608   -0.580819
     27          6           0      -11.281726    1.396190   -1.063820
     28          6           0      -11.275671    0.071834   -1.248208
     29          6           0       -9.987597   -0.478762   -0.820530
     30          6           0      -12.280476    2.462552   -1.542038
     31          6           0      -12.330667   -0.765253   -1.853214
     32          6           0      -12.034405   -0.929931   -3.351804
     33          7           0       -7.271973   -1.282385   -0.133299
     34          6           0       -8.236824   -2.195941   -0.579131
     35          6           0       -7.892348   -3.598823   -0.469853
     36          6           0       -6.536406   -3.524153   -0.069360
     37          6           0       -6.124340   -2.122386   -0.030586
     38          6           0       -8.656622   -4.923020   -0.749121
     39          6           0       -5.395074   -4.329974    0.211659
     40          8           0       -5.250969   -5.613911    0.119384
     41          6           0       -4.212176   -3.307174    0.443909
     42          6           0       -3.500417   -3.657638    1.745682
     43          8           0       -3.806039   -3.258644    2.856770
     44          8           0       -2.666869   -4.716811    1.663270
     45          6           0       -2.196020   -5.377803    2.857960
     46          6           0        2.743413   -0.606863   -1.226713
     47          6           0        4.066248   -0.342595   -0.615608
     48          6           0        5.129944    0.366673   -0.998633
     49          6           0        5.111298    1.248902   -2.221114
     50          6           0        6.434099    0.448729   -0.106829
     51          6           0        7.607222   -0.233674   -0.881709
     52          6           0        8.969850   -0.076715   -0.156617
     53          6           0       10.203650   -0.480716   -0.805450
     54          6           0       10.036674   -2.003558   -1.341875
     55          6           0       11.490706   -0.269227   -0.012161
     56          6           0       12.843343   -0.493173   -0.794631
     57          6           0       14.014798   -0.113045    0.071377
     58          6           0       15.370932   -0.081870   -0.548101
     59          6           0       15.673011   -1.474703   -1.143949
     60          6           0       16.493381    0.457672    0.386710
     61          6           0       17.881978    0.509581   -0.235242
     62          6           0       18.762085    1.236789    0.832538
     63          6           0       20.205790    1.290047    0.347735
     64          6           0       20.287847    2.048079   -0.993797
     65          6           0       21.119544    1.884070    1.365773
     66          1           0       -4.097746    3.337878    1.508774
     67          1           0      -10.216083    3.868271   -0.500917
     68          1           0      -10.128730   -2.508695   -1.138897
     69          1           0       -2.533146   -1.077202    2.200470
     70          1           0       -2.280749    1.582561    1.188363
     71          1           0       -1.958221    0.988247    3.791216
     72          1           0       -3.033840    2.326580    3.485441
     73          1           0       -3.735285    0.730023    3.830692
     74          1           0       -2.087727   -1.638807   -0.360554
     75          1           0       -2.121141    0.029966   -0.816496
     76          1           0       -0.479932    0.466797    1.289367
     77          1           0       -0.375585   -1.234385    1.175308
     78          1           0       -4.930490    6.519981    0.644825
     79          1           0       -6.215308    6.582234    1.728825
     80          1           0       -4.681329    5.541278    2.169362
     81          1           0       -9.514211    5.973308    0.830871
     82          1           0       -8.935308    8.123252    0.113307
     83          1           0       -7.168282    7.467086   -0.117467
     84          1           0      -11.907957    2.802914   -2.516368
     85          1           0      -13.333742    2.015354   -1.624257
     86          1           0      -12.353330    3.231848   -0.805502
     87          1           0      -12.366953   -1.590231   -1.341855
     88          1           0      -13.274835   -0.291721   -1.775609
     89          1           0      -12.773233   -1.540960   -3.848084
     90          1           0      -12.092108    0.103222   -3.874502
     91          1           0      -11.118339   -1.322099   -3.570364
     92          1           0       -8.698781   -4.963318   -1.841308
     93          1           0       -8.254584   -5.946779   -0.207330
     94          1           0       -9.845355   -4.653491   -0.368906
     95          1           0       -3.164132   -3.202253   -0.120363
     96          1           0       -1.447966   -4.703548    3.323931
     97          1           0       -3.080900   -5.638413    3.443707
     98          1           0       -1.717315   -6.351019    2.451308
     99          1           0        2.896880   -1.466111   -1.893664
    100          1           0        2.535294    0.179010   -2.091588
    101          1           0        4.109833   -0.759296    0.334279
    102          1           0        4.058736    1.325568   -2.685777
    103          1           0        5.611840    2.185182   -2.010212
    104          1           0        5.744428    0.951287   -2.951628
    105          1           0        6.823753    1.536232    0.119419
    106          1           0        6.353531   -0.135624    0.770476
    107          1           0        7.327971   -1.125852   -1.069117
    108          1           0        7.537512    0.285289   -1.854841
    109          1           0        8.934880    0.938217    0.032090
    110          1           0        8.702519   -0.612118    0.797478
    111          1           0       10.327354    0.009671   -1.839525
    112          1           0        9.392163   -2.279391   -2.139836
    113          1           0       11.161134   -2.259847   -1.522602
    114          1           0        9.632613   -2.467785   -0.388836
    115          1           0       11.335912    0.855427    0.295508
    116          1           0       11.459277   -0.853638    0.897601
    117          1           0       13.129562   -1.611357   -0.980329
    118          1           0       12.743226    0.070464   -1.858185
    119          1           0       13.979224    0.928924    0.445780
    120          1           0       14.198209   -0.881508    0.969068
    121          1           0       15.279690    0.704457   -1.396157
    122          1           0       15.760898   -2.085554   -0.249816
    123          1           0       14.777526   -2.045791   -1.744425
    124          1           0       16.515098   -1.636566   -1.943693
    125          1           0       15.954646    1.276484    0.829259
    126          1           0       16.553589   -0.290694    1.265149
    127          1           0       18.326895   -0.445198   -0.268350
    128          1           0       17.816465    0.995272   -1.121587
    129          1           0       18.303508    2.195223    1.032580
    130          1           0       18.573514    0.476754    1.536966
    131          1           0       20.514443    0.357354    0.190295
    132          1           0       19.794043    2.904976   -0.880738
    133          1           0       21.443072    2.252398   -0.927135
    134          1           0       19.809575    1.615094   -1.898122
    135          1           0       20.855993    1.384516    2.336269
    136          1           0       22.141001    1.679171    1.106622
    137          1           0       20.785147    3.027500    1.492264
 ---------------------------------------------------------------------

 SCF Done:  E(RCAM-B3LYP) =  -2932.65605095     A.U. after   18 cycles

 Excitation energies and oscillator strengths:

 Excited State   1:      Singlet-A      2.0380 eV  608.36 nm  f=0.2801  <S**2>=0.000
     240 -> 242       -0.25427
     240 -> 243        0.20629
     241 -> 242        0.60025
     241 -> 243        0.15371
 This state for optimization and/or second-order correction.
 Total Energy, E(TD-HF/TD-KS) =  -2932.58115564
 Copying the excited state density for this state as the 1-particle RhoCI density.

 The electronic state is 1-A.
 Alpha  occ. eigenvalues --  -46.83539 -19.28018 -19.24655 -19.20427 -19.19404
 Alpha  occ. eigenvalues --  -19.19381 -14.40387 -14.40086 -14.40000 -14.39514
 Alpha  occ. eigenvalues --  -10.39206 -10.38217 -10.35229 -10.33367 -10.31580
 Alpha  occ. eigenvalues --  -10.30935 -10.30661 -10.29966 -10.29827 -10.29777
 Alpha  occ. eigenvalues --  -10.29673 -10.29567 -10.29403 -10.29251 -10.29196
 Alpha  occ. eigenvalues --  -10.28876 -10.28791 -10.27967 -10.27910 -10.27735
 Alpha  occ. eigenvalues --  -10.27586 -10.27516 -10.27514 -10.27513 -10.27272
 Alpha  occ. eigenvalues --  -10.27227 -10.27054 -10.26926 -10.26686 -10.26663
 Alpha  occ. eigenvalues --  -10.26626 -10.26605 -10.26310 -10.26217 -10.26168
 Alpha  occ. eigenvalues --  -10.26044 -10.25949 -10.25883 -10.25807 -10.25795
 Alpha  occ. eigenvalues --  -10.25520 -10.25357 -10.25265 -10.25031 -10.24980
 Alpha  occ. eigenvalues --  -10.24861 -10.24849 -10.24753 -10.24629 -10.24487
 Alpha  occ. eigenvalues --  -10.23978 -10.23885 -10.23824 -10.23787 -10.23699
 Alpha  occ. eigenvalues --   -3.12775  -1.87446  -1.87067  -1.86944  -1.19782
 Alpha  occ. eigenvalues --   -1.16936  -1.08765  -1.07159  -1.06027  -1.03803
 Alpha  occ. eigenvalues --   -1.02711  -1.02055  -1.00332  -0.93299  -0.91447
 Alpha  occ. eigenvalues --   -0.91091  -0.90270  -0.89984  -0.89777  -0.89594
 Alpha  occ. eigenvalues --   -0.89019  -0.88411  -0.87674  -0.86734  -0.86114
 Alpha  occ. eigenvalues --   -0.85473  -0.84930  -0.84040  -0.83569  -0.83363
 Alpha  occ. eigenvalues --   -0.81901  -0.81165  -0.80629  -0.79763  -0.78044
 Alpha  occ. eigenvalues --   -0.77803  -0.77028  -0.76097  -0.75816  -0.75721
 Alpha  occ. eigenvalues --   -0.74888  -0.74629  -0.74292  -0.73467  -0.73177
 Alpha  occ. eigenvalues --   -0.72021  -0.71289  -0.70273  -0.69524  -0.69002
 Alpha  occ. eigenvalues --   -0.67786  -0.67132  -0.65940  -0.65309  -0.65123
 Alpha  occ. eigenvalues --   -0.64567  -0.63895  -0.63733  -0.62199  -0.61392
 Alpha  occ. eigenvalues --   -0.60941  -0.60727  -0.60468  -0.60194  -0.59338
 Alpha  occ. eigenvalues --   -0.58802  -0.58485  -0.57392  -0.57076  -0.56309
 Alpha  occ. eigenvalues --   -0.56043  -0.55767  -0.55440  -0.55223  -0.55104
 Alpha  occ. eigenvalues --   -0.54859  -0.54511  -0.54179  -0.53862  -0.53488
 Alpha  occ. eigenvalues --   -0.53145  -0.52964  -0.52489  -0.52273  -0.52024
 Alpha  occ. eigenvalues --   -0.52009  -0.51499  -0.51240  -0.50828  -0.50778
 Alpha  occ. eigenvalues --   -0.50354  -0.50159  -0.49904  -0.49618  -0.49419
 Alpha  occ. eigenvalues --   -0.49162  -0.49060  -0.48847  -0.48429  -0.48006
 Alpha  occ. eigenvalues --   -0.47882  -0.47556  -0.47431  -0.47279  -0.46649
 Alpha  occ. eigenvalues --   -0.46544  -0.46232  -0.46044  -0.45839  -0.45720
 Alpha  occ. eigenvalues --   -0.45539  -0.45510  -0.45286  -0.44920  -0.44699
 Alpha  occ. eigenvalues --   -0.44604  -0.44591  -0.44382  -0.44170  -0.43957
 Alpha  occ. eigenvalues --   -0.43821  -0.43613  -0.43465  -0.43418  -0.43238
 Alpha  occ. eigenvalues --   -0.43143  -0.42752  -0.42643  -0.42535  -0.42404
 Alpha  occ. eigenvalues --   -0.42081  -0.41875  -0.41432  -0.41376  -0.41144
 Alpha  occ. eigenvalues --   -0.41101  -0.41035  -0.40718  -0.40598  -0.40433
 Alpha  occ. eigenvalues --   -0.40149  -0.39883  -0.39793  -0.39608  -0.39420
 Alpha  occ. eigenvalues --   -0.39390  -0.38927  -0.38879  -0.38076  -0.37839
 Alpha  occ. eigenvalues --   -0.37813  -0.37449  -0.37393  -0.36973  -0.36595
 Alpha  occ. eigenvalues --   -0.36515  -0.36403  -0.35978  -0.35647  -0.35624
 Alpha  occ. eigenvalues --   -0.35219  -0.34895  -0.33962  -0.33786  -0.33400
 Alpha  occ. eigenvalues --   -0.33348  -0.32473  -0.31897  -0.31062  -0.29940
 Alpha  occ. eigenvalues --   -0.29486  -0.29230  -0.28601  -0.28064  -0.23278
 Alpha  occ. eigenvalues --   -0.21495
 Alpha virt. eigenvalues --   -0.07200  -0.03281   0.00469   0.03689   0.06025
 Alpha virt. eigenvalues --    0.06244   0.06577   0.07023   0.07183   0.07519
 Alpha virt. eigenvalues --    0.07779   0.10239   0.10858   0.11818   0.11944

 Mulliken charges:
               1
     1  Mg   0.838207
     2  C    0.121101
     3  C   -0.192505
     4  C   -0.168395
     5  C   -0.141200
     6  N   -0.645570
     7  C    0.315760
     8  C   -0.177118
     9  C   -0.135718
    10  C    0.348857
    11  C   -0.325587
    12  C   -0.201800
    13  C   -0.252724
    14  C    0.604392
    15  O   -0.481859
    16  O   -0.455075
    17  N   -0.682515
    18  C    0.324787
    19  C    0.048970
    20  C   -0.004517
    21  C    0.303549
    22  C   -0.370748
    23  C   -0.079340
    24  C   -0.241479
    25  N   -0.664221
    26  C    0.289184
    27  C   -0.010097
    28  C    0.029132
    29  C    0.256845
    30  C   -0.364858
    31  C   -0.215369
    32  C   -0.315952
    33  N   -0.716763
    34  C    0.236771
    35  C    0.056336
    36  C    0.006430
    37  C    0.221437
    38  C   -0.348214
    39  C    0.373548
    40  O   -0.515862
    41  C   -0.325559
    42  C    0.584027
    43  O   -0.476750
    44  O   -0.465696
    45  C   -0.070013
    46  C    0.004560
    47  C   -0.158288
    48  C    0.125302
    49  C   -0.371946
    50  C   -0.232037
    51  C   -0.182369
    52  C   -0.160651
    53  C   -0.063806
    54  C   -0.318203
    55  C   -0.159838
    56  C   -0.165891
    57  C   -0.160375
    58  C   -0.068173
    59  C   -0.308185
    60  C   -0.174794
    61  C   -0.183191
    62  C   -0.172463
    63  C   -0.055572
    64  C   -0.303317
    65  C   -0.302238
    66  H    0.053114
    67  H    0.092987
    68  H    0.073256
    69  H    0.129450
    70  H    0.119074
    71  H    0.114818
    72  H    0.080706
    73  H    0.131578
    74  H    0.108760
    75  H    0.119922
    76  H    0.126542
    77  H    0.148562
    78  H    0.122365
    79  H    0.139149
    80  H    0.081274
    81  H    0.104411
    82  H    0.116340
    83  H    0.096113
    84  H    0.135002
    85  H    0.104287
    86  H    0.122158
    87  H    0.110481
    88  H    0.104978
    89  H    0.103267
    90  H    0.095649
    91  H    0.123993
    92  H    0.147104
    93  H    0.155230
    94  H    0.082387
    95  H    0.154596
    96  H    0.122753
    97  H    0.143106
    98  H    0.123714
    99  H    0.155710
   100  H    0.115573
   101  H    0.096081
   102  H    0.099054
   103  H    0.116225
   104  H    0.132436
   105  H    0.087240
   106  H    0.103359
   107  H    0.108135
   108  H    0.078064
   109  H    0.091619
   110  H    0.082491
   111  H    0.074664
   112  H    0.113984
   113  H    0.087819
   114  H    0.085207
   115  H    0.082192
   116  H    0.099281
   117  H    0.100021
   118  H    0.081884
   119  H    0.084983
   120  H    0.071071
   121  H    0.064722
   122  H    0.101079
   123  H    0.075926
   124  H    0.094379
   125  H    0.094835
   126  H    0.068661
   127  H    0.110216
   128  H    0.100440
   129  H    0.090114
   130  H    0.093058
   131  H    0.091099
   132  H    0.111951
   133  H    0.080575
   134  H    0.102016
   135  H    0.097735
   136  H    0.104919
   137  H    0.081703
 Sum of Mulliken charges =   0.00000

 Dipole moment (field-independent basis, Debye):
    X=              0.6146    Y=              5.4465    Z=              0.1299  Tot=              5.4826
 Quadrupole moment (field-independent basis, Debye-Ang):
   XX=           -329.2050   YY=           -391.7976   ZZ=           -398.1970
   XY=            -32.7469   XZ=             13.5361   YZ=             -1.7468

 Normal termination of Gaussian 09 at Sat Jun 29 20:46:52 2019.
