 Gaussian 09, Revision D.01,
 Gaussian 09:  ES64L-G09RevD.01 24-Apr-2013

 -------------------------------------
 # td=(NStates=1) CAM-B3LYP/6-31G(d,p)
 -------------------------------------

 --
 TD
 --
 Symbolic Z-matrix:
 Charge =  0 Multiplicity = 1

                         Standard orientation:
 ---------------------------------------------------------------------
 Center     Atomic      Atomic             Coordinates (Angstroms)
 Number     Number       Type             X           Y           Z
 ---------------------------------------------------------------------
      1         12           0       -7.140109    0.638224    0.076812
      2          6           0       -4.871829   -1.986291    0.621046
      3          6           0       -4.864441    2.794498    1.339339
      4          6           0       -9.462421    3.059576   -0.298272
      5          6           0       -9.534558   -1.736890   -0.765394
      6          7           0       -5.060538    0.423406    0.736625
      7          6           0       -4.310235   -0.726481    0.899063
      8          6           0       -2.936762   -0.434000    1.248836
      9          6           0       -2.982856    1.097501    1.651582
     10          6           0       -4.418088    1.470164    1.179935
     11          6           0       -2.697677    1.346521    3.174204
     12          6           0       -1.784310   -0.654906    0.132721
     13          6           0       -0.401426   -0.496236    0.604555
     14          6           0        0.462919   -0.653686   -0.513325
     15          8           0        0.234186   -0.839668   -1.771328
     16          8           0        1.735033   -0.505500   -0.077429
     17          7           0       -7.206967    2.636805    0.444422
     18          6           0       -6.119943    3.337528    0.917780
     19          6           0       -6.492792    4.796692    0.886799
     20          6           0       -7.714663    4.797394    0.330668
     21          6           0       -8.183633    3.472117    0.073980
     22          6           0       -5.669562    5.945069    1.279996
     23          6           0       -8.650877    5.980875    0.318366
     24          6           0       -8.269353    7.281693    0.013910
     25          7           0       -9.173127    0.610877   -0.459286
     26          6           0       -9.946341    1.768395   -0.538921
     27          6           0      -11.234879    1.418605   -1.158256
     28          6           0      -11.318274   -0.006818   -1.129672
     29          6           0       -9.959534   -0.411272   -0.827001
     30          6           0      -12.272043    2.414851   -1.421476
     31          6           0      -12.466330   -0.779241   -1.769697
     32          6           0      -12.218978   -1.070605   -3.325727
     33          7           0       -7.242968   -1.378438   -0.082813
     34          6           0       -8.226518   -2.216158   -0.436265
     35          6           0       -7.746270   -3.569450   -0.627919
     36          6           0       -6.419820   -3.581026   -0.096216
     37          6           0       -6.148372   -2.143251    0.201552
     38          6           0       -8.539426   -4.773494   -0.953019
     39          6           0       -5.264153   -4.372063    0.146595
     40          8           0       -5.127123   -5.558502    0.058122
     41          6           0       -4.088554   -3.288257    0.545016
     42          6           0       -3.464997   -3.801851    1.843594
     43          8           0       -3.523995   -3.231717    2.920349
     44          8           0       -2.678276   -4.949016    1.603469
     45          6           0       -2.059887   -5.342407    2.837063
     46          6           0        2.805851   -0.557103   -1.143137
     47          6           0        4.056845   -0.270179   -0.465140
     48          6           0        5.163017    0.489751   -0.976159
     49          6           0        5.060622    1.335079   -2.189423
     50          6           0        6.446115    0.472970   -0.178729
     51          6           0        7.643091   -0.121544   -0.977844
     52          6           0        8.868873   -0.120776   -0.206927
     53          6           0       10.161057   -0.574249   -0.940345
     54          6           0        9.992314   -1.986240   -1.401138
     55          6           0       11.379282   -0.388347    0.010661
     56          6           0       12.724980   -0.570114   -0.694035
     57          6           0       13.879332   -0.090950    0.201909
     58          6           0       15.244750   -0.085883   -0.609700
     59          6           0       15.704612   -1.440441   -1.135892
     60          6           0       16.286820    0.444903    0.371277
     61          6           0       17.734846    0.577972   -0.209323
     62          6           0       18.681704    1.296064    0.765870
     63          6           0       20.207330    1.279770    0.362009
     64          6           0       20.348124    2.071023   -0.931896
     65          6           0       21.144091    1.705467    1.328777
     66          1           0       -4.155672    3.320319    1.797780
     67          1           0      -10.267807    3.891372   -0.580588
     68          1           0      -10.049278   -2.755335   -1.104923
     69          1           0       -2.712687   -1.187702    2.210066
     70          1           0       -2.331268    1.860573    1.019349
     71          1           0       -1.657797    1.032038    3.553610
     72          1           0       -2.986043    2.390614    3.288865
     73          1           0       -3.327940    0.643349    3.740363
     74          1           0       -1.803776   -1.721705   -0.229969
     75          1           0       -1.951114   -0.017850   -0.812233
     76          1           0       -0.054820    0.359211    1.201704
     77          1           0       -0.032959   -1.354811    1.288682
     78          1           0       -5.044114    6.299885    0.678421
     79          1           0       -6.345858    6.758549    1.521193
     80          1           0       -5.094511    5.582944    2.209360
     81          1           0       -9.676399    5.863247    0.293701
     82          1           0       -8.982405    8.012841    0.141700
     83          1           0       -7.297626    7.519276   -0.120108
     84          1           0      -11.660860    2.996270   -2.111938
     85          1           0      -13.152802    1.970440   -1.951847
     86          1           0      -12.479384    2.804310   -0.426084
     87          1           0      -12.581322   -1.697020   -1.210803
     88          1           0      -13.434364   -0.241290   -1.591826
     89          1           0      -12.899284   -1.753758   -3.715710
     90          1           0      -12.056865   -0.185975   -3.895573
     91          1           0      -11.175719   -1.663335   -3.288232
     92          1           0       -8.990997   -4.711458   -2.000180
     93          1           0       -7.713937   -5.592325   -0.751832
     94          1           0       -9.386226   -4.848664   -0.282921
     95          1           0       -3.445402   -3.231077   -0.399772
     96          1           0       -1.232289   -4.587762    3.222631
     97          1           0       -2.688213   -5.716570    3.516655
     98          1           0       -1.582490   -6.264309    2.556383
     99          1           0        2.607785   -1.555517   -1.613773
    100          1           0        2.658348    0.069191   -2.059105
    101          1           0        4.367657   -0.575475    0.600477
    102          1           0        4.027877    1.572425   -2.499400
    103          1           0        5.666556    2.275432   -2.057869
    104          1           0        5.524948    0.972451   -3.098869
    105          1           0        6.626269    1.528515    0.088449
    106          1           0        6.249533   -0.011023    0.737116
    107          1           0        7.359522   -1.167908   -1.236627
    108          1           0        7.638194    0.410477   -1.780305
    109          1           0        9.092288    0.908438   -0.015601
    110          1           0        8.628780   -0.506079    0.777558
    111          1           0       10.087114    0.248112   -1.661949
    112          1           0        8.918847   -2.275746   -1.793821
    113          1           0       10.660872   -2.226360   -2.029906
    114          1           0       10.043052   -2.684004   -0.536001
    115          1           0       11.318553    0.790785    0.383462
    116          1           0       11.339688   -0.924686    0.869867
    117          1           0       12.919086   -1.472381   -1.031969
    118          1           0       12.609834    0.006817   -1.545192
    119          1           0       14.061340    0.990260    0.542313
    120          1           0       14.016402   -0.448079    1.101198
    121          1           0       15.183466    0.496586   -1.287898
    122          1           0       15.767578   -2.308546   -0.253282
    123          1           0       15.021203   -1.983527   -1.749158
    124          1           0       16.648083   -1.319263   -1.619560
    125          1           0       16.109568    1.469604    0.696252
    126          1           0       16.234365   -0.230148    1.247551
    127          1           0       18.108045   -0.458903   -0.457880
    128          1           0       17.659074    0.857150   -1.268054
    129          1           0       18.429453    2.401861    0.892844
    130          1           0       18.413079    0.723192    1.779082
    131          1           0       20.428538    0.376896   -0.097357
    132          1           0       20.221839    3.167291   -0.872609
    133          1           0       21.392300    1.986443   -1.446321
    134          1           0       19.719763    1.798159   -2.034214
    135          1           0       20.947923    1.419004    2.407037
    136          1           0       22.111810    1.558787    0.932633
    137          1           0       21.240897    2.887886    1.767583
 ---------------------------------------------------------------------

 SCF Done:  E(RCAM-B3LYP) =  -2932.62926381     A.U. after   18 cycles

 Excitation energies and oscillator strengths:

 Excited State   1:      Singlet-A      1.9850 eV  624.61 nm  f=0.2435  <S**2>=0.000
     240 -> 243       -0.26028
     241 -> 242        0.65524
 This state for optimization and/or second-order correction.
 Total Energy, E(TD-HF/TD-KS) =  -2932.55631720
 Copying the excited state density for this state as the 1-particle RhoCI density.

 The electronic state is 1-A.
 Alpha  occ. eigenvalues --  -46.85145 -19.26309 -19.25792 -19.22151 -19.20637
 Alpha  occ. eigenvalues --  -19.20242 -14.41992 -14.39704 -14.39434 -14.39055
 Alpha  occ. eigenvalues --  -10.40173 -10.39004 -10.35093 -10.32418 -10.30881
 Alpha  occ. eigenvalues --  -10.30728 -10.30604 -10.30206 -10.29430 -10.29047
 Alpha  occ. eigenvalues --  -10.28923 -10.28890 -10.28884 -10.28878 -10.28800
 Alpha  occ. eigenvalues --  -10.28642 -10.28345 -10.28331 -10.28024 -10.27996
 Alpha  occ. eigenvalues --  -10.27960 -10.27888 -10.26981 -10.26871 -10.26855
 Alpha  occ. eigenvalues --  -10.26808 -10.26794 -10.26760 -10.26753 -10.26708
 Alpha  occ. eigenvalues --  -10.26693 -10.26272 -10.26245 -10.26238 -10.26024
 Alpha  occ. eigenvalues --  -10.25935 -10.25802 -10.25800 -10.25661 -10.25637
 Alpha  occ. eigenvalues --  -10.25635 -10.25516 -10.25428 -10.25369 -10.25114
 Alpha  occ. eigenvalues --  -10.24865 -10.24766 -10.24723 -10.24500 -10.23982
 Alpha  occ. eigenvalues --  -10.23955 -10.23842 -10.23693 -10.23628 -10.23454
 Alpha  occ. eigenvalues --   -3.14044  -1.88759  -1.88270  -1.88219  -1.16955
 Alpha  occ. eigenvalues --   -1.16062  -1.12182  -1.09245  -1.05352  -1.05109
 Alpha  occ. eigenvalues --   -1.04109  -1.03776  -1.02255  -0.92810  -0.92002
 Alpha  occ. eigenvalues --   -0.91050  -0.90787  -0.89940  -0.89213  -0.89172
 Alpha  occ. eigenvalues --   -0.88567  -0.88077  -0.87244  -0.86882  -0.86659
 Alpha  occ. eigenvalues --   -0.85763  -0.84420  -0.83529  -0.83112  -0.82564
 Alpha  occ. eigenvalues --   -0.81819  -0.80885  -0.80690  -0.80611  -0.78725
 Alpha  occ. eigenvalues --   -0.78174  -0.77254  -0.77054  -0.76096  -0.75928
 Alpha  occ. eigenvalues --   -0.75262  -0.75142  -0.74195  -0.73213  -0.72171
 Alpha  occ. eigenvalues --   -0.71492  -0.71333  -0.69971  -0.69190  -0.68398
 Alpha  occ. eigenvalues --   -0.67413  -0.67149  -0.66590  -0.65208  -0.64895
 Alpha  occ. eigenvalues --   -0.64869  -0.64134  -0.64107  -0.63639  -0.62545
 Alpha  occ. eigenvalues --   -0.61695  -0.60835  -0.60152  -0.59822  -0.58920
 Alpha  occ. eigenvalues --   -0.58623  -0.58032  -0.57562  -0.57374  -0.56438
 Alpha  occ. eigenvalues --   -0.55977  -0.55818  -0.55386  -0.54865  -0.54380
 Alpha  occ. eigenvalues --   -0.54307  -0.54076  -0.53806  -0.53483  -0.53329
 Alpha  occ. eigenvalues --   -0.52955  -0.52738  -0.52303  -0.52098  -0.52075
 Alpha  occ. eigenvalues --   -0.51549  -0.51236  -0.51175  -0.50856  -0.50782
 Alpha  occ. eigenvalues --   -0.50636  -0.50417  -0.50105  -0.49921  -0.49724
 Alpha  occ. eigenvalues --   -0.49510  -0.49497  -0.49159  -0.49064  -0.48996
 Alpha  occ. eigenvalues --   -0.48663  -0.48291  -0.48176  -0.47696  -0.47190
 Alpha  occ. eigenvalues --   -0.47170  -0.46941  -0.46608  -0.46557  -0.46445
 Alpha  occ. eigenvalues --   -0.46220  -0.45886  -0.45674  -0.45367  -0.45299
 Alpha  occ. eigenvalues --   -0.45162  -0.44953  -0.44852  -0.44466  -0.44029
 Alpha  occ. eigenvalues --   -0.43856  -0.43725  -0.43654  -0.43375  -0.43354
 Alpha  occ. eigenvalues --   -0.43007  -0.42842  -0.42815  -0.42339  -0.42234
 Alpha  occ. eigenvalues --   -0.41993  -0.41836  -0.41680  -0.41514  -0.41383
 Alpha  occ. eigenvalues --   -0.41194  -0.41077  -0.40787  -0.40637  -0.40425
 Alpha  occ. eigenvalues --   -0.39958  -0.39779  -0.39594  -0.39504  -0.39251
 Alpha  occ. eigenvalues --   -0.38963  -0.38662  -0.38593  -0.38351  -0.38084
 Alpha  occ. eigenvalues --   -0.37960  -0.37873  -0.37055  -0.36827  -0.36696
 Alpha  occ. eigenvalues --   -0.36460  -0.36163  -0.35977  -0.35671  -0.35658
 Alpha  occ. eigenvalues --   -0.34968  -0.34879  -0.34641  -0.34572  -0.33161
 Alpha  occ. eigenvalues --   -0.32900  -0.32677  -0.32248  -0.30725  -0.29862
 Alpha  occ. eigenvalues --   -0.29363  -0.27958  -0.27903  -0.27303  -0.22998
 Alpha  occ. eigenvalues --   -0.20736
 Alpha virt. eigenvalues --   -0.06307  -0.03041   0.00872   0.04002   0.04104
 Alpha virt. eigenvalues --    0.04769   0.05053   0.05202   0.06934   0.07360
 Alpha virt. eigenvalues --    0.08108   0.10310   0.11522   0.11699   0.12314

 Mulliken charges:
               1
     1  Mg   0.829819
     2  C    0.047847
     3  C   -0.162424
     4  C   -0.198368
     5  C   -0.165193
     6  N   -0.636754
     7  C    0.318438
     8  C   -0.186968
     9  C   -0.158103
    10  C    0.343187
    11  C   -0.299807
    12  C   -0.175527
    13  C   -0.265198
    14  C    0.638319
    15  O   -0.536409
    16  O   -0.502844
    17  N   -0.726027
    18  C    0.296242
    19  C    0.031537
    20  C   -0.018554
    21  C    0.334914
    22  C   -0.357232
    23  C   -0.090293
    24  C   -0.234620
    25  N   -0.677065
    26  C    0.296628
    27  C   -0.016038
    28  C   -0.000910
    29  C    0.312654
    30  C   -0.359250
    31  C   -0.236749
    32  C   -0.302808
    33  N   -0.724284
    34  C    0.268726
    35  C    0.010941
    36  C    0.012872
    37  C    0.310760
    38  C   -0.385421
    39  C    0.335666
    40  O   -0.444465
    41  C   -0.343625
    42  C    0.641830
    43  O   -0.462608
    44  O   -0.463967
    45  C   -0.076285
    46  C    0.012743
    47  C   -0.128625
    48  C    0.107928
    49  C   -0.380751
    50  C   -0.239512
    51  C   -0.153939
    52  C   -0.186080
    53  C   -0.060098
    54  C   -0.299672
    55  C   -0.170373
    56  C   -0.172842
    57  C   -0.179406
    58  C   -0.034261
    59  C   -0.308377
    60  C   -0.195379
    61  C   -0.197675
    62  C   -0.163386
    63  C   -0.036373
    64  C   -0.312019
    65  C   -0.298023
    66  H    0.057693
    67  H    0.090570
    68  H    0.084295
    69  H    0.122704
    70  H    0.100329
    71  H    0.106383
    72  H    0.108373
    73  H    0.127194
    74  H    0.114013
    75  H    0.129036
    76  H    0.156300
    77  H    0.145299
    78  H    0.139842
    79  H    0.120149
    80  H    0.098822
    81  H    0.092517
    82  H    0.102136
    83  H    0.098980
    84  H    0.131278
    85  H    0.111290
    86  H    0.137516
    87  H    0.107941
    88  H    0.095720
    89  H    0.115570
    90  H    0.120212
    91  H    0.088395
    92  H    0.118334
    93  H    0.145426
    94  H    0.137352
    95  H    0.175580
    96  H    0.106696
    97  H    0.139205
    98  H    0.117842
    99  H    0.138185
   100  H    0.129720
   101  H    0.087681
   102  H    0.119976
   103  H    0.108805
   104  H    0.127066
   105  H    0.096460
   106  H    0.098970
   107  H    0.095121
   108  H    0.098429
   109  H    0.084951
   110  H    0.084341
   111  H    0.085123
   112  H    0.086006
   113  H    0.111833
   114  H    0.099587
   115  H    0.058604
   116  H    0.101931
   117  H    0.109746
   118  H    0.101165
   119  H    0.073742
   120  H    0.096575
   121  H    0.088857
   122  H    0.062257
   123  H    0.100860
   124  H    0.105383
   125  H    0.092331
   126  H    0.090108
   127  H    0.087834
   128  H    0.093426
   129  H    0.088299
   130  H    0.077337
   131  H    0.115168
   132  H    0.105794
   133  H    0.085450
   134  H    0.062436
   135  H    0.106731
   136  H    0.113800
   137  H    0.060454
 Sum of Mulliken charges =   0.00000

 Dipole moment (field-independent basis, Debye):
    X=              2.5276    Y=              4.2288    Z=              0.0125  Tot=              4.9266
 Quadrupole moment (field-independent basis, Debye-Ang):
   XX=           -340.7494   YY=           -397.4433   ZZ=           -396.0970
   XY=            -18.2449   XZ=              8.4484   YZ=             -3.9334

 Normal termination of Gaussian 09 at Sat Jun 29 01:04:10 2019.
