 Gaussian 09, Revision D.01,
 Gaussian 09:  ES64L-G09RevD.01 24-Apr-2013

 -------------------------------------
 # td=(NStates=1) CAM-B3LYP/6-31G(d,p)
 -------------------------------------

 --
 TD
 --
 Symbolic Z-matrix:
 Charge =  0 Multiplicity = 1

                         Standard orientation:
 ---------------------------------------------------------------------
 Center     Atomic      Atomic             Coordinates (Angstroms)
 Number     Number       Type             X           Y           Z
 ---------------------------------------------------------------------
      1         12           0       -7.159471    0.618704    0.041073
      2          6           0       -4.816711   -1.947607    0.446028
      3          6           0       -4.869375    2.883252    1.235578
      4          6           0       -9.478040    3.094061   -0.404148
      5          6           0       -9.542123   -1.763184   -0.845142
      6          7           0       -5.108743    0.462381    0.772636
      7          6           0       -4.314815   -0.724477    0.658146
      8          6           0       -2.922657   -0.336033    1.128207
      9          6           0       -3.011026    1.115853    1.621222
     10          6           0       -4.374829    1.529963    1.195413
     11          6           0       -2.923494    1.293470    3.195048
     12          6           0       -1.886991   -0.617366    0.136133
     13          6           0       -0.426832   -0.433869    0.518519
     14          6           0        0.508116   -0.744240   -0.584935
     15          8           0        0.252904   -1.303426   -1.700171
     16          8           0        1.775891   -0.500127   -0.259044
     17          7           0       -7.144303    2.659871    0.343255
     18          6           0       -6.061543    3.330601    0.860615
     19          6           0       -6.392911    4.763317    0.876519
     20          6           0       -7.708038    4.871425    0.378145
     21          6           0       -8.174274    3.488883    0.079194
     22          6           0       -5.437612    5.875909    1.282886
     23          6           0       -8.614855    6.061270    0.209883
     24          6           0       -8.239046    7.300748   -0.109628
     25          7           0       -9.146537    0.615818   -0.531028
     26          6           0       -9.878556    1.788267   -0.688870
     27          6           0      -11.180379    1.423319   -0.943204
     28          6           0      -11.312943    0.057036   -1.032574
     29          6           0      -10.011542   -0.455654   -0.699716
     30          6           0      -12.273283    2.435078   -1.138074
     31          6           0      -12.444432   -0.790873   -1.386645
     32          6           0      -12.549964   -1.027051   -2.952213
     33          7           0       -7.267334   -1.420711   -0.238600
     34          6           0       -8.247192   -2.188003   -0.511327
     35          6           0       -7.857113   -3.639885   -0.601030
     36          6           0       -6.567256   -3.550729   -0.214563
     37          6           0       -6.139413   -2.160142   -0.019701
     38          6           0       -8.621934   -4.858239   -0.840597
     39          6           0       -5.324343   -4.370027    0.064433
     40          8           0       -5.186106   -5.549189    0.011050
     41          6           0       -4.191754   -3.366432    0.489260
     42          6           0       -3.559065   -3.635193    1.801803
     43          8           0       -3.903062   -3.110700    2.864705
     44          8           0       -2.767551   -4.613737    1.780269
     45          6           0       -2.195658   -5.092581    3.012591
     46          6           0        2.783481   -0.747068   -1.126726
     47          6           0        4.111814   -0.402340   -0.501184
     48          6           0        5.086608    0.386204   -1.040894
     49          6           0        5.044143    1.044817   -2.481388
     50          6           0        6.452594    0.519158   -0.326576
     51          6           0        7.681218   -0.141736   -1.069818
     52          6           0        8.934443    0.038666   -0.245640
     53          6           0       10.264039   -0.466824   -0.896309
     54          6           0       10.249570   -2.014045   -1.305719
     55          6           0       11.543409   -0.166276    0.003654
     56          6           0       12.914878   -0.499563   -0.713513
     57          6           0       13.986836   -0.076437    0.301570
     58          6           0       15.346482   -0.233184   -0.265502
     59          6           0       15.662359   -1.649306   -0.960950
     60          6           0       16.367270    0.397375    0.627314
     61          6           0       17.822281    0.631403   -0.070892
     62          6           0       18.809365    1.295644    0.767285
     63          6           0       20.211737    1.220487    0.235613
     64          6           0       20.436491    2.056266   -1.065061
     65          6           0       21.145744    1.737996    1.341827
     66          1           0       -4.113781    3.742374    1.406745
     67          1           0      -10.168225    3.889332   -0.749298
     68          1           0      -10.258327   -2.644456   -0.978658
     69          1           0       -2.735824   -0.947996    2.142465
     70          1           0       -2.321102    1.669265    1.205928
     71          1           0       -1.880154    0.829027    3.510805
     72          1           0       -2.856209    2.424511    3.513652
     73          1           0       -3.663504    0.532186    3.717577
     74          1           0       -1.960762   -1.718353   -0.065633
     75          1           0       -1.928612    0.006193   -0.777743
     76          1           0       -0.127913    0.542312    1.044778
     77          1           0       -0.304827   -1.114488    1.410851
     78          1           0       -4.675691    6.579271    0.501132
     79          1           0       -5.894607    6.756093    1.775383
     80          1           0       -4.584382    5.287821    1.989274
     81          1           0       -9.707075    5.573393    0.305203
     82          1           0       -9.058794    7.885502   -0.406589
     83          1           0       -7.135229    7.617481   -0.485823
     84          1           0      -12.069886    3.020106   -2.151904
     85          1           0      -13.330339    1.748721   -1.184906
     86          1           0      -12.687981    3.048829   -0.469607
     87          1           0      -12.361814   -1.792541   -0.916963
     88          1           0      -13.340493   -0.194305   -0.870940
     89          1           0      -13.287688   -1.703091   -3.353938
     90          1           0      -12.927456    0.085376   -3.339581
     91          1           0      -11.420598   -1.481453   -3.268749
     92          1           0       -9.284588   -4.907876   -1.743506
     93          1           0       -7.887521   -5.772871   -0.976278
     94          1           0       -9.414282   -4.847550   -0.159692
     95          1           0       -3.329482   -3.425775   -0.312396
     96          1           0       -1.546320   -4.231764    3.476038
     97          1           0       -3.025149   -5.396888    3.590130
     98          1           0       -1.703187   -6.043323    2.717507
     99          1           0        2.886282   -1.914194   -1.611696
    100          1           0        2.536311   -0.386206   -2.105979
    101          1           0        4.029748   -0.723811    0.297772
    102          1           0        4.033539    0.852080   -2.930803
    103          1           0        5.368618    2.031934   -2.386201
    104          1           0        5.881384    0.770806   -3.227074
    105          1           0        6.628496    1.556997   -0.182954
    106          1           0        6.362905   -0.049982    0.652653
    107          1           0        7.617535   -1.149338   -1.254492
    108          1           0        7.728465    0.462660   -1.989953
    109          1           0        9.083268    1.128288    0.175115
    110          1           0        8.613735   -0.545293    0.740386
    111          1           0       10.480906   -0.030993   -1.673426
    112          1           0        9.333610   -2.134296   -1.905600
    113          1           0       11.281340   -2.160473   -1.799834
    114          1           0       10.258614   -2.524145   -0.391756
    115          1           0       11.640910    0.954378    0.470146
    116          1           0       11.292495   -0.893586    0.923907
    117          1           0       12.871808   -1.723598   -0.919507
    118          1           0       12.970325   -0.039567   -1.653470
    119          1           0       13.754109    1.106233    0.398075
    120          1           0       14.052014   -0.731192    1.165941
    121          1           0       15.496053    0.522803   -1.238164
    122          1           0       15.650468   -2.536631   -0.174413
    123          1           0       15.041588   -2.050357   -1.780377
    124          1           0       16.685925   -1.619713   -1.254073
    125          1           0       16.052158    1.341496    0.978055
    126          1           0       16.647579   -0.324469    1.376901
    127          1           0       18.141553   -0.350600   -0.688058
    128          1           0       17.595658    1.394330   -0.867472
    129          1           0       18.470869    2.232864    0.785430
    130          1           0       18.951265    0.951289    1.944390
    131          1           0       20.462615    0.172741    0.094807
    132          1           0       20.204211    3.330283   -0.887427
    133          1           0       21.498030    2.314058   -1.437087
    134          1           0       19.785660    1.825923   -1.929284
    135          1           0       20.974444    1.249517    2.293106
    136          1           0       22.156044    1.638911    1.139683
    137          1           0       20.799428    2.754649    1.720198
 ---------------------------------------------------------------------

 SCF Done:  E(RCAM-B3LYP) =  -2932.54308338     A.U. after   18 cycles

 Excitation energies and oscillator strengths:

 Excited State   1:      Singlet-A      2.0236 eV  612.70 nm  f=0.2355  <S**2>=0.000
     240 -> 243        0.24559
     241 -> 242        0.66039
 This state for optimization and/or second-order correction.
 Total Energy, E(TD-HF/TD-KS) =  -2932.46871879
 Copying the excited state density for this state as the 1-particle RhoCI density.

 The electronic state is 1-A.
 Alpha  occ. eigenvalues --  -46.84727 -19.27788 -19.27310 -19.21233 -19.21135
 Alpha  occ. eigenvalues --  -19.19406 -14.42429 -14.39568 -14.39212 -14.38199
 Alpha  occ. eigenvalues --  -10.40490 -10.38748 -10.35841 -10.32892 -10.32258
 Alpha  occ. eigenvalues --  -10.31848 -10.30521 -10.30137 -10.29674 -10.29598
 Alpha  occ. eigenvalues --  -10.29503 -10.29172 -10.28976 -10.28911 -10.28556
 Alpha  occ. eigenvalues --  -10.28532 -10.28453 -10.28059 -10.28031 -10.27962
 Alpha  occ. eigenvalues --  -10.27888 -10.27858 -10.27610 -10.27595 -10.27451
 Alpha  occ. eigenvalues --  -10.27361 -10.27205 -10.27182 -10.27148 -10.27131
 Alpha  occ. eigenvalues --  -10.27104 -10.26912 -10.26859 -10.26818 -10.26720
 Alpha  occ. eigenvalues --  -10.26679 -10.26631 -10.26491 -10.26471 -10.26418
 Alpha  occ. eigenvalues --  -10.26370 -10.26344 -10.26078 -10.26022 -10.25680
 Alpha  occ. eigenvalues --  -10.25354 -10.25200 -10.25134 -10.25117 -10.24963
 Alpha  occ. eigenvalues --  -10.24798 -10.24608 -10.24592 -10.24358 -10.23799
 Alpha  occ. eigenvalues --   -3.13575  -1.88305  -1.87810  -1.87726  -1.21641
 Alpha  occ. eigenvalues --   -1.20758  -1.13237  -1.07905  -1.07590  -1.05565
 Alpha  occ. eigenvalues --   -1.03529  -1.02708  -1.01806  -0.92865  -0.91560
 Alpha  occ. eigenvalues --   -0.90965  -0.90346  -0.89548  -0.88886  -0.88458
 Alpha  occ. eigenvalues --   -0.87887  -0.87754  -0.87523  -0.87322  -0.86762
 Alpha  occ. eigenvalues --   -0.85530  -0.84827  -0.83796  -0.83062  -0.82058
 Alpha  occ. eigenvalues --   -0.81864  -0.81338  -0.80625  -0.79716  -0.78701
 Alpha  occ. eigenvalues --   -0.77644  -0.76837  -0.76007  -0.75728  -0.75519
 Alpha  occ. eigenvalues --   -0.74877  -0.74802  -0.74053  -0.73589  -0.72420
 Alpha  occ. eigenvalues --   -0.71923  -0.70581  -0.69559  -0.68725  -0.68451
 Alpha  occ. eigenvalues --   -0.66634  -0.66482  -0.65760  -0.65228  -0.64917
 Alpha  occ. eigenvalues --   -0.64502  -0.64339  -0.63735  -0.63146  -0.62648
 Alpha  occ. eigenvalues --   -0.62584  -0.60987  -0.60561  -0.59953  -0.59303
 Alpha  occ. eigenvalues --   -0.58907  -0.58193  -0.58102  -0.57769  -0.57359
 Alpha  occ. eigenvalues --   -0.56507  -0.56023  -0.55484  -0.55311  -0.55070
 Alpha  occ. eigenvalues --   -0.54884  -0.54243  -0.54186  -0.54061  -0.53715
 Alpha  occ. eigenvalues --   -0.53534  -0.52511  -0.52264  -0.52072  -0.51837
 Alpha  occ. eigenvalues --   -0.51614  -0.51158  -0.51048  -0.50411  -0.50189
 Alpha  occ. eigenvalues --   -0.50101  -0.49966  -0.49660  -0.49463  -0.49363
 Alpha  occ. eigenvalues --   -0.49168  -0.49064  -0.48730  -0.48453  -0.48269
 Alpha  occ. eigenvalues --   -0.48044  -0.47684  -0.47582  -0.47439  -0.47016
 Alpha  occ. eigenvalues --   -0.47010  -0.46707  -0.46480  -0.46306  -0.46075
 Alpha  occ. eigenvalues --   -0.45902  -0.45748  -0.45377  -0.45236  -0.44886
 Alpha  occ. eigenvalues --   -0.44633  -0.44517  -0.44442  -0.44151  -0.44102
 Alpha  occ. eigenvalues --   -0.43848  -0.43733  -0.43527  -0.43204  -0.43042
 Alpha  occ. eigenvalues --   -0.42676  -0.42632  -0.42502  -0.42282  -0.42143
 Alpha  occ. eigenvalues --   -0.41906  -0.41723  -0.41562  -0.41351  -0.41013
 Alpha  occ. eigenvalues --   -0.40963  -0.40862  -0.40476  -0.40181  -0.39916
 Alpha  occ. eigenvalues --   -0.39863  -0.39204  -0.39187  -0.38948  -0.38892
 Alpha  occ. eigenvalues --   -0.38501  -0.38269  -0.38114  -0.37731  -0.37516
 Alpha  occ. eigenvalues --   -0.37479  -0.36998  -0.36897  -0.36857  -0.36549
 Alpha  occ. eigenvalues --   -0.36373  -0.35926  -0.35805  -0.35615  -0.35290
 Alpha  occ. eigenvalues --   -0.35075  -0.35025  -0.33985  -0.33857  -0.33245
 Alpha  occ. eigenvalues --   -0.33069  -0.32466  -0.32200  -0.31521  -0.30434
 Alpha  occ. eigenvalues --   -0.29781  -0.29171  -0.27579  -0.27051  -0.23415
 Alpha  occ. eigenvalues --   -0.20588
 Alpha virt. eigenvalues --   -0.06014  -0.03416   0.01557   0.03585   0.03821
 Alpha virt. eigenvalues --    0.05858   0.05935   0.05960   0.06817   0.06919
 Alpha virt. eigenvalues --    0.08250   0.10232   0.10608   0.10833   0.11046

 Mulliken charges:
               1
     1  Mg   0.824057
     2  C    0.154644
     3  C   -0.210502
     4  C   -0.183202
     5  C   -0.143809
     6  N   -0.632666
     7  C    0.259858
     8  C   -0.189243
     9  C   -0.113291
    10  C    0.333864
    11  C   -0.309411
    12  C   -0.157031
    13  C   -0.292638
    14  C    0.624178
    15  O   -0.505624
    16  O   -0.427399
    17  N   -0.745623
    18  C    0.381489
    19  C    0.017909
    20  C   -0.017869
    21  C    0.317673
    22  C   -0.352783
    23  C   -0.063874
    24  C   -0.257659
    25  N   -0.713189
    26  C    0.327687
    27  C    0.022160
    28  C    0.062934
    29  C    0.263383
    30  C   -0.367658
    31  C   -0.254272
    32  C   -0.283175
    33  N   -0.694373
    34  C    0.267300
    35  C    0.032421
    36  C   -0.019863
    37  C    0.225759
    38  C   -0.399133
    39  C    0.393903
    40  O   -0.433290
    41  C   -0.340744
    42  C    0.613386
    43  O   -0.513028
    44  O   -0.405183
    45  C   -0.084796
    46  C    0.001486
    47  C   -0.061819
    48  C    0.098422
    49  C   -0.363668
    50  C   -0.230797
    51  C   -0.166143
    52  C   -0.167639
    53  C   -0.053156
    54  C   -0.321984
    55  C   -0.172136
    56  C   -0.174376
    57  C   -0.148726
    58  C   -0.047634
    59  C   -0.319346
    60  C   -0.171143
    61  C   -0.207718
    62  C   -0.133342
    63  C   -0.039209
    64  C   -0.304059
    65  C   -0.317037
    66  H    0.086601
    67  H    0.099118
    68  H    0.084221
    69  H    0.116087
    70  H    0.105294
    71  H    0.086061
    72  H    0.112792
    73  H    0.134392
    74  H    0.117454
    75  H    0.121444
    76  H    0.131256
    77  H    0.139657
    78  H    0.081053
    79  H    0.135786
    80  H    0.081613
    81  H    0.096938
    82  H    0.109010
    83  H    0.110755
    84  H    0.107480
    85  H    0.060251
    86  H    0.136686
    87  H    0.102940
    88  H    0.088869
    89  H    0.114974
    90  H    0.092361
    91  H    0.091864
    92  H    0.115346
    93  H    0.145915
    94  H    0.139896
    95  H    0.158441
    96  H    0.128319
    97  H    0.151452
    98  H    0.134402
    99  H    0.080405
   100  H    0.118588
   101  H    0.049432
   102  H    0.113868
   103  H    0.124747
   104  H    0.110748
   105  H    0.107498
   106  H    0.090816
   107  H    0.112212
   108  H    0.087208
   109  H    0.075682
   110  H    0.066383
   111  H    0.095257
   112  H    0.105033
   113  H    0.095628
   114  H    0.113791
   115  H    0.064469
   116  H    0.072028
   117  H    0.073025
   118  H    0.109622
   119  H    0.081159
   120  H    0.106823
   121  H    0.038016
   122  H    0.072008
   123  H    0.115545
   124  H    0.110096
   125  H    0.101266
   126  H    0.096685
   127  H    0.072197
   128  H    0.090576
   129  H    0.108333
   130  H    0.057223
   131  H    0.097808
   132  H    0.044563
   133  H    0.104129
   134  H    0.111597
   135  H    0.097296
   136  H    0.105738
   137  H    0.092517
 Sum of Mulliken charges =   0.00000

 Dipole moment (field-independent basis, Debye):
    X=              3.1638    Y=              2.9154    Z=              0.8464  Tot=              4.3847
 Quadrupole moment (field-independent basis, Debye-Ang):
   XX=           -364.5314   YY=           -391.3495   ZZ=           -402.0386
   XY=             -7.7476   XZ=              6.9789   YZ=             -8.8375

 Normal termination of Gaussian 09 at Sun Jun 30 18:45:06 2019.
