 Gaussian 09, Revision D.01,
 Gaussian 09:  ES64L-G09RevD.01 24-Apr-2013

 -------------------------------------
 # td=(NStates=1) CAM-B3LYP/6-31G(d,p)
 -------------------------------------

 --
 TD
 --
 Symbolic Z-matrix:
 Charge =  0 Multiplicity = 1

                         Standard orientation:
 ---------------------------------------------------------------------
 Center     Atomic      Atomic             Coordinates (Angstroms)
 Number     Number       Type             X           Y           Z
 ---------------------------------------------------------------------
      1         12           0       -7.075116    0.577650    0.168478
      2          6           0       -4.840582   -1.862294    0.364104
      3          6           0       -4.937643    2.896843    1.152690
      4          6           0       -9.485449    3.090807   -0.341414
      5          6           0       -9.558997   -1.844950   -0.929716
      6          7           0       -5.180025    0.442202    0.771854
      7          6           0       -4.337632   -0.672664    0.741752
      8          6           0       -2.854719   -0.331133    1.180414
      9          6           0       -2.989828    1.176281    1.680631
     10          6           0       -4.419640    1.515070    1.186200
     11          6           0       -3.040242    1.353271    3.247325
     12          6           0       -1.811060   -0.499062    0.140218
     13          6           0       -0.446060   -0.310707    0.719362
     14          6           0        0.561890   -0.487189   -0.458642
     15          8           0        0.310697   -0.843398   -1.643800
     16          8           0        1.837465   -0.441468    0.060128
     17          7           0       -7.164757    2.552140    0.209241
     18          6           0       -6.154370    3.430966    0.721076
     19          6           0       -6.499415    4.776010    0.814478
     20          6           0       -7.850169    4.784480    0.333915
     21          6           0       -8.266308    3.440280    0.111055
     22          6           0       -5.662995    5.917626    1.446026
     23          6           0       -8.686593    5.955255    0.262563
     24          6           0       -8.298108    7.233337   -0.058469
     25          7           0       -9.214800    0.571132   -0.485754
     26          6           0       -9.936770    1.702660   -0.630610
     27          6           0      -11.281388    1.399707   -1.085035
     28          6           0      -11.406902    0.050933   -1.242563
     29          6           0       -9.995086   -0.481484   -0.889177
     30          6           0      -12.264415    2.375571   -1.408673
     31          6           0      -12.521828   -0.855072   -1.655714
     32          6           0      -12.371973   -1.096623   -3.202424
     33          7           0       -7.236240   -1.449557   -0.293481
     34          6           0       -8.279635   -2.293045   -0.625025
     35          6           0       -7.788425   -3.629972   -0.576230
     36          6           0       -6.504538   -3.615058   -0.194050
     37          6           0       -6.168396   -2.113809    0.072364
     38          6           0       -8.566349   -4.876779   -0.815833
     39          6           0       -5.282513   -4.327222    0.123938
     40          8           0       -5.009465   -5.509486    0.169265
     41          6           0       -4.192976   -3.293750    0.434356
     42          6           0       -3.635970   -3.658524    1.870601
     43          8           0       -3.856012   -3.154081    2.966049
     44          8           0       -2.771514   -4.764611    1.735107
     45          6           0       -2.307658   -5.171709    2.961324
     46          6           0        2.865617   -0.717721   -1.059412
     47          6           0        4.240711   -0.408250   -0.387734
     48          6           0        5.196190    0.316970   -0.945408
     49          6           0        4.992143    1.163592   -2.169247
     50          6           0        6.528903    0.456427   -0.196053
     51          6           0        7.665569   -0.109299   -1.018866
     52          6           0        8.924800   -0.114106   -0.241142
     53          6           0       10.261366   -0.622608   -0.943034
     54          6           0       10.146592   -2.123474   -1.348394
     55          6           0       11.474799   -0.350053   -0.073760
     56          6           0       12.843802   -0.592796   -0.707550
     57          6           0       14.010148   -0.124119    0.187244
     58          6           0       15.444934   -0.197599   -0.574640
     59          6           0       15.641330   -1.555326   -0.932886
     60          6           0       16.490918    0.462605    0.268427
     61          6           0       17.889472    0.570636   -0.236864
     62          6           0       18.837712    1.237478    0.670290
     63          6           0       20.298239    1.313620    0.291966
     64          6           0       20.589906    2.192598   -1.001269
     65          6           0       21.168667    1.799381    1.388902
     66          1           0       -4.259093    3.469097    1.837733
     67          1           0      -10.197628    3.822267   -0.482526
     68          1           0      -10.071840   -2.512103   -1.652511
     69          1           0       -2.803716   -0.875824    2.136457
     70          1           0       -2.175398    1.786236    1.375390
     71          1           0       -2.038411    0.955231    3.507665
     72          1           0       -3.284221    2.372756    3.588767
     73          1           0       -3.857572    0.722421    3.566557
     74          1           0       -1.894839   -1.689163   -0.044913
     75          1           0       -2.089273    0.139013   -0.636576
     76          1           0       -0.577794    0.859489    0.961014
     77          1           0       -0.193307   -0.799127    1.748610
     78          1           0       -5.076783    6.572414    0.631147
     79          1           0       -6.284213    6.646595    1.926347
     80          1           0       -4.978379    5.542950    2.139448
     81          1           0       -9.759797    5.863499    0.561305
     82          1           0       -8.922444    8.126618   -0.156914
     83          1           0       -7.135694    7.416942   -0.137955
     84          1           0      -11.995481    2.900807   -2.455851
     85          1           0      -13.080582    1.898734   -1.645838
     86          1           0      -12.507751    3.002040   -0.607869
     87          1           0      -12.670079   -1.823553   -1.107511
     88          1           0      -13.519291   -0.459117   -1.227617
     89          1           0      -13.129581   -1.793300   -3.579742
     90          1           0      -12.174240   -0.147780   -3.721663
     91          1           0      -11.203398   -1.357295   -3.577460
     92          1           0       -8.980073   -5.041837   -1.783539
     93          1           0       -7.998713   -5.688583   -0.497919
     94          1           0       -9.355293   -5.018159   -0.029787
     95          1           0       -3.318735   -3.178337   -0.325342
     96          1           0       -1.601418   -4.448786    3.393407
     97          1           0       -3.059681   -5.392839    3.746249
     98          1           0       -1.677722   -6.167150    2.685899
     99          1           0        2.586011   -1.617069   -1.407033
    100          1           0        2.867479   -0.093532   -1.899481
    101          1           0        4.316898   -0.724873    0.643505
    102          1           0        3.903261    1.488917   -2.145037
    103          1           0        5.683083    2.214875   -2.173026
    104          1           0        5.336031    0.762912   -3.165872
    105          1           0        6.662699    1.492717    0.124065
    106          1           0        6.418011   -0.032521    0.729334
    107          1           0        7.436676   -1.089385   -1.203227
    108          1           0        7.819295    0.620175   -1.912532
    109          1           0        9.239051    1.010418    0.096623
    110          1           0        8.939710   -0.569632    0.735556
    111          1           0       10.296805   -0.075118   -2.041118
    112          1           0        9.514998   -2.335585   -2.134367
    113          1           0       10.998121   -2.564622   -1.702825
    114          1           0        9.824563   -2.628865   -0.331534
    115          1           0       11.561955    0.653916    0.575233
    116          1           0       11.465600   -1.102110    0.779660
    117          1           0       12.752342   -1.684614   -0.830770
    118          1           0       12.819808   -0.091089   -1.674097
    119          1           0       13.952807    0.871936    0.584865
    120          1           0       14.275183   -0.866810    1.055604
    121          1           0       15.383058    0.539742   -1.485654
    122          1           0       15.648631   -2.406442   -0.236009
    123          1           0       14.644030   -2.021864   -1.450572
    124          1           0       16.574243   -1.716759   -1.572101
    125          1           0       16.019169    1.498800    0.712119
    126          1           0       16.541096   -0.148489    1.084145
    127          1           0       18.316341   -0.312052   -0.430759
    128          1           0       17.977003    1.355855   -1.074935
    129          1           0       18.441939    2.263295    0.816590
    130          1           0       18.674066    0.791369    1.639469
    131          1           0       20.694575    0.349784   -0.170826
    132          1           0       20.245466    3.273828   -1.066748
    133          1           0       21.740820    1.985987   -1.173842
    134          1           0       20.006682    1.669130   -1.726995
    135          1           0       21.171267    1.210302    2.334657
    136          1           0       22.207640    1.819832    1.179819
    137          1           0       20.724336    2.808571    1.526594
 ---------------------------------------------------------------------

 SCF Done:  E(RCAM-B3LYP) =  -2932.68551278     A.U. after   17 cycles

 Excitation energies and oscillator strengths:

 Excited State   1:      Singlet-A      1.9638 eV  631.34 nm  f=0.2135  <S**2>=0.000
     240 -> 243       -0.25361
     241 -> 242        0.64806
 This state for optimization and/or second-order correction.
 Total Energy, E(TD-HF/TD-KS) =  -2932.61334375
 Copying the excited state density for this state as the 1-particle RhoCI density.

 The electronic state is 1-A.
 Alpha  occ. eigenvalues --  -46.84584 -19.26697 -19.25727 -19.22383 -19.21822
 Alpha  occ. eigenvalues --  -19.19558 -14.42404 -14.39525 -14.39406 -14.39199
 Alpha  occ. eigenvalues --  -10.40533 -10.40251 -10.34641 -10.32402 -10.31135
 Alpha  occ. eigenvalues --  -10.31017 -10.30757 -10.30280 -10.30142 -10.29687
 Alpha  occ. eigenvalues --  -10.29039 -10.28960 -10.28924 -10.28882 -10.28553
 Alpha  occ. eigenvalues --  -10.28381 -10.28350 -10.28333 -10.28050 -10.27903
 Alpha  occ. eigenvalues --  -10.27863 -10.27789 -10.27730 -10.27709 -10.27654
 Alpha  occ. eigenvalues --  -10.27642 -10.27542 -10.27329 -10.27310 -10.27142
 Alpha  occ. eigenvalues --  -10.26739 -10.26716 -10.26669 -10.26263 -10.26174
 Alpha  occ. eigenvalues --  -10.26170 -10.26157 -10.26142 -10.26094 -10.25989
 Alpha  occ. eigenvalues --  -10.25902 -10.25672 -10.25345 -10.25324 -10.25299
 Alpha  occ. eigenvalues --  -10.25143 -10.25023 -10.24986 -10.24827 -10.24614
 Alpha  occ. eigenvalues --  -10.24432 -10.24128 -10.23996 -10.23911 -10.23827
 Alpha  occ. eigenvalues --   -3.13643  -1.88332  -1.87907  -1.87815  -1.17609
 Alpha  occ. eigenvalues --   -1.15690  -1.10676  -1.09376  -1.07032  -1.04353
 Alpha  occ. eigenvalues --   -1.02975  -1.02345  -1.01309  -0.91993  -0.91835
 Alpha  occ. eigenvalues --   -0.91667  -0.91510  -0.89821  -0.88827  -0.88776
 Alpha  occ. eigenvalues --   -0.88689  -0.88366  -0.87860  -0.86874  -0.86219
 Alpha  occ. eigenvalues --   -0.85593  -0.84211  -0.83631  -0.83295  -0.82294
 Alpha  occ. eigenvalues --   -0.81827  -0.80619  -0.80039  -0.79740  -0.78310
 Alpha  occ. eigenvalues --   -0.77882  -0.76493  -0.76443  -0.75805  -0.75773
 Alpha  occ. eigenvalues --   -0.75247  -0.74866  -0.74767  -0.73280  -0.72667
 Alpha  occ. eigenvalues --   -0.71676  -0.70644  -0.69769  -0.69384  -0.68301
 Alpha  occ. eigenvalues --   -0.67078  -0.66717  -0.65679  -0.65053  -0.64470
 Alpha  occ. eigenvalues --   -0.63778  -0.63444  -0.62722  -0.62201  -0.61733
 Alpha  occ. eigenvalues --   -0.61683  -0.61044  -0.60575  -0.59266  -0.59087
 Alpha  occ. eigenvalues --   -0.58407  -0.57955  -0.57462  -0.56953  -0.56487
 Alpha  occ. eigenvalues --   -0.55860  -0.55664  -0.55527  -0.55419  -0.55191
 Alpha  occ. eigenvalues --   -0.54763  -0.54543  -0.54115  -0.53833  -0.53361
 Alpha  occ. eigenvalues --   -0.53231  -0.53015  -0.52121  -0.51929  -0.51815
 Alpha  occ. eigenvalues --   -0.51536  -0.51343  -0.51045  -0.50990  -0.50819
 Alpha  occ. eigenvalues --   -0.50618  -0.50355  -0.50171  -0.49759  -0.49610
 Alpha  occ. eigenvalues --   -0.49250  -0.48990  -0.48842  -0.48732  -0.48577
 Alpha  occ. eigenvalues --   -0.48341  -0.48186  -0.47659  -0.47628  -0.47344
 Alpha  occ. eigenvalues --   -0.47234  -0.46908  -0.46443  -0.46300  -0.46123
 Alpha  occ. eigenvalues --   -0.45962  -0.45863  -0.45507  -0.45194  -0.45081
 Alpha  occ. eigenvalues --   -0.44626  -0.44536  -0.44463  -0.44335  -0.44175
 Alpha  occ. eigenvalues --   -0.43907  -0.43858  -0.43650  -0.43601  -0.43211
 Alpha  occ. eigenvalues --   -0.43106  -0.42959  -0.42528  -0.42478  -0.42170
 Alpha  occ. eigenvalues --   -0.42101  -0.41855  -0.41694  -0.41600  -0.41271
 Alpha  occ. eigenvalues --   -0.41125  -0.40848  -0.40817  -0.40809  -0.40653
 Alpha  occ. eigenvalues --   -0.40257  -0.40099  -0.40036  -0.39505  -0.39287
 Alpha  occ. eigenvalues --   -0.39231  -0.38971  -0.38428  -0.38055  -0.37928
 Alpha  occ. eigenvalues --   -0.37299  -0.36741  -0.36609  -0.36497  -0.36399
 Alpha  occ. eigenvalues --   -0.35956  -0.35618  -0.35401  -0.35352  -0.35151
 Alpha  occ. eigenvalues --   -0.35034  -0.34721  -0.34215  -0.34192  -0.34169
 Alpha  occ. eigenvalues --   -0.33496  -0.32691  -0.32269  -0.30643  -0.30424
 Alpha  occ. eigenvalues --   -0.29738  -0.29667  -0.28028  -0.27339  -0.23045
 Alpha  occ. eigenvalues --   -0.20881
 Alpha virt. eigenvalues --   -0.06356  -0.03394   0.01179   0.03645   0.04098
 Alpha virt. eigenvalues --    0.05254   0.05614   0.05790   0.06609   0.07192
 Alpha virt. eigenvalues --    0.07735   0.10255   0.11174   0.11388   0.11854

 Mulliken charges:
               1
     1  Mg   0.837577
     2  C    0.010372
     3  C   -0.239470
     4  C   -0.170020
     5  C   -0.164863
     6  N   -0.655447
     7  C    0.294206
     8  C   -0.159424
     9  C   -0.166178
    10  C    0.314078
    11  C   -0.308792
    12  C   -0.132001
    13  C   -0.270737
    14  C    0.634884
    15  O   -0.489412
    16  O   -0.501494
    17  N   -0.730674
    18  C    0.317998
    19  C    0.053855
    20  C   -0.007513
    21  C    0.341960
    22  C   -0.358397
    23  C   -0.098986
    24  C   -0.246986
    25  N   -0.641043
    26  C    0.291958
    27  C    0.010826
    28  C    0.022582
    29  C    0.234107
    30  C   -0.360455
    31  C   -0.233955
    32  C   -0.307696
    33  N   -0.697475
    34  C    0.260877
    35  C   -0.011104
    36  C    0.034166
    37  C    0.285866
    38  C   -0.384304
    39  C    0.367648
    40  O   -0.460143
    41  C   -0.292222
    42  C    0.608114
    43  O   -0.467238
    44  O   -0.426909
    45  C   -0.074757
    46  C    0.014682
    47  C   -0.150373
    48  C    0.127944
    49  C   -0.370081
    50  C   -0.226582
    51  C   -0.156966
    52  C   -0.172020
    53  C   -0.052800
    54  C   -0.310320
    55  C   -0.181679
    56  C   -0.169756
    57  C   -0.181515
    58  C   -0.043030
    59  C   -0.312058
    60  C   -0.162663
    61  C   -0.161565
    62  C   -0.170573
    63  C   -0.069648
    64  C   -0.312371
    65  C   -0.285875
    66  H    0.065229
    67  H    0.085742
    68  H    0.113972
    69  H    0.136195
    70  H    0.112083
    71  H    0.106697
    72  H    0.117839
    73  H    0.134384
    74  H    0.099413
    75  H    0.138854
    76  H    0.110072
    77  H    0.148570
    78  H    0.107324
    79  H    0.134846
    80  H    0.123845
    81  H    0.100645
    82  H    0.116695
    83  H    0.091148
    84  H    0.101425
    85  H    0.119948
    86  H    0.118179
    87  H    0.110812
    88  H    0.096812
    89  H    0.112630
    90  H    0.120855
    91  H    0.082841
    92  H    0.127206
    93  H    0.147646
    94  H    0.118920
    95  H    0.165178
    96  H    0.106292
    97  H    0.127053
    98  H    0.097105
    99  H    0.147164
   100  H    0.122953
   101  H    0.099507
   102  H    0.126916
   103  H    0.086307
   104  H    0.127899
   105  H    0.102544
   106  H    0.100733
   107  H    0.116619
   108  H    0.094210
   109  H    0.063966
   110  H    0.095463
   111  H    0.050274
   112  H    0.112423
   113  H    0.111236
   114  H    0.081396
   115  H    0.072504
   116  H    0.081815
   117  H    0.104649
   118  H    0.101894
   119  H    0.094191
   120  H    0.079900
   121  H    0.071116
   122  H    0.104084
   123  H    0.083583
   124  H    0.093934
   125  H    0.060731
   126  H    0.093736
   127  H    0.102427
   128  H    0.079763
   129  H    0.082316
   130  H    0.083642
   131  H    0.073643
   132  H    0.094629
   133  H    0.089582
   134  H    0.109825
   135  H    0.090553
   136  H    0.100966
   137  H    0.098320
 Sum of Mulliken charges =   0.00000

 Dipole moment (field-independent basis, Debye):
    X=              1.1556    Y=              5.0231    Z=              1.0675  Tot=              5.2637
 Quadrupole moment (field-independent basis, Debye-Ang):
   XX=           -348.1785   YY=           -397.2154   ZZ=           -397.9681
   XY=            -31.6917   XZ=              5.3629   YZ=              4.1247

 Normal termination of Gaussian 09 at Fri Jun 28 15:17:30 2019.
