 Gaussian 09, Revision D.01,
 Gaussian 09:  ES64L-G09RevD.01 24-Apr-2013

 -------------------------------------
 # td=(NStates=1) CAM-B3LYP/6-31G(d,p)
 -------------------------------------

 --
 TD
 --
 Symbolic Z-matrix:
 Charge =  0 Multiplicity = 1

                         Standard orientation:
 ---------------------------------------------------------------------
 Center     Atomic      Atomic             Coordinates (Angstroms)
 Number     Number       Type             X           Y           Z
 ---------------------------------------------------------------------
      1         12           0       -7.157224    0.574323    0.007748
      2          6           0       -4.889270   -1.900838    0.533721
      3          6           0       -4.899888    2.861258    1.130043
      4          6           0       -9.523421    3.018774   -0.305426
      5          6           0       -9.465438   -1.745086   -0.919786
      6          7           0       -5.187654    0.547212    0.698220
      7          6           0       -4.402378   -0.673575    0.863753
      8          6           0       -2.982347   -0.257661    1.228396
      9          6           0       -3.155537    1.189204    1.660462
     10          6           0       -4.488529    1.512827    1.201052
     11          6           0       -3.077626    1.368818    3.219831
     12          6           0       -1.819223   -0.551112    0.158491
     13          6           0       -0.360811   -0.352701    0.677092
     14          6           0        0.538857   -0.640232   -0.515047
     15          8           0        0.164682   -0.971906   -1.635625
     16          8           0        1.798861   -0.316711   -0.204562
     17          7           0       -7.169908    2.492982    0.405182
     18          6           0       -6.196639    3.325663    0.715661
     19          6           0       -6.530003    4.785318    0.817711
     20          6           0       -7.853339    4.851533    0.333286
     21          6           0       -8.234624    3.502543    0.146982
     22          6           0       -5.663703    5.956650    1.128384
     23          6           0       -8.761129    6.017710    0.337434
     24          6           0       -8.457364    7.249263    0.099730
     25          7           0       -9.063510    0.618073   -0.540818
     26          6           0       -9.878004    1.689175   -0.560019
     27          6           0      -11.187069    1.317219   -1.098436
     28          6           0      -11.182427   -0.059902   -1.246366
     29          6           0       -9.862200   -0.514142   -0.880416
     30          6           0      -12.430258    2.334828   -1.231103
     31          6           0      -12.299214   -0.966103   -1.684857
     32          6           0      -12.358392   -1.224024   -3.275553
     33          7           0       -7.184154   -1.421338   -0.096703
     34          6           0       -8.167664   -2.296666   -0.585197
     35          6           0       -7.708306   -3.696205   -0.438274
     36          6           0       -6.387658   -3.544713   -0.128109
     37          6           0       -6.105996   -2.119044   -0.008018
     38          6           0       -8.501413   -4.913374   -0.878490
     39          6           0       -5.264495   -4.316917    0.262032
     40          8           0       -5.031720   -5.502914    0.267546
     41          6           0       -4.123549   -3.268811    0.583018
     42          6           0       -3.426037   -3.700049    1.867911
     43          8           0       -3.670415   -3.129614    2.962100
     44          8           0       -2.659938   -4.741183    1.841994
     45          6           0       -1.959149   -5.205568    3.017236
     46          6           0        2.836642   -0.633370   -1.137208
     47          6           0        4.182428   -0.367592   -0.499904
     48          6           0        5.144712    0.401333   -1.050465
     49          6           0        5.059990    1.224474   -2.362375
     50          6           0        6.447706    0.566844   -0.269332
     51          6           0        7.548784   -0.088402   -1.151223
     52          6           0        8.827085   -0.156667   -0.285262
     53          6           0       10.236228   -0.619968   -1.068492
     54          6           0       10.201590   -2.072762   -1.494371
     55          6           0       11.502690   -0.397627   -0.200789
     56          6           0       12.810198   -0.628313   -0.773573
     57          6           0       13.922437   -0.135458    0.070117
     58          6           0       15.390766   -0.141562   -0.493021
     59          6           0       15.679803   -1.685803   -0.851304
     60          6           0       16.375760    0.461424    0.550815
     61          6           0       17.869074    0.538042   -0.109471
     62          6           0       18.796283    1.303665    0.860013
     63          6           0       20.287639    1.408707    0.396362
     64          6           0       20.475429    2.039755   -1.099093
     65          6           0       21.212583    2.019601    1.474226
     66          1           0       -3.941282    3.588306    1.362325
     67          1           0      -10.246103    3.833254   -0.469177
     68          1           0      -10.357763   -2.580151   -1.161374
     69          1           0       -2.662599   -1.031425    2.041473
     70          1           0       -2.265704    1.890930    1.331306
     71          1           0       -2.000395    1.243086    3.532583
     72          1           0       -3.762385    2.417803    3.718713
     73          1           0       -3.588265    0.333836    3.649657
     74          1           0       -1.967634   -1.541195   -0.308148
     75          1           0       -2.172345    0.069665   -0.678759
     76          1           0       -0.112082    0.752254    0.878258
     77          1           0       -0.191488   -0.870332    1.432669
     78          1           0       -4.910758    6.542777    0.374377
     79          1           0       -6.395062    6.745189    1.631025
     80          1           0       -5.078984    5.704050    1.995367
     81          1           0       -9.731789    5.646418    0.447254
     82          1           0       -9.133201    8.011386    0.154421
     83          1           0       -7.380391    7.657391   -0.246234
     84          1           0      -12.124599    3.502709   -1.774430
     85          1           0      -13.182703    1.780364   -1.939225
     86          1           0      -12.443193    2.736182   -0.045806
     87          1           0      -12.419960   -2.035256   -1.106250
     88          1           0      -13.205390   -0.417009   -1.414216
     89          1           0      -13.515168   -1.475181   -3.585638
     90          1           0      -12.198470   -0.341896   -3.709597
     91          1           0      -11.538302   -1.862414   -3.546447
     92          1           0       -8.730176   -4.613749   -2.004236
     93          1           0       -7.876912   -5.725123   -0.867541
     94          1           0       -9.451268   -5.116326   -0.287783
     95          1           0       -3.396944   -3.485235   -0.174436
     96          1           0       -1.477231   -4.403961    3.515871
     97          1           0       -2.763389   -5.358023    3.734809
     98          1           0       -1.485999   -6.145023    2.877116
     99          1           0        2.462496   -1.710263   -1.309595
    100          1           0        2.591563   -0.068742   -2.065408
    101          1           0        4.286169   -0.812314    0.566008
    102          1           0        3.986239    1.194135   -2.908682
    103          1           0        5.360663    2.213647   -1.820220
    104          1           0        5.800986    0.926319   -2.989867
    105          1           0        6.551093    1.549520    0.045219
    106          1           0        6.371535    0.051939    0.718332
    107          1           0        7.045664   -0.952632   -1.439388
    108          1           0        7.628111    0.420973   -1.945097
    109          1           0        9.062360    0.859466    0.128103
    110          1           0        8.586120   -1.009949    0.365560
    111          1           0       10.199694    0.117455   -1.942448
    112          1           0        9.202323   -2.078985   -1.935506
    113          1           0       11.114643   -2.202871   -2.301788
    114          1           0       10.298323   -2.803372   -0.653107
    115          1           0       11.178234    0.586026    0.148812
    116          1           0       11.135335   -0.829991    0.771828
    117          1           0       12.664252   -1.737090   -1.002435
    118          1           0       12.794340    0.080995   -1.779310
    119          1           0       13.627959    0.864797    0.392742
    120          1           0       14.015282   -0.508810    1.100542
    121          1           0       15.367205    0.476029   -1.488351
    122          1           0       15.518919   -2.349198    0.085233
    123          1           0       14.933739   -1.857471   -1.596485
    124          1           0       16.378947   -1.728228   -1.169705
    125          1           0       16.168300    1.414005    0.846082
    126          1           0       16.404364   -0.104790    1.391224
    127          1           0       18.291068   -0.601354   -0.406042
    128          1           0       17.872382    1.047385   -1.045590
    129          1           0       18.202588    2.265569    1.297381
    130          1           0       18.975277    0.721607    1.936579
    131          1           0       20.580881    0.223176    0.180983
    132          1           0       20.258932    3.200849   -1.110460
    133          1           0       21.486477    1.858538   -1.492244
    134          1           0       19.837555    1.445562   -1.716515
    135          1           0       21.051068    1.553746    2.367903
    136          1           0       22.373408    2.041294    1.291391
    137          1           0       20.893433    3.115695    1.523974
 ---------------------------------------------------------------------

 SCF Done:  E(RCAM-B3LYP) =  -2932.43262021     A.U. after   17 cycles

 Excitation energies and oscillator strengths:

 Excited State   1:      Singlet-A      2.0487 eV  605.19 nm  f=0.2670  <S**2>=0.000
     240 -> 242       -0.10514
     240 -> 243        0.21160
     241 -> 242        0.65730
 This state for optimization and/or second-order correction.
 Total Energy, E(TD-HF/TD-KS) =  -2932.35733197
 Copying the excited state density for this state as the 1-particle RhoCI density.

 The electronic state is 1-A.
 Alpha  occ. eigenvalues --  -46.82781 -19.26221 -19.25633 -19.20743 -19.19088
 Alpha  occ. eigenvalues --  -19.18153 -14.41364 -14.39929 -14.39333 -14.39214
 Alpha  occ. eigenvalues --  -10.39088 -10.38374 -10.33595 -10.32189 -10.31198
 Alpha  occ. eigenvalues --  -10.30854 -10.30790 -10.30656 -10.30079 -10.29988
 Alpha  occ. eigenvalues --  -10.29549 -10.28946 -10.28705 -10.28413 -10.28357
 Alpha  occ. eigenvalues --  -10.28310 -10.28036 -10.27969 -10.27953 -10.27899
 Alpha  occ. eigenvalues --  -10.27877 -10.27841 -10.27764 -10.27715 -10.27661
 Alpha  occ. eigenvalues --  -10.27659 -10.27534 -10.27505 -10.27253 -10.27193
 Alpha  occ. eigenvalues --  -10.27141 -10.27039 -10.26957 -10.26950 -10.26919
 Alpha  occ. eigenvalues --  -10.26808 -10.26799 -10.26781 -10.26692 -10.26677
 Alpha  occ. eigenvalues --  -10.26548 -10.26431 -10.26356 -10.26046 -10.26001
 Alpha  occ. eigenvalues --  -10.25818 -10.25681 -10.25356 -10.25108 -10.24657
 Alpha  occ. eigenvalues --  -10.24437 -10.24311 -10.24240 -10.23911 -10.22008
 Alpha  occ. eigenvalues --   -3.12286  -1.86948  -1.86552  -1.86490  -1.18562
 Alpha  occ. eigenvalues --   -1.18265  -1.10414  -1.08749  -1.05500  -1.04957
 Alpha  occ. eigenvalues --   -1.04001  -1.03027  -1.02076  -0.92022  -0.91846
 Alpha  occ. eigenvalues --   -0.90553  -0.90493  -0.89225  -0.88783  -0.88492
 Alpha  occ. eigenvalues --   -0.87545  -0.87037  -0.86910  -0.86413  -0.85871
 Alpha  occ. eigenvalues --   -0.85157  -0.84603  -0.83822  -0.82979  -0.82284
 Alpha  occ. eigenvalues --   -0.81542  -0.81176  -0.80585  -0.79959  -0.78375
 Alpha  occ. eigenvalues --   -0.77421  -0.77199  -0.76948  -0.76217  -0.75535
 Alpha  occ. eigenvalues --   -0.75466  -0.74460  -0.74036  -0.72937  -0.71884
 Alpha  occ. eigenvalues --   -0.70621  -0.70482  -0.69872  -0.69394  -0.68686
 Alpha  occ. eigenvalues --   -0.67768  -0.67534  -0.66004  -0.64871  -0.63900
 Alpha  occ. eigenvalues --   -0.63594  -0.63280  -0.62840  -0.61612  -0.61475
 Alpha  occ. eigenvalues --   -0.60368  -0.60351  -0.60197  -0.59459  -0.58624
 Alpha  occ. eigenvalues --   -0.58026  -0.57756  -0.57277  -0.57052  -0.56648
 Alpha  occ. eigenvalues --   -0.55760  -0.55568  -0.55076  -0.55000  -0.54677
 Alpha  occ. eigenvalues --   -0.54112  -0.53876  -0.53515  -0.53265  -0.53108
 Alpha  occ. eigenvalues --   -0.52950  -0.52423  -0.52330  -0.51627  -0.51398
 Alpha  occ. eigenvalues --   -0.51184  -0.51122  -0.50693  -0.50348  -0.50141
 Alpha  occ. eigenvalues --   -0.50133  -0.49699  -0.49574  -0.49461  -0.49197
 Alpha  occ. eigenvalues --   -0.48906  -0.48795  -0.48625  -0.48426  -0.48350
 Alpha  occ. eigenvalues --   -0.47960  -0.47387  -0.47318  -0.47259  -0.46844
 Alpha  occ. eigenvalues --   -0.46724  -0.46597  -0.46413  -0.46108  -0.45594
 Alpha  occ. eigenvalues --   -0.45432  -0.45211  -0.44904  -0.44798  -0.44762
 Alpha  occ. eigenvalues --   -0.44509  -0.44433  -0.44315  -0.44057  -0.43912
 Alpha  occ. eigenvalues --   -0.43899  -0.43549  -0.43450  -0.42946  -0.42845
 Alpha  occ. eigenvalues --   -0.42627  -0.42518  -0.42443  -0.42207  -0.42035
 Alpha  occ. eigenvalues --   -0.41901  -0.41878  -0.41614  -0.41591  -0.41351
 Alpha  occ. eigenvalues --   -0.41315  -0.40742  -0.40679  -0.40448  -0.40426
 Alpha  occ. eigenvalues --   -0.39932  -0.39784  -0.39597  -0.39297  -0.39028
 Alpha  occ. eigenvalues --   -0.38633  -0.38612  -0.38518  -0.38371  -0.37783
 Alpha  occ. eigenvalues --   -0.37672  -0.37220  -0.36720  -0.36612  -0.36444
 Alpha  occ. eigenvalues --   -0.36419  -0.35895  -0.35776  -0.35476  -0.35231
 Alpha  occ. eigenvalues --   -0.34435  -0.34341  -0.34011  -0.33791  -0.33615
 Alpha  occ. eigenvalues --   -0.33460  -0.31797  -0.31221  -0.30682  -0.30167
 Alpha  occ. eigenvalues --   -0.29651  -0.28840  -0.28646  -0.27905  -0.22841
 Alpha  occ. eigenvalues --   -0.20790
 Alpha virt. eigenvalues --   -0.06349  -0.02144   0.01795   0.04273   0.05295
 Alpha virt. eigenvalues --    0.06043   0.06219   0.06656   0.07302   0.07687
 Alpha virt. eigenvalues --    0.07963   0.09547   0.10645   0.11084   0.11674

 Mulliken charges:
               1
     1  Mg   0.819335
     2  C    0.064311
     3  C   -0.244547
     4  C   -0.209178
     5  C   -0.224686
     6  N   -0.628416
     7  C    0.248119
     8  C   -0.165417
     9  C   -0.164863
    10  C    0.427454
    11  C   -0.288428
    12  C   -0.185542
    13  C   -0.238906
    14  C    0.599766
    15  O   -0.482102
    16  O   -0.477191
    17  N   -0.679669
    18  C    0.344879
    19  C    0.029319
    20  C    0.033829
    21  C    0.230672
    22  C   -0.380293
    23  C   -0.037041
    24  C   -0.247141
    25  N   -0.713973
    26  C    0.339180
    27  C   -0.015635
    28  C    0.053389
    29  C    0.350897
    30  C   -0.337960
    31  C   -0.261846
    32  C   -0.301891
    33  N   -0.671847
    34  C    0.193893
    35  C    0.035556
    36  C   -0.015773
    37  C    0.317921
    38  C   -0.359649
    39  C    0.353428
    40  O   -0.471034
    41  C   -0.303067
    42  C    0.603113
    43  O   -0.526564
    44  O   -0.425477
    45  C   -0.088703
    46  C    0.016398
    47  C   -0.132878
    48  C    0.073664
    49  C   -0.333387
    50  C   -0.233195
    51  C   -0.179242
    52  C   -0.201980
    53  C   -0.078183
    54  C   -0.299001
    55  C   -0.171384
    56  C   -0.154660
    57  C   -0.170644
    58  C   -0.094075
    59  C   -0.209325
    60  C   -0.173153
    61  C   -0.181912
    62  C   -0.152962
    63  C   -0.049130
    64  C   -0.312693
    65  C   -0.299480
    66  H    0.075066
    67  H    0.080439
    68  H    0.090490
    69  H    0.120385
    70  H    0.106393
    71  H    0.107906
    72  H    0.083599
    73  H    0.114065
    74  H    0.122907
    75  H    0.116564
    76  H    0.132600
    77  H    0.136398
    78  H    0.116107
    79  H    0.112345
    80  H    0.124273
    81  H    0.096637
    82  H    0.109176
    83  H    0.104933
    84  H    0.077018
    85  H    0.125852
    86  H    0.124967
    87  H    0.092232
    88  H    0.106262
    89  H    0.086350
    90  H    0.127260
    91  H    0.120815
    92  H    0.115602
    93  H    0.152274
    94  H    0.120777
    95  H    0.158016
    96  H    0.135977
    97  H    0.140430
    98  H    0.139014
    99  H    0.111161
   100  H    0.117465
   101  H    0.092479
   102  H    0.108938
   103  H    0.115136
   104  H    0.138816
   105  H    0.107778
   106  H    0.099526
   107  H    0.115371
   108  H    0.106269
   109  H    0.098185
   110  H    0.102283
   111  H    0.070504
   112  H    0.100398
   113  H    0.087370
   114  H    0.103949
   115  H    0.072997
   116  H    0.082011
   117  H    0.102898
   118  H    0.073898
   119  H    0.087798
   120  H    0.086317
   121  H    0.065241
   122  H    0.083594
   123  H    0.100841
   124  H    0.053662
   125  H    0.101128
   126  H    0.107012
   127  H    0.067419
   128  H    0.112033
   129  H    0.074121
   130  H    0.062054
   131  H    0.058009
   132  H    0.086794
   133  H    0.104061
   134  H    0.108883
   135  H    0.113569
   136  H    0.090963
   137  H    0.094939
 Sum of Mulliken charges =   0.00000

 Dipole moment (field-independent basis, Debye):
    X=              2.2933    Y=              5.5524    Z=             -0.1452  Tot=              6.0091
 Quadrupole moment (field-independent basis, Debye-Ang):
   XX=           -351.5541   YY=           -387.1147   ZZ=           -400.1434
   XY=            -26.4846   XZ=             17.5916   YZ=             -3.0010

 Normal termination of Gaussian 09 at Sun Jun 30 19:08:25 2019.
