 Gaussian 09, Revision D.01,
 Gaussian 09:  ES64L-G09RevD.01 24-Apr-2013

 -------------------------------------
 # td=(NStates=1) CAM-B3LYP/6-31G(d,p)
 -------------------------------------

 --
 TD
 --
 Symbolic Z-matrix:
 Charge =  0 Multiplicity = 1

                         Standard orientation:
 ---------------------------------------------------------------------
 Center     Atomic      Atomic             Coordinates (Angstroms)
 Number     Number       Type             X           Y           Z
 ---------------------------------------------------------------------
      1         12           0       -7.191910    0.574019    0.101215
      2          6           0       -4.875045   -1.942044    0.441716
      3          6           0       -4.874405    2.768146    1.395252
      4          6           0       -9.452575    3.037486   -0.259068
      5          6           0       -9.538865   -1.769110   -0.888816
      6          7           0       -5.130315    0.459519    0.697556
      7          6           0       -4.340414   -0.654486    0.772790
      8          6           0       -2.953080   -0.361759    1.226688
      9          6           0       -3.038464    1.110388    1.682138
     10          6           0       -4.334975    1.481249    1.197351
     11          6           0       -2.890400    1.219320    3.257388
     12          6           0       -1.922131   -0.619452    0.128927
     13          6           0       -0.494877   -0.332303    0.459616
     14          6           0        0.503554   -0.625058   -0.619236
     15          8           0        0.293425   -1.082260   -1.671281
     16          8           0        1.698362   -0.302649   -0.241093
     17          7           0       -7.185519    2.604792    0.489771
     18          6           0       -6.116364    3.362652    0.867584
     19          6           0       -6.463713    4.680766    0.870636
     20          6           0       -7.794781    4.748210    0.510757
     21          6           0       -8.221172    3.433985    0.192856
     22          6           0       -5.594225    5.753035    1.331233
     23          6           0       -8.627567    5.972226    0.347974
     24          6           0       -8.234045    7.221788    0.208521
     25          7           0       -9.119140    0.645719   -0.644956
     26          6           0       -9.911880    1.783878   -0.671224
     27          6           0      -11.112171    1.413161   -1.188215
     28          6           0      -11.176603    0.015109   -1.348391
     29          6           0       -9.901615   -0.423741   -0.944098
     30          6           0      -12.258348    2.465506   -1.600496
     31          6           0      -12.356900   -0.752758   -1.819615
     32          6           0      -12.337283   -1.047424   -3.287027
     33          7           0       -7.283972   -1.377261   -0.151344
     34          6           0       -8.324769   -2.286801   -0.522896
     35          6           0       -7.826310   -3.710706   -0.497078
     36          6           0       -6.566982   -3.525077   -0.107640
     37          6           0       -6.208847   -2.192786    0.114682
     38          6           0       -8.603513   -4.806881   -0.720600
     39          6           0       -5.308981   -4.328036    0.256125
     40          8           0       -5.224012   -5.553415    0.332917
     41          6           0       -4.128811   -3.277491    0.458708
     42          6           0       -3.507812   -3.617598    1.872201
     43          8           0       -3.724164   -3.080492    2.918559
     44          8           0       -2.697743   -4.653931    1.740949
     45          6           0       -2.202575   -5.157255    2.876691
     46          6           0        2.787711   -0.599040   -1.254451
     47          6           0        4.016947   -0.317074   -0.456087
     48          6           0        5.133945    0.382219   -0.951440
     49          6           0        5.036144    1.192473   -2.247303
     50          6           0        6.440678    0.392160   -0.247649
     51          6           0        7.644520    0.053867   -1.001618
     52          6           0        8.903022   -0.142077   -0.094661
     53          6           0       10.253845   -0.478682   -0.822205
     54          6           0       10.108152   -1.919809   -1.474088
     55          6           0       11.399318   -0.393057    0.072281
     56          6           0       12.757045   -0.465065   -0.609308
     57          6           0       14.066551   -0.010125    0.188423
     58          6           0       15.335836   -0.049874   -0.441383
     59          6           0       15.611775   -1.619668   -0.980204
     60          6           0       16.469126    0.479073    0.451570
     61          6           0       17.867737    0.403482   -0.193141
     62          6           0       18.898685    1.059590    0.767113
     63          6           0       20.381686    1.245547    0.208241
     64          6           0       20.458441    2.083501   -1.088710
     65          6           0       21.282035    1.771455    1.293679
     66          1           0       -4.329155    3.436690    1.773921
     67          1           0      -10.218278    3.696290   -0.428746
     68          1           0      -10.306536   -2.575957   -1.059598
     69          1           0       -2.731152   -1.021084    1.953738
     70          1           0       -2.363607    1.680222    1.262251
     71          1           0       -1.919106    1.213046    3.691675
     72          1           0       -3.168460    2.156180    3.547407
     73          1           0       -3.468575    0.339497    3.628712
     74          1           0       -2.108564   -1.596740   -0.253475
     75          1           0       -2.326723    0.005256   -0.700308
     76          1           0       -0.484739    0.770145    0.676964
     77          1           0       -0.203827   -0.900660    1.443571
     78          1           0       -4.933439    6.348475    0.516950
     79          1           0       -6.212485    6.492257    1.712796
     80          1           0       -4.807694    5.416637    2.067114
     81          1           0       -9.828538    5.831542    0.294109
     82          1           0       -8.931757    8.289669    0.122730
     83          1           0       -7.146710    7.383145   -0.018955
     84          1           0      -11.806813    3.039846   -2.537650
     85          1           0      -13.237169    1.991878   -1.901567
     86          1           0      -12.599048    3.035169   -0.633377
     87          1           0      -12.454220   -1.808225   -1.170480
     88          1           0      -13.162410   -0.268505   -1.359726
     89          1           0      -13.247067   -1.588439   -3.537640
     90          1           0      -12.262629   -0.283679   -3.861454
     91          1           0      -11.554956   -1.615001   -3.564111
     92          1           0       -8.980435   -5.016300   -1.811810
     93          1           0       -8.029985   -5.717051   -0.678061
     94          1           0       -9.428270   -4.742611    0.059559
     95          1           0       -3.478188   -3.338067   -0.457562
     96          1           0       -1.678506   -4.294588    3.461439
     97          1           0       -2.979241   -5.526077    3.503046
     98          1           0       -1.479981   -5.877536    2.604232
     99          1           0        2.719475   -1.617647   -1.578646
    100          1           0        2.677923   -0.064795   -2.010032
    101          1           0        4.152552   -0.924871    0.388302
    102          1           0        4.011915    1.308117   -2.770867
    103          1           0        5.386469    2.207259   -2.089693
    104          1           0        5.734551    0.682683   -2.875344
    105          1           0        6.645082    1.502579    0.253027
    106          1           0        6.370665   -0.110631    0.707416
    107          1           0        7.467941   -0.985258   -1.461955
    108          1           0        7.776394    0.512986   -1.955222
    109          1           0        8.927409    0.883925    0.397332
    110          1           0        8.884482   -0.915668    0.693920
    111          1           0       10.396698    0.183318   -1.690698
    112          1           0        9.324398   -1.941255   -2.096918
    113          1           0       10.983404   -2.313520   -1.947810
    114          1           0        9.912756   -2.645885   -0.772309
    115          1           0       11.364720    0.679245    0.516464
    116          1           0       11.321645   -0.965546    1.070130
    117          1           0       12.956887   -1.436663   -0.981288
    118          1           0       12.746676    0.150837   -1.467832
    119          1           0       13.612737    1.005772    0.604537
    120          1           0       14.060446   -0.768059    1.001969
    121          1           0       15.417503    0.482334   -1.245853
    122          1           0       15.878372   -2.290405   -0.067825
    123          1           0       14.907827   -2.273311   -1.487421
    124          1           0       16.421846   -1.728813   -1.688329
    125          1           0       16.174915    1.652469    0.509546
    126          1           0       16.541277   -0.157953    1.226643
    127          1           0       18.245523   -0.586503   -0.543985
    128          1           0       17.758810    1.110808   -1.029398
    129          1           0       18.419980    2.085685    1.044006
    130          1           0       18.899364    0.743291    1.758486
    131          1           0       20.759955    0.247968   -0.262619
    132          1           0       20.331028    3.236318   -0.861726
    133          1           0       21.327639    2.069965   -1.560481
    134          1           0       19.703413    1.884676   -1.889280
    135          1           0       21.442147    0.946035    2.154804
    136          1           0       22.374930    1.906228    0.750296
    137          1           0       21.259567    2.823006    1.633835
 ---------------------------------------------------------------------

 SCF Done:  E(RCAM-B3LYP) =  -2932.68395804     A.U. after   16 cycles

 Excitation energies and oscillator strengths:

 Excited State   1:      Singlet-A      2.1269 eV  582.95 nm  f=0.1898  <S**2>=0.000
     240 -> 243        0.29422
     241 -> 242        0.63236
 This state for optimization and/or second-order correction.
 Total Energy, E(TD-HF/TD-KS) =  -2932.60579766
 Copying the excited state density for this state as the 1-particle RhoCI density.

 The electronic state is 1-A.
 Alpha  occ. eigenvalues --  -46.83217 -19.26827 -19.25298 -19.21979 -19.21683
 Alpha  occ. eigenvalues --  -19.19740 -14.41641 -14.38996 -14.38102 -14.37464
 Alpha  occ. eigenvalues --  -10.40074 -10.37696 -10.36419 -10.31287 -10.30548
 Alpha  occ. eigenvalues --  -10.30489 -10.29972 -10.29901 -10.29161 -10.29026
 Alpha  occ. eigenvalues --  -10.28713 -10.28362 -10.28318 -10.28153 -10.27809
 Alpha  occ. eigenvalues --  -10.27730 -10.27696 -10.27521 -10.27438 -10.27246
 Alpha  occ. eigenvalues --  -10.27117 -10.26879 -10.26757 -10.26750 -10.26691
 Alpha  occ. eigenvalues --  -10.26651 -10.26589 -10.26555 -10.26553 -10.26347
 Alpha  occ. eigenvalues --  -10.26345 -10.26257 -10.26225 -10.26212 -10.26119
 Alpha  occ. eigenvalues --  -10.26085 -10.26082 -10.25756 -10.25697 -10.25652
 Alpha  occ. eigenvalues --  -10.25470 -10.25396 -10.25324 -10.25281 -10.25277
 Alpha  occ. eigenvalues --  -10.25273 -10.25068 -10.25052 -10.24811 -10.24418
 Alpha  occ. eigenvalues --  -10.24223 -10.24040 -10.24032 -10.22599 -10.22340
 Alpha  occ. eigenvalues --   -3.12285  -1.86993  -1.86537  -1.86450  -1.21839
 Alpha  occ. eigenvalues --   -1.19812  -1.11624  -1.11119  -1.09626  -1.04396
 Alpha  occ. eigenvalues --   -1.03500  -1.02895  -1.01896  -0.92188  -0.91794
 Alpha  occ. eigenvalues --   -0.91061  -0.90866  -0.89710  -0.89628  -0.88959
 Alpha  occ. eigenvalues --   -0.88145  -0.87942  -0.87804  -0.87373  -0.86772
 Alpha  occ. eigenvalues --   -0.85691  -0.84331  -0.83802  -0.83329  -0.82247
 Alpha  occ. eigenvalues --   -0.81934  -0.81834  -0.80564  -0.80069  -0.79121
 Alpha  occ. eigenvalues --   -0.77704  -0.76840  -0.76734  -0.76079  -0.75763
 Alpha  occ. eigenvalues --   -0.75461  -0.74840  -0.74601  -0.73722  -0.72894
 Alpha  occ. eigenvalues --   -0.72460  -0.71227  -0.70573  -0.69874  -0.68225
 Alpha  occ. eigenvalues --   -0.67223  -0.66208  -0.65135  -0.65067  -0.64743
 Alpha  occ. eigenvalues --   -0.64670  -0.64218  -0.63913  -0.63402  -0.62712
 Alpha  occ. eigenvalues --   -0.62438  -0.61136  -0.60368  -0.60006  -0.59382
 Alpha  occ. eigenvalues --   -0.59006  -0.58564  -0.58076  -0.57661  -0.57330
 Alpha  occ. eigenvalues --   -0.56788  -0.56160  -0.56059  -0.55668  -0.55549
 Alpha  occ. eigenvalues --   -0.55144  -0.54693  -0.54410  -0.54026  -0.53256
 Alpha  occ. eigenvalues --   -0.53157  -0.52983  -0.52687  -0.51860  -0.51584
 Alpha  occ. eigenvalues --   -0.51570  -0.51231  -0.50968  -0.50795  -0.50310
 Alpha  occ. eigenvalues --   -0.50250  -0.49961  -0.49866  -0.49856  -0.49402
 Alpha  occ. eigenvalues --   -0.49262  -0.49143  -0.49065  -0.48528  -0.48277
 Alpha  occ. eigenvalues --   -0.48198  -0.48122  -0.47962  -0.47554  -0.47030
 Alpha  occ. eigenvalues --   -0.46904  -0.46836  -0.46759  -0.46576  -0.46307
 Alpha  occ. eigenvalues --   -0.46098  -0.45691  -0.45565  -0.45433  -0.45081
 Alpha  occ. eigenvalues --   -0.44961  -0.44794  -0.44650  -0.44465  -0.44379
 Alpha  occ. eigenvalues --   -0.44331  -0.43864  -0.43610  -0.43584  -0.43370
 Alpha  occ. eigenvalues --   -0.43321  -0.42960  -0.42937  -0.42717  -0.42547
 Alpha  occ. eigenvalues --   -0.42454  -0.42263  -0.42200  -0.41801  -0.41615
 Alpha  occ. eigenvalues --   -0.41291  -0.41259  -0.40964  -0.40907  -0.40678
 Alpha  occ. eigenvalues --   -0.40018  -0.39714  -0.39530  -0.39515  -0.39279
 Alpha  occ. eigenvalues --   -0.38974  -0.38617  -0.38473  -0.38176  -0.37724
 Alpha  occ. eigenvalues --   -0.37561  -0.37487  -0.36968  -0.36790  -0.36642
 Alpha  occ. eigenvalues --   -0.36490  -0.36250  -0.35969  -0.35753  -0.35506
 Alpha  occ. eigenvalues --   -0.35285  -0.35220  -0.35168  -0.34992  -0.33594
 Alpha  occ. eigenvalues --   -0.33548  -0.32965  -0.31956  -0.30853  -0.30374
 Alpha  occ. eigenvalues --   -0.29665  -0.29009  -0.27007  -0.26459  -0.22561
 Alpha  occ. eigenvalues --   -0.21309
 Alpha virt. eigenvalues --   -0.05877  -0.03283   0.01714   0.04696   0.04734
 Alpha virt. eigenvalues --    0.06228   0.06756   0.07298   0.07731   0.08206
 Alpha virt. eigenvalues --    0.08659   0.11014   0.11179   0.11824   0.11917

 Mulliken charges:
               1
     1  Mg   0.809800
     2  C   -0.002401
     3  C   -0.145061
     4  C   -0.137984
     5  C   -0.192127
     6  N   -0.623362
     7  C    0.328799
     8  C   -0.157250
     9  C   -0.130842
    10  C    0.317317
    11  C   -0.310074
    12  C   -0.174230
    13  C   -0.270372
    14  C    0.606039
    15  O   -0.466911
    16  O   -0.477205
    17  N   -0.708148
    18  C    0.282209
    19  C    0.028774
    20  C    0.013849
    21  C    0.323412
    22  C   -0.386634
    23  C   -0.048153
    24  C   -0.270276
    25  N   -0.719573
    26  C    0.308236
    27  C   -0.022657
    28  C    0.017263
    29  C    0.311172
    30  C   -0.363758
    31  C   -0.230886
    32  C   -0.297390
    33  N   -0.752897
    34  C    0.242085
    35  C    0.112235
    36  C   -0.017359
    37  C    0.358825
    38  C   -0.431796
    39  C    0.382631
    40  O   -0.455440
    41  C   -0.321125
    42  C    0.611785
    43  O   -0.462322
    44  O   -0.391572
    45  C   -0.086892
    46  C    0.039140
    47  C   -0.138447
    48  C    0.104907
    49  C   -0.368876
    50  C   -0.208685
    51  C   -0.188796
    52  C   -0.171471
    53  C   -0.064156
    54  C   -0.325923
    55  C   -0.163413
    56  C   -0.192459
    57  C   -0.159976
    58  C   -0.038478
    59  C   -0.354737
    60  C   -0.168345
    61  C   -0.186132
    62  C   -0.169177
    63  C   -0.034280
    64  C   -0.312879
    65  C   -0.303883
    66  H    0.026714
    67  H    0.080626
    68  H    0.091047
    69  H    0.122923
    70  H    0.108135
    71  H    0.109266
    72  H    0.118159
    73  H    0.130759
    74  H    0.113812
    75  H    0.106520
    76  H    0.132306
    77  H    0.123531
    78  H    0.093325
    79  H    0.133245
    80  H    0.108397
    81  H    0.080748
    82  H    0.092131
    83  H    0.102119
    84  H    0.118100
    85  H    0.109614
    86  H    0.109721
    87  H    0.061327
    88  H    0.113701
    89  H    0.097018
    90  H    0.121113
    91  H    0.118456
    92  H    0.123303
    93  H    0.152885
    94  H    0.136609
    95  H    0.172982
    96  H    0.097969
    97  H    0.130201
    98  H    0.122387
    99  H    0.140718
   100  H    0.115613
   101  H    0.089586
   102  H    0.110255
   103  H    0.124315
   104  H    0.126483
   105  H    0.068574
   106  H    0.114179
   107  H    0.084402
   108  H    0.110707
   109  H    0.083573
   110  H    0.099754
   111  H    0.086048
   112  H    0.106514
   113  H    0.102734
   114  H    0.103605
   115  H    0.071978
   116  H    0.080199
   117  H    0.099045
   118  H    0.091635
   119  H    0.068843
   120  H    0.086208
   121  H    0.091720
   122  H    0.083516
   123  H    0.108495
   124  H    0.103419
   125  H    0.087146
   126  H    0.103982
   127  H    0.098413
   128  H    0.095730
   129  H    0.067173
   130  H    0.096068
   131  H    0.081460
   132  H    0.071763
   133  H    0.115918
   134  H    0.098907
   135  H    0.093954
   136  H    0.065660
   137  H    0.118893
 Sum of Mulliken charges =   0.00000

 Dipole moment (field-independent basis, Debye):
    X=              3.7445    Y=              1.3956    Z=             -0.7809  Tot=              4.0717
 Quadrupole moment (field-independent basis, Debye-Ang):
   XX=           -351.0010   YY=           -392.6975   ZZ=           -395.4330
   XY=             -4.0654   XZ=              4.4688   YZ=             -1.6023

 Normal termination of Gaussian 09 at Fri Jun 28 18:21:36 2019.
